/*--------------------------------*- C++ -*----------------------------------*\
  =========                 |
  \\      /  F ield         | OpenFOAM: The Open Source CFD Toolbox
   \\    /   O peration     | Website:  https://openfoam.org
    \\  /    A nd           | Version:  11
     \\/     M anipulation  |
\*---------------------------------------------------------------------------*/
FoamFile
{
    format      ascii;
    class       volScalarField;
    location    "0.052";
    object      k;
}
// * * * * * * * * * * * * * * * * * * * * * * * * * * * * * * * * * * * * * //

dimensions      [0 2 -2 0 0 0 0];

internalField   nonuniform List<scalar> 
287084
(
0.381529
0.395992
0.40753
0.414277
0.417029
0.417485
0.417479
0.417464
0.417338
0.417483
0.417633
0.417609
0.417625
0.417602
0.41757
0.417405
0.41736
0.417494
0.417435
0.417548
0.417738
0.417623
0.417654
0.417676
0.417634
0.417538
0.417488
0.417624
0.417728
0.417681
0.417681
0.417668
0.417615
0.417334
0.417327
0.417448
0.417379
0.417382
0.417339
0.417236
0.417166
0.417212
0.417227
0.41716
0.417148
0.417116
0.416991
0.417098
0.417288
0.417104
0.417179
0.417289
0.417274
0.417262
0.41701
0.416978
0.417102
0.417117
0.417106
0.41715
0.417163
0.416967
0.416959
0.417265
0.417382
0.417332
0.417215
0.417127
0.417243
0.417341
0.417293
0.417114
0.417098
0.417258
0.41724
0.417302
0.417315
0.417271
0.417216
0.41729
0.41742
0.41738
0.417391
0.417402
0.417378
0.417208
0.417051
0.417149
0.417221
0.41707
0.381583
0.395877
0.407352
0.414211
0.417018
0.41748
0.417482
0.417438
0.417513
0.417619
0.417614
0.417614
0.417512
0.417514
0.417503
0.417367
0.417411
0.417513
0.417419
0.417362
0.417474
0.417673
0.417789
0.41779
0.417746
0.417624
0.4176
0.417709
0.417534
0.417583
0.417696
0.417619
0.417619
0.417574
0.417473
0.417473
0.417472
0.417288
0.417358
0.417577
0.41755
0.41751
0.417293
0.417336
0.417508
0.417487
0.417448
0.417429
0.417427
0.417367
0.417248
0.417131
0.417219
0.417255
0.417227
0.4172
0.417169
0.417045
0.417115
0.417318
0.417199
0.41729
0.417339
0.417295
0.417159
0.417153
0.417342
0.417422
0.417387
0.41721
0.417308
0.417504
0.417502
0.417496
0.417365
0.417338
0.417196
0.417285
0.417429
0.417333
0.417324
0.417311
0.417174
0.417216
0.417311
0.417315
0.417316
0.417237
0.417219
0.417014
0.381585
0.395865
0.407348
0.414168
0.416966
0.417688
0.417746
0.417705
0.41755
0.417628
0.417757
0.417672
0.417691
0.41768
0.417533
0.417549
0.41771
0.41776
0.417722
0.417506
0.417518
0.41765
0.417641
0.417816
0.417876
0.417822
0.417684
0.417622
0.417656
0.417608
0.417538
0.417512
0.417523
0.417493
0.417466
0.417386
0.41742
0.417559
0.417523
0.417534
0.417534
0.417503
0.417518
0.417511
0.417468
0.417436
0.41739
0.417474
0.417524
0.417465
0.417293
0.417232
0.417254
0.417098
0.417126
0.417284
0.417243
0.417156
0.417219
0.417363
0.417324
0.417338
0.417319
0.417144
0.417185
0.417388
0.41741
0.417413
0.417336
0.4173
0.41731
0.417311
0.417121
0.417122
0.417243
0.417242
0.417167
0.41714
0.417153
0.417151
0.417102
0.417222
0.417412
0.417182
0.417169
0.417282
0.417119
0.417119
0.417221
0.417051
0.381564
0.395908
0.407307
0.414089
0.417031
0.41779
0.417856
0.417816
0.417648
0.417724
0.417833
0.417836
0.417835
0.417589
0.417636
0.417777
0.417782
0.417783
0.417704
0.417613
0.417606
0.417609
0.417589
0.41756
0.417567
0.417575
0.417547
0.417479
0.417558
0.417796
0.417775
0.417736
0.417636
0.417635
0.417653
0.417663
0.417588
0.41738
0.417325
0.417481
0.417512
0.417476
0.417338
0.417424
0.417484
0.417475
0.417472
0.417363
0.41731
0.417238
0.417287
0.417302
0.417267
0.417214
0.417118
0.417119
0.41704
0.417084
0.417374
0.417422
0.417365
0.417163
0.417143
0.417318
0.417254
0.417366
0.417454
0.417286
0.417391
0.417487
0.417233
0.417217
0.417323
0.417301
0.417249
0.417285
0.417303
0.417412
0.417534
0.417526
0.41752
0.41729
0.417341
0.417438
0.417404
0.417354
0.417227
0.41726
0.417276
0.417148
0.381563
0.395911
0.407282
0.414104
0.417052
0.417606
0.417478
0.417569
0.417754
0.41753
0.417561
0.417756
0.417756
0.417732
0.417526
0.417576
0.417652
0.417576
0.417607
0.417566
0.417447
0.417451
0.41763
0.41761
0.417623
0.417624
0.417578
0.417536
0.417553
0.417551
0.417557
0.417557
0.417482
0.417462
0.417562
0.417472
0.417543
0.417755
0.417759
0.417744
0.417611
0.41745
0.417477
0.417518
0.417458
0.417304
0.417236
0.417275
0.417124
0.417122
0.417248
0.417237
0.417244
0.417237
0.417122
0.417087
0.417213
0.417183
0.417191
0.417192
0.417154
0.417107
0.417133
0.417057
0.417085
0.417211
0.417194
0.417211
0.417209
0.417121
0.417081
0.417354
0.417501
0.417456
0.417354
0.417261
0.417283
0.41724
0.417252
0.417251
0.417195
0.417142
0.417184
0.417105
0.417199
0.417395
0.417175
0.417192
0.417336
0.417144
0.381549
0.395907
0.407344
0.414121
0.41675
0.41714
0.417121
0.417355
0.417582
0.417572
0.417569
0.417458
0.417442
0.417306
0.417378
0.417641
0.417557
0.417577
0.417574
0.417601
0.417559
0.417443
0.41741
0.417546
0.417585
0.417458
0.417541
0.417696
0.417669
0.417664
0.417554
0.417572
0.417519
0.417478
0.417471
0.417543
0.417562
0.417545
0.417541
0.417496
0.417463
0.417297
0.417189
0.417215
0.417197
0.417183
0.417211
0.417213
0.417278
0.417312
0.417288
0.417179
0.417287
0.417431
0.417435
0.417435
0.417296
0.417226
0.417298
0.417352
0.417298
0.41716
0.417112
0.417213
0.417189
0.417305
0.417471
0.417441
0.417403
0.417215
0.417214
0.41736
0.417233
0.417314
0.417471
0.417305
0.417245
0.417263
0.417221
0.417194
0.41721
0.417133
0.41724
0.417435
0.417346
0.417358
0.417309
0.417295
0.41729
0.417154
0.381519
0.395936
0.40734
0.414122
0.416806
0.417186
0.417338
0.417469
0.417452
0.417448
0.417277
0.417428
0.417945
0.417959
0.417899
0.417989
0.418105
0.418062
0.418057
0.417977
0.418003
0.417961
0.417804
0.417862
0.418002
0.417989
0.41797
0.417738
0.417782
0.417817
0.417587
0.417642
0.417791
0.417701
0.417678
0.417617
0.417476
0.417399
0.417592
0.417703
0.417652
0.417542
0.417446
0.41755
0.417587
0.417536
0.417373
0.417424
0.417477
0.41743
0.417333
0.417292
0.417327
0.417327
0.417256
0.417236
0.417359
0.417432
0.417404
0.41738
0.417326
0.417138
0.417071
0.417254
0.417366
0.417295
0.417323
0.417277
0.417057
0.41704
0.417216
0.417236
0.417122
0.417141
0.417341
0.417419
0.417382
0.417258
0.417242
0.417116
0.417215
0.417408
0.417185
0.417165
0.41728
0.417211
0.417332
0.417426
0.417375
0.417192
0.381549
0.395933
0.407306
0.413942
0.417098
0.418086
0.418095
0.418216
0.418325
0.418308
0.418273
0.418279
0.418286
0.41826
0.418257
0.418181
0.418095
0.418148
0.418186
0.418117
0.418132
0.418094
0.418066
0.417997
0.417952
0.417965
0.417969
0.417975
0.417932
0.417855
0.417757
0.417703
0.417632
0.417537
0.417617
0.417669
0.417499
0.417529
0.417797
0.417815
0.417758
0.417551
0.417545
0.417692
0.417742
0.417701
0.417636
0.417623
0.417461
0.417541
0.417692
0.41754
0.417632
0.417688
0.417624
0.417639
0.417633
0.417649
0.417601
0.417489
0.417361
0.417341
0.417263
0.417267
0.417269
0.417129
0.41716
0.4173
0.417314
0.417339
0.417333
0.417306
0.417261
0.417174
0.417155
0.417387
0.41747
0.417425
0.417338
0.417213
0.417202
0.417161
0.417303
0.417433
0.417428
0.417426
0.417233
0.417291
0.417336
0.417133
0.381534
0.395923
0.407345
0.414082
0.416856
0.417484
0.417505
0.417455
0.417449
0.417335
0.417433
0.417849
0.417841
0.417912
0.417929
0.41791
0.417867
0.417963
0.418124
0.418125
0.418165
0.418122
0.41809
0.418004
0.418056
0.418073
0.418047
0.418044
0.417979
0.417805
0.417627
0.417604
0.417615
0.417571
0.417632
0.417672
0.417497
0.417499
0.417631
0.417567
0.417674
0.417742
0.417559
0.417648
0.417715
0.417717
0.417715
0.417602
0.417587
0.417508
0.417325
0.417153
0.417179
0.417195
0.417059
0.417057
0.417302
0.417368
0.417314
0.417167
0.417108
0.417293
0.417352
0.417305
0.417212
0.417135
0.417188
0.417138
0.417263
0.417472
0.417461
0.417443
0.417214
0.417243
0.417383
0.417245
0.417368
0.417554
0.417524
0.417485
0.41733
0.417271
0.4173
0.417248
0.417355
0.417407
0.417305
0.417302
0.417284
0.417102
0.381524
0.395885
0.407465
0.413988
0.416813
0.417401
0.417394
0.417328
0.417292
0.417562
0.417694
0.417642
0.417495
0.417426
0.417659
0.417776
0.417736
0.417738
0.417689
0.417479
0.417483
0.417651
0.417658
0.417594
0.417596
0.417705
0.417567
0.417623
0.417808
0.417787
0.417714
0.417654
0.417656
0.417566
0.417655
0.417689
0.417633
0.417514
0.417469
0.417467
0.417422
0.41742
0.417344
0.417143
0.417063
0.417162
0.417253
0.41722
0.417177
0.417063
0.417111
0.417189
0.417171
0.417168
0.417001
0.417063
0.417102
0.416971
0.417055
0.417305
0.417315
0.4173
0.417072
0.417119
0.417232
0.417036
0.417108
0.4173
0.417191
0.4172
0.417189
0.417112
0.417026
0.417141
0.417202
0.417063
0.417139
0.417359
0.417363
0.417347
0.417124
0.417133
0.417383
0.417459
0.417432
0.417408
0.417247
0.41727
0.417332
0.417134
0.381547
0.395894
0.407352
0.414074
0.416946
0.417491
0.417481
0.417362
0.417347
0.417524
0.417552
0.41749
0.417508
0.417634
0.417639
0.417602
0.417737
0.417914
0.417847
0.417905
0.417917
0.417878
0.41788
0.417783
0.417805
0.417817
0.417666
0.417716
0.417728
0.417676
0.417611
0.417708
0.417813
0.417805
0.417803
0.417746
0.417747
0.417701
0.417627
0.417518
0.417434
0.417258
0.417138
0.417225
0.417257
0.417159
0.417283
0.417449
0.41744
0.41744
0.417365
0.417345
0.417296
0.417184
0.417144
0.417205
0.417208
0.417082
0.417116
0.417271
0.417308
0.417268
0.41705
0.417129
0.417255
0.417245
0.417243
0.417043
0.417115
0.417268
0.417251
0.417198
0.417224
0.417396
0.417217
0.417201
0.41732
0.417218
0.417313
0.417477
0.417261
0.417325
0.417481
0.417398
0.417324
0.417253
0.417306
0.417327
0.41729
0.417111
0.381528
0.395935
0.407313
0.414096
0.416919
0.417551
0.41767
0.417623
0.417622
0.41751
0.417499
0.417773
0.417776
0.417928
0.418117
0.418009
0.418036
0.417994
0.417858
0.417944
0.418074
0.417845
0.417896
0.418064
0.417997
0.418015
0.41804
0.418019
0.417937
0.417917
0.417869
0.41778
0.417694
0.417637
0.417598
0.417545
0.41748
0.417344
0.41724
0.417245
0.417224
0.417195
0.417206
0.417206
0.417269
0.417281
0.417246
0.417157
0.417266
0.417438
0.417338
0.417395
0.417471
0.417442
0.417403
0.417141
0.417105
0.417185
0.41719
0.417097
0.417134
0.417318
0.417175
0.417275
0.417374
0.417369
0.417368
0.417155
0.417247
0.417406
0.417412
0.417411
0.41718
0.417233
0.41732
0.417304
0.417298
0.417097
0.417188
0.417394
0.417357
0.417246
0.417192
0.417338
0.417395
0.417345
0.417145
0.417155
0.417306
0.417114
0.381549
0.395931
0.407311
0.413917
0.417143
0.41803
0.418011
0.41801
0.417954
0.418075
0.418162
0.417962
0.41804
0.418161
0.417988
0.418085
0.418178
0.418119
0.418114
0.417998
0.418107
0.418191
0.417965
0.41803
0.418115
0.418117
0.418118
0.41808
0.418063
0.417891
0.417729
0.417757
0.417778
0.417753
0.417695
0.417759
0.417818
0.417774
0.417711
0.417551
0.417606
0.417645
0.41759
0.417408
0.417399
0.417574
0.417631
0.417591
0.417505
0.417496
0.41743
0.417423
0.417378
0.417225
0.417285
0.417381
0.41736
0.417349
0.417174
0.41729
0.417434
0.417394
0.41731
0.417201
0.41722
0.417117
0.417145
0.417271
0.417283
0.417312
0.417309
0.417285
0.417255
0.417168
0.417151
0.417387
0.417464
0.417409
0.417255
0.417205
0.417357
0.417392
0.417345
0.41724
0.417168
0.417219
0.41725
0.417298
0.417258
0.417111
0.381531
0.395891
0.407393
0.414134
0.416734
0.417137
0.417203
0.417378
0.417314
0.417375
0.417391
0.417365
0.417347
0.417337
0.417292
0.417436
0.417654
0.417536
0.417622
0.417668
0.417521
0.417589
0.417856
0.417749
0.417863
0.418019
0.417889
0.41792
0.417925
0.417876
0.417737
0.417767
0.417781
0.417617
0.417592
0.417736
0.41776
0.417704
0.417708
0.417718
0.417734
0.417635
0.417622
0.417645
0.417578
0.417575
0.417569
0.417587
0.417595
0.417568
0.417411
0.41722
0.417285
0.417368
0.417346
0.417338
0.417151
0.417218
0.417367
0.417357
0.417349
0.417137
0.417174
0.417314
0.417282
0.417163
0.417128
0.41727
0.417373
0.417343
0.417289
0.417297
0.417251
0.417096
0.417136
0.417394
0.417255
0.417346
0.417518
0.417369
0.417456
0.417512
0.417491
0.417484
0.417275
0.417299
0.417526
0.417547
0.417507
0.417267
0.38155
0.395931
0.407305
0.41394
0.417086
0.418147
0.418243
0.418212
0.418115
0.41821
0.418292
0.418138
0.418201
0.418237
0.418161
0.418162
0.418158
0.418005
0.418056
0.418159
0.418104
0.418139
0.418093
0.418086
0.418084
0.418094
0.418067
0.418081
0.418009
0.417973
0.41796
0.417882
0.417796
0.417738
0.417673
0.417626
0.417557
0.417417
0.417256
0.417218
0.417216
0.417187
0.417302
0.417454
0.417427
0.417389
0.417264
0.41724
0.417158
0.417262
0.417357
0.417175
0.417256
0.41742
0.417415
0.417404
0.41722
0.417126
0.41719
0.417176
0.417305
0.417532
0.417474
0.417483
0.417419
0.417459
0.417472
0.41745
0.417442
0.417254
0.41728
0.417308
0.417268
0.417204
0.417154
0.417387
0.417462
0.417409
0.417211
0.417186
0.417391
0.417448
0.417423
0.417433
0.417367
0.417124
0.417162
0.417325
0.417298
0.417161
0.381586
0.395899
0.407253
0.414115
0.416926
0.417407
0.417578
0.417694
0.417485
0.417546
0.417696
0.417634
0.417629
0.417535
0.41763
0.41778
0.417739
0.417578
0.417566
0.417665
0.417676
0.41765
0.417704
0.41787
0.417683
0.417664
0.417817
0.417837
0.417716
0.417758
0.417856
0.417646
0.417706
0.417825
0.417756
0.417743
0.417644
0.417621
0.417582
0.417567
0.41751
0.417468
0.417436
0.417407
0.41735
0.417237
0.417015
0.417122
0.417336
0.417197
0.417276
0.417311
0.417276
0.417179
0.417251
0.41759
0.417495
0.417581
0.417814
0.417823
0.417814
0.417597
0.41763
0.417699
0.417664
0.41766
0.41767
0.417671
0.417595
0.417558
0.417372
0.417232
0.417363
0.417465
0.417414
0.417229
0.417241
0.417337
0.417281
0.417181
0.417269
0.41744
0.417421
0.417406
0.417257
0.417276
0.417345
0.417319
0.417306
0.417134
0.38156
0.395941
0.407284
0.413919
0.417017
0.418228
0.418456
0.418428
0.418401
0.418333
0.418313
0.418371
0.418374
0.418352
0.418144
0.418157
0.418204
0.417967
0.418032
0.418162
0.417917
0.417918
0.418038
0.417983
0.418045
0.41807
0.418044
0.418036
0.41786
0.41785
0.417869
0.41785
0.417823
0.417628
0.417623
0.417582
0.417544
0.417527
0.417462
0.417459
0.41738
0.417119
0.417146
0.417269
0.417275
0.417272
0.41704
0.417095
0.41724
0.417071
0.417173
0.417283
0.417116
0.417042
0.417207
0.417286
0.417402
0.417584
0.417382
0.417457
0.417604
0.417388
0.417457
0.417558
0.417412
0.417401
0.417395
0.417243
0.41723
0.417305
0.417162
0.417244
0.417321
0.41732
0.417318
0.417122
0.417096
0.417341
0.417415
0.417397
0.417395
0.417323
0.417309
0.417151
0.41723
0.417406
0.417193
0.417259
0.417421
0.417173
0.38155
0.395932
0.407302
0.413956
0.417022
0.418309
0.418415
0.418366
0.418353
0.41837
0.418382
0.418338
0.418332
0.418193
0.418232
0.418254
0.418077
0.418157
0.418235
0.418013
0.418084
0.418224
0.418109
0.418109
0.41816
0.418168
0.418133
0.418104
0.417948
0.417854
0.417817
0.417759
0.417717
0.417682
0.417664
0.417625
0.417551
0.41739
0.417256
0.417198
0.41716
0.417113
0.417155
0.417246
0.417198
0.417208
0.417147
0.417228
0.417303
0.417298
0.417297
0.417102
0.417068
0.41723
0.417227
0.417372
0.41758
0.417467
0.41755
0.417596
0.417573
0.417596
0.417573
0.417516
0.417304
0.417336
0.417448
0.417322
0.417255
0.417369
0.417492
0.417486
0.417486
0.417425
0.41731
0.417321
0.417434
0.417414
0.417415
0.417367
0.417164
0.41715
0.417385
0.417416
0.417366
0.417239
0.417162
0.41726
0.417298
0.417149
0.38156
0.395941
0.407286
0.413908
0.417068
0.418074
0.418086
0.418229
0.418318
0.418179
0.418232
0.418247
0.418203
0.41807
0.418129
0.418191
0.417954
0.418019
0.418153
0.417911
0.417901
0.418022
0.417975
0.418012
0.418019
0.417986
0.417974
0.417919
0.417913
0.417866
0.417819
0.417788
0.41758
0.417635
0.417756
0.417627
0.41768
0.417746
0.417718
0.417696
0.417533
0.417406
0.417341
0.417235
0.41713
0.417034
0.417006
0.416927
0.417
0.41723
0.417241
0.417239
0.417118
0.417024
0.417188
0.41737
0.417495
0.417616
0.417492
0.417581
0.417625
0.417579
0.417587
0.4176
0.417585
0.417388
0.417428
0.417518
0.417384
0.41733
0.417413
0.41745
0.417348
0.417405
0.417425
0.417378
0.417225
0.417281
0.417385
0.417366
0.417358
0.417229
0.417205
0.417066
0.417144
0.41732
0.417195
0.417118
0.4171
0.417007
0.381552
0.395973
0.4072
0.414054
0.417034
0.417827
0.417861
0.417816
0.417678
0.417729
0.417841
0.417838
0.417839
0.417662
0.417744
0.417858
0.417756
0.417813
0.417833
0.41781
0.41775
0.417857
0.418141
0.418064
0.4181
0.418114
0.418069
0.417972
0.417865
0.417817
0.417798
0.417753
0.417708
0.417666
0.417619
0.417571
0.417495
0.417447
0.417387
0.41728
0.417181
0.417161
0.417094
0.417118
0.417189
0.417167
0.417186
0.417144
0.417052
0.41697
0.417119
0.417847
0.417958
0.417937
0.417877
0.417924
0.417963
0.417958
0.417956
0.417714
0.417756
0.417831
0.417714
0.417708
0.417696
0.417697
0.417697
0.417609
0.417656
0.4177
0.417661
0.417605
0.417515
0.417485
0.417402
0.41745
0.41747
0.41737
0.417361
0.41735
0.417165
0.417197
0.417307
0.417187
0.417123
0.417115
0.417122
0.417169
0.417129
0.417004
0.381552
0.395901
0.407336
0.41409
0.416863
0.417336
0.41726
0.417231
0.41733
0.41746
0.417456
0.417409
0.41725
0.417259
0.41759
0.417669
0.41763
0.417504
0.417523
0.417883
0.418166
0.418162
0.41816
0.418134
0.418074
0.417934
0.417872
0.41792
0.417922
0.417926
0.41787
0.41773
0.417617
0.417614
0.417506
0.417478
0.417605
0.417638
0.417579
0.417419
0.417341
0.417362
0.417381
0.417343
0.417146
0.417207
0.417284
0.417263
0.417261
0.417178
0.417168
0.417126
0.416981
0.41702
0.41716
0.417064
0.417059
0.417059
0.417042
0.416966
0.416952
0.416967
0.416964
0.416994
0.416944
0.417064
0.417161
0.416958
0.416968
0.417255
0.417401
0.417384
0.417336
0.417311
0.417304
0.417207
0.417183
0.417402
0.417494
0.417443
0.417445
0.41741
0.417155
0.417143
0.417264
0.417234
0.417141
0.417194
0.417272
0.4171
0.38155
0.39593
0.407314
0.41391
0.417165
0.418026
0.41801
0.418018
0.418006
0.418028
0.417955
0.418049
0.418145
0.418107
0.417975
0.417964
0.418037
0.417978
0.417979
0.417947
0.418075
0.418221
0.418193
0.418189
0.418191
0.418201
0.418159
0.418109
0.417863
0.417857
0.417867
0.417662
0.417735
0.417775
0.417758
0.417743
0.417488
0.417414
0.417366
0.417287
0.417246
0.417207
0.417204
0.417206
0.417183
0.416952
0.416977
0.41715
0.417173
0.417176
0.417
0.417016
0.417511
0.417921
0.417864
0.417869
0.417836
0.417923
0.417991
0.417955
0.417968
0.417959
0.417823
0.417851
0.417872
0.417621
0.417662
0.417745
0.417531
0.417609
0.417749
0.417591
0.417671
0.417787
0.417762
0.417754
0.417762
0.417775
0.41773
0.417725
0.417633
0.417405
0.417234
0.417337
0.417417
0.417363
0.417167
0.417157
0.417268
0.417073
0.38155
0.395932
0.407304
0.413946
0.417069
0.418212
0.418273
0.418148
0.41825
0.418321
0.418202
0.418203
0.4182
0.418203
0.418084
0.418162
0.418243
0.418015
0.418085
0.418233
0.418222
0.418186
0.418223
0.418344
0.418358
0.418314
0.418277
0.418261
0.418069
0.417997
0.417939
0.417826
0.417759
0.417714
0.417663
0.417524
0.417544
0.417564
0.417376
0.417461
0.417566
0.417569
0.417565
0.417293
0.417329
0.417417
0.417293
0.417371
0.417405
0.417349
0.417206
0.417139
0.417496
0.417944
0.41786
0.417976
0.418058
0.417979
0.417988
0.417963
0.417978
0.417885
0.417931
0.417955
0.417722
0.417768
0.417844
0.417645
0.417731
0.417842
0.417829
0.417822
0.417807
0.417812
0.4178
0.417799
0.417715
0.417702
0.417618
0.41763
0.41759
0.417544
0.417518
0.417473
0.417388
0.417227
0.417314
0.417434
0.417385
0.417203
0.38155
0.395879
0.407383
0.414101
0.416766
0.417505
0.417514
0.417509
0.417388
0.417388
0.417454
0.41744
0.417338
0.41741
0.417866
0.417834
0.417858
0.418182
0.418333
0.418295
0.41815
0.41813
0.418214
0.418093
0.418033
0.418027
0.418018
0.418067
0.418079
0.418039
0.417973
0.417943
0.417897
0.417825
0.417669
0.417616
0.41753
0.41731
0.41725
0.41742
0.417489
0.417423
0.417421
0.417419
0.417373
0.417363
0.417319
0.417195
0.417258
0.417333
0.417081
0.417125
0.417223
0.417175
0.417178
0.41709
0.41721
0.417289
0.41728
0.417246
0.417215
0.417149
0.417244
0.417522
0.417532
0.417479
0.417266
0.417289
0.417456
0.41739
0.417429
0.417438
0.417402
0.417306
0.417364
0.417412
0.417238
0.417315
0.417491
0.417293
0.417254
0.417302
0.417152
0.417175
0.417391
0.417416
0.417387
0.417392
0.417326
0.417069
0.381545
0.395953
0.407249
0.414038
0.417086
0.417793
0.41803
0.418011
0.417794
0.417865
0.418019
0.417999
0.418
0.417925
0.417934
0.417922
0.417756
0.417754
0.417878
0.417867
0.41787
0.41777
0.4179
0.418061
0.417862
0.417942
0.41811
0.418058
0.417941
0.417881
0.417839
0.417628
0.417686
0.417723
0.417702
0.417694
0.417591
0.41757
0.417486
0.417307
0.417135
0.417097
0.417056
0.416953
0.416959
0.417022
0.417035
0.417035
0.416912
0.416847
0.417059
0.417181
0.417169
0.417165
0.416962
0.417023
0.417122
0.416954
0.417054
0.417244
0.417205
0.417211
0.417233
0.417236
0.417148
0.41711
0.417062
0.416957
0.416904
0.417116
0.417276
0.417252
0.41717
0.417208
0.417249
0.417071
0.417171
0.417264
0.417225
0.41711
0.417126
0.417357
0.417419
0.417381
0.417291
0.417272
0.417157
0.41703
0.416991
0.416921
0.38155
0.395932
0.407309
0.413927
0.417131
0.418055
0.418041
0.418044
0.418023
0.418148
0.418221
0.418078
0.418172
0.418246
0.418169
0.418162
0.418175
0.418175
0.418012
0.418024
0.418149
0.418069
0.418187
0.418257
0.418227
0.418224
0.418168
0.41807
0.417942
0.417893
0.417805
0.417726
0.417681
0.417657
0.417517
0.417407
0.417473
0.417496
0.417442
0.41734
0.417308
0.41724
0.417206
0.417161
0.417096
0.417076
0.416896
0.416947
0.417163
0.417162
0.417163
0.417077
0.417097
0.417192
0.417185
0.417124
0.41693
0.416911
0.417116
0.417135
0.417025
0.417039
0.417286
0.417363
0.417342
0.417353
0.417291
0.417135
0.41702
0.417094
0.417151
0.417019
0.417114
0.417353
0.417383
0.417343
0.417258
0.417249
0.417175
0.4171
0.417071
0.416973
0.41706
0.417328
0.417305
0.417267
0.417104
0.4172
0.417324
0.417118
0.381549
0.395932
0.407302
0.413957
0.417023
0.418311
0.418416
0.418349
0.41834
0.418224
0.418293
0.418326
0.418221
0.418273
0.418289
0.418126
0.418204
0.418288
0.418062
0.418132
0.418289
0.41807
0.418083
0.418276
0.418336
0.418322
0.418295
0.418313
0.418294
0.418246
0.418204
0.418165
0.418085
0.417969
0.417692
0.417546
0.417588
0.417643
0.417602
0.417553
0.41744
0.417363
0.417368
0.417372
0.417332
0.41722
0.417245
0.417262
0.417226
0.417207
0.417065
0.417161
0.417889
0.41806
0.417919
0.418009
0.418062
0.418008
0.417987
0.417995
0.41802
0.417955
0.417959
0.417932
0.417717
0.417736
0.417804
0.417592
0.41767
0.417785
0.417654
0.417646
0.417633
0.417647
0.417632
0.417462
0.417502
0.417566
0.41752
0.417491
0.417506
0.417518
0.41731
0.41737
0.417441
0.417427
0.417425
0.417325
0.417291
0.417055
0.38155
0.395932
0.407304
0.413946
0.417069
0.418214
0.418276
0.418151
0.418253
0.418324
0.418205
0.418203
0.4182
0.418203
0.418085
0.418164
0.418245
0.418016
0.418085
0.418235
0.418138
0.418218
0.418276
0.418225
0.418245
0.418247
0.418262
0.418209
0.418074
0.417989
0.417922
0.417794
0.417647
0.417653
0.417651
0.417545
0.417526
0.417499
0.417368
0.417464
0.417569
0.417571
0.417567
0.417295
0.41733
0.417417
0.417344
0.417362
0.41738
0.417355
0.417192
0.417153
0.417536
0.417817
0.417812
0.417793
0.417839
0.417877
0.417836
0.417827
0.417629
0.417704
0.417799
0.417598
0.417678
0.41776
0.417626
0.417612
0.417609
0.417471
0.417524
0.41766
0.417673
0.417631
0.417585
0.417572
0.417422
0.417324
0.417277
0.417178
0.417297
0.417433
0.417229
0.417312
0.417414
0.417403
0.417402
0.41734
0.417312
0.417074
0.38155
0.39593
0.407315
0.413909
0.417164
0.418026
0.417982
0.418064
0.418149
0.418075
0.418074
0.418073
0.417957
0.418028
0.418161
0.418127
0.418005
0.41803
0.418114
0.418015
0.418075
0.418119
0.418071
0.417893
0.417946
0.41804
0.417825
0.417901
0.418069
0.418074
0.418072
0.417952
0.41794
0.417939
0.417936
0.417841
0.417784
0.417676
0.417397
0.417266
0.417297
0.417311
0.417279
0.417267
0.417212
0.416963
0.416944
0.417212
0.417268
0.417218
0.4171
0.417062
0.417524
0.417864
0.417856
0.417862
0.41783
0.41786
0.417933
0.417898
0.417757
0.417677
0.417744
0.417787
0.417734
0.417598
0.417545
0.417564
0.417408
0.417444
0.417637
0.417648
0.417642
0.417552
0.417424
0.417488
0.417598
0.417502
0.41756
0.417583
0.417544
0.417488
0.417395
0.417346
0.41732
0.417226
0.417309
0.417421
0.41737
0.417184
0.381553
0.395897
0.407348
0.414064
0.416872
0.41743
0.417424
0.417377
0.417293
0.417493
0.417662
0.41762
0.417501
0.417453
0.417546
0.41752
0.417632
0.4177
0.417565
0.417653
0.417815
0.417885
0.418055
0.417889
0.417953
0.418126
0.418035
0.417943
0.418001
0.418042
0.418004
0.417982
0.417891
0.417848
0.417786
0.41766
0.417538
0.417591
0.417608
0.417478
0.417549
0.417584
0.417471
0.41748
0.417475
0.41747
0.417487
0.417486
0.417363
0.417344
0.417396
0.417414
0.417377
0.417291
0.417047
0.417042
0.417082
0.416917
0.416936
0.417232
0.417276
0.417225
0.417106
0.417065
0.417275
0.417367
0.41741
0.41738
0.41735
0.417279
0.417353
0.41756
0.417454
0.417544
0.417583
0.417466
0.417515
0.417533
0.417477
0.41748
0.417489
0.417468
0.417242
0.417278
0.41747
0.417456
0.41747
0.417473
0.41743
0.41713
0.38159
0.395887
0.407269
0.414114
0.416902
0.417386
0.417563
0.417683
0.417594
0.417584
0.417517
0.417515
0.417422
0.417526
0.417768
0.417799
0.417762
0.417609
0.417618
0.41754
0.417621
0.418028
0.418048
0.418002
0.417841
0.417782
0.417894
0.417965
0.417944
0.417901
0.417871
0.41765
0.417686
0.417783
0.417745
0.417705
0.417552
0.41756
0.417574
0.417541
0.417507
0.417478
0.41743
0.417395
0.417379
0.417388
0.417356
0.417302
0.417184
0.417128
0.416955
0.416991
0.417219
0.417205
0.417215
0.417153
0.417195
0.417194
0.41736
0.417555
0.417531
0.417441
0.417464
0.417534
0.417426
0.417423
0.417342
0.41741
0.417439
0.417307
0.417401
0.41747
0.417444
0.417435
0.417272
0.417339
0.417458
0.417422
0.417422
0.417368
0.417171
0.417126
0.417288
0.417355
0.417299
0.417079
0.417065
0.417201
0.417204
0.417102
0.381586
0.395898
0.407254
0.414115
0.416926
0.417406
0.417571
0.417687
0.417508
0.417566
0.417594
0.417558
0.417456
0.417494
0.417797
0.417819
0.417762
0.417556
0.417577
0.417909
0.417981
0.41796
0.417964
0.417934
0.417879
0.417836
0.417762
0.41769
0.417699
0.417702
0.417543
0.417603
0.417804
0.41778
0.417738
0.417679
0.417597
0.417443
0.417408
0.41747
0.417467
0.417424
0.417382
0.417101
0.417102
0.417192
0.417205
0.417204
0.416987
0.417062
0.417446
0.417358
0.417414
0.417718
0.417739
0.417676
0.417509
0.417436
0.417607
0.417717
0.417667
0.41767
0.417644
0.417423
0.417446
0.417551
0.417364
0.417449
0.417554
0.417533
0.417528
0.417427
0.417387
0.417235
0.417311
0.417412
0.417412
0.417412
0.417309
0.4173
0.417263
0.417284
0.417246
0.417204
0.417123
0.417012
0.417178
0.417332
0.417286
0.417109
0.38155
0.395932
0.407303
0.413948
0.417055
0.418234
0.418318
0.418275
0.418292
0.418237
0.418284
0.418332
0.418311
0.41833
0.4183
0.41825
0.418088
0.418153
0.418233
0.418012
0.418084
0.418224
0.41809
0.418121
0.418151
0.41812
0.418112
0.418111
0.418031
0.417798
0.417804
0.417826
0.417623
0.417687
0.41774
0.417485
0.417497
0.417628
0.417551
0.41751
0.417465
0.417331
0.417406
0.41758
0.417399
0.41749
0.417588
0.417419
0.417502
0.417556
0.417527
0.417507
0.417332
0.417313
0.417223
0.417328
0.417554
0.417446
0.417458
0.417452
0.417477
0.417427
0.417394
0.417388
0.417266
0.417327
0.417443
0.417314
0.417252
0.417371
0.417491
0.417485
0.417485
0.417424
0.41731
0.417363
0.41744
0.417404
0.417353
0.417213
0.417209
0.417162
0.4173
0.417424
0.417419
0.417417
0.417229
0.417295
0.417341
0.417137
0.38156
0.395942
0.407282
0.413924
0.416998
0.418293
0.418408
0.4183
0.418295
0.418312
0.418276
0.418296
0.418325
0.418269
0.418251
0.418326
0.41836
0.418312
0.418304
0.418313
0.418323
0.418273
0.418132
0.418107
0.418199
0.418201
0.418199
0.418212
0.418163
0.418124
0.418103
0.418103
0.41801
0.417782
0.417627
0.417735
0.41779
0.417736
0.417634
0.417479
0.417532
0.417573
0.417529
0.417398
0.417437
0.417472
0.417259
0.417247
0.417461
0.417556
0.417543
0.417562
0.417511
0.417291
0.417286
0.417527
0.417553
0.417511
0.417339
0.417323
0.417484
0.417395
0.417488
0.417677
0.417546
0.417618
0.417746
0.417737
0.417751
0.417702
0.41746
0.417429
0.417527
0.417572
0.417578
0.417509
0.417354
0.417366
0.417443
0.417426
0.417421
0.417309
0.417271
0.41709
0.417092
0.417237
0.417231
0.417241
0.417191
0.417034
0.381553
0.39597
0.407213
0.414012
0.417096
0.417794
0.417798
0.417768
0.417668
0.417628
0.417512
0.417606
0.417756
0.417524
0.417572
0.417721
0.417707
0.417707
0.417615
0.417761
0.417928
0.417873
0.417875
0.417874
0.417826
0.417707
0.417666
0.417548
0.41759
0.417842
0.417836
0.417788
0.417581
0.417631
0.417735
0.417726
0.417723
0.41765
0.417624
0.417494
0.417337
0.417259
0.417039
0.417052
0.417215
0.417218
0.417217
0.417053
0.41713
0.417338
0.417347
0.41734
0.417152
0.41711
0.417267
0.417245
0.417332
0.417674
0.417688
0.417627
0.417635
0.417608
0.41739
0.417377
0.417531
0.417484
0.417534
0.417548
0.41753
0.417539
0.417499
0.417336
0.417393
0.417455
0.417272
0.417363
0.417457
0.417206
0.417185
0.417301
0.417306
0.417352
0.417421
0.417383
0.417309
0.417193
0.417293
0.417437
0.417388
0.417197
0.381549
0.395932
0.407304
0.413944
0.417077
0.418138
0.418178
0.418287
0.418344
0.418277
0.418269
0.418296
0.418299
0.418141
0.41817
0.418224
0.418115
0.418216
0.418271
0.418081
0.418157
0.418233
0.418162
0.418158
0.418178
0.418161
0.417929
0.417819
0.417912
0.418006
0.417978
0.41798
0.41793
0.417823
0.417727
0.417645
0.41748
0.417346
0.417291
0.417227
0.417189
0.417195
0.417112
0.417147
0.417284
0.417147
0.417178
0.417323
0.41719
0.417289
0.417426
0.417424
0.417422
0.417227
0.417198
0.417369
0.417451
0.417413
0.41729
0.417361
0.417435
0.417245
0.417308
0.417436
0.417213
0.417251
0.417401
0.417203
0.417192
0.41734
0.417343
0.417435
0.417462
0.417419
0.417289
0.417328
0.417405
0.417355
0.417231
0.417182
0.417348
0.417443
0.417424
0.417425
0.417369
0.417126
0.417161
0.417319
0.417296
0.417159
0.38153
0.395911
0.407374
0.414097
0.416805
0.417297
0.417288
0.417222
0.417289
0.417529
0.417545
0.417491
0.417284
0.417259
0.417645
0.417874
0.417854
0.417772
0.417872
0.418069
0.417868
0.417882
0.418156
0.418237
0.418218
0.418239
0.4182
0.418142
0.41804
0.417765
0.417782
0.417816
0.41779
0.417784
0.417665
0.417726
0.417733
0.417607
0.417562
0.417624
0.417666
0.417614
0.417395
0.417416
0.41752
0.417448
0.417496
0.417515
0.417473
0.417368
0.417234
0.417179
0.417025
0.417095
0.417341
0.417332
0.417279
0.417098
0.417149