/*--------------------------------*- C++ -*----------------------------------*\
  =========                 |
  \\      /  F ield         | OpenFOAM: The Open Source CFD Toolbox
   \\    /   O peration     | Website:  https://openfoam.org
    \\  /    A nd           | Version:  11
     \\/     M anipulation  |
\*---------------------------------------------------------------------------*/
FoamFile
{
    format      ascii;
    class       volScalarField;
    location    "0.052";
    object      nut;
}
// * * * * * * * * * * * * * * * * * * * * * * * * * * * * * * * * * * * * * //

dimensions      [0 2 -1 0 0 0 0];

internalField   nonuniform List<scalar> 
287084
(
0.00083643
0.000869043
0.000895878
0.000912184
0.000919201
0.000920831
0.000921159
0.000921308
0.000921113
0.00092144
0.000921753
0.000921683
0.000921688
0.00092159
0.00092146
0.000921026
0.000920857
0.000921079
0.000920881
0.000921064
0.000921425
0.000921123
0.000921148
0.00092117
0.000921065
0.000920851
0.000920747
0.000921056
0.000921284
0.000921213
0.000921295
0.000921438
0.000921493
0.000921027
0.000921159
0.000921575
0.000921573
0.000921727
0.00092178
0.000921693
0.000921674
0.000921906
0.000922058
0.000922018
0.000922094
0.000922114
0.000921915
0.000922219
0.0009227
0.000922342
0.000922545
0.000922802
0.000922771
0.000922746
0.000922189
0.000922116
0.000922369
0.000922385
0.000922349
0.000922441
0.000922459
0.000922009
0.000921978
0.000922638
0.000922875
0.00092275
0.000922461
0.000922236
0.000922481
0.000922686
0.000922563
0.000922125
0.000922085
0.000922439
0.000922382
0.000922514
0.000922525
0.000922424
0.000922292
0.000922438
0.000922719
0.000922622
0.000922624
0.000922644
0.000922574
0.000922189
0.000921859
0.000922091
0.000922245
0.000921881
0.00118232
0.00122683
0.0012629
0.00128466
0.00129371
0.00129538
0.00129551
0.00129544
0.0012957
0.00129602
0.00129597
0.00129591
0.00129553
0.00129544
0.00129531
0.00129478
0.00129482
0.00129503
0.00129464
0.00129437
0.00129464
0.00129519
0.00129548
0.00129546
0.0012953
0.00129492
0.00129488
0.00129528
0.00129479
0.00129504
0.00129554
0.00129545
0.00129562
0.00129567
0.00129554
0.00129575
0.00129595
0.00129559
0.00129601
0.0012969
0.00129701
0.00129706
0.00129655
0.00129684
0.00129752
0.00129758
0.00129757
0.00129761
0.00129769
0.00129757
0.00129726
0.00129694
0.00129725
0.0012974
0.00129733
0.00129724
0.00129714
0.00129674
0.00129694
0.00129757
0.00129719
0.00129745
0.00129758
0.00129743
0.00129697
0.00129693
0.0012975
0.00129773
0.0012976
0.00129703
0.00129732
0.00129792
0.00129789
0.00129786
0.00129744
0.00129734
0.00129688
0.00129713
0.00129757
0.00129725
0.0012972
0.00129715
0.0012967
0.00129683
0.00129713
0.00129714
0.00129713
0.00129688
0.00129683
0.00129618
0.00118238
0.00122699
0.00126312
0.00128474
0.00129372
0.00129614
0.0012964
0.00129632
0.00129584
0.00129607
0.00129642
0.00129609
0.00129607
0.00129595
0.00129538
0.00129533
0.00129572
0.00129577
0.00129555
0.00129478
0.00129473
0.00129507
0.00129498
0.00129548
0.00129565
0.00129549
0.0012951
0.00129496
0.00129516
0.00129512
0.00129503
0.0012951
0.0012953
0.00129539
0.00129551
0.00129546
0.00129578
0.00129643
0.00129653
0.00129677
0.00129697
0.00129705
0.00129727
0.00129741
0.00129741
0.00129744
0.00129741
0.00129776
0.001298
0.00129789
0.00129741
0.00129727
0.00129737
0.00129691
0.00129702
0.00129753
0.0012974
0.00129713
0.00129731
0.00129774
0.00129761
0.00129765
0.00129757
0.001297
0.00129711
0.00129771
0.00129776
0.00129776
0.0012975
0.00129737
0.00129739
0.00129738
0.00129677
0.00129675
0.00129711
0.00129709
0.00129684
0.00129674
0.00129677
0.00129675
0.00129658
0.00129694
0.00129753
0.0012968
0.00129675
0.0012971
0.00129658
0.00129657
0.00129688
0.00129632
0.00118233
0.00122726
0.00126326
0.00128481
0.00129423
0.0012967
0.00129694
0.0012968
0.00129624
0.00129642
0.00129669
0.00129662
0.00129653
0.00129566
0.00129569
0.00129602
0.00129592
0.00129581
0.00129546
0.00129507
0.00129496
0.00129489
0.00129477
0.00129463
0.00129464
0.00129467
0.00129462
0.00129447
0.0012948
0.00129566
0.00129573
0.00129577
0.00129563
0.00129582
0.00129609
0.00129634
0.00129632
0.0012959
0.00129594
0.00129664
0.00129694
0.00129701
0.00129675
0.00129718
0.00129751
0.00129761
0.00129771
0.00129746
0.00129738
0.00129722
0.00129743
0.00129752
0.00129744
0.00129731
0.00129702
0.00129704
0.0012968
0.00129693
0.00129783
0.00129797
0.00129778
0.00129713
0.00129705
0.00129758
0.00129736
0.00129769
0.00129794
0.0012974
0.0012977
0.00129798
0.00129717
0.00129709
0.00129741
0.00129732
0.00129714
0.00129723
0.00129727
0.00129759
0.00129796
0.00129792
0.00129789
0.00129716
0.00129731
0.0012976
0.00129749
0.00129732
0.00129692
0.00129701
0.00129706
0.00129662
0.00118235
0.00122735
0.00126329
0.00128498
0.00129442
0.00129625
0.00129585
0.0012961
0.00129662
0.00129586
0.00129587
0.00129638
0.00129628
0.00129609
0.00129534
0.00129537
0.00129549
0.00129513
0.00129511
0.00129487
0.00129441
0.00129434
0.00129483
0.00129472
0.00129474
0.00129475
0.00129464
0.00129458
0.00129472
0.00129484
0.001295
0.00129518
0.00129513
0.00129528
0.00129581
0.00129576
0.00129621
0.0012971
0.00129734
0.00129751
0.0012973
0.00129699
0.00129725
0.00129754
0.00129749
0.00129714
0.00129703
0.00129725
0.00129686
0.00129691
0.00129736
0.00129736
0.00129742
0.00129742
0.00129707
0.00129697
0.00129736
0.00129727
0.00129728
0.00129727
0.00129714
0.00129697
0.00129704
0.00129678
0.00129685
0.00129721
0.00129714
0.00129717
0.00129714
0.00129684
0.0012967
0.00129752
0.00129796
0.0012978
0.00129746
0.00129716
0.00129721
0.00129706
0.00129708
0.00129707
0.00129688
0.0012967
0.00129682
0.00129657
0.00129685
0.00129745
0.00129676
0.0012968
0.00129725
0.00129661
0.00118231
0.00122736
0.00126355
0.00128514
0.00129359
0.00129491
0.00129484
0.00129551
0.00129614
0.00129602
0.00129592
0.00129547
0.0012953
0.00129475
0.00129485
0.00129554
0.00129515
0.00129508
0.00129495
0.00129491
0.00129468
0.00129424
0.00129406
0.00129443
0.00129454
0.00129415
0.00129444
0.00129499
0.00129501
0.00129513
0.00129494
0.00129518
0.00129522
0.00129531
0.00129553
0.00129599
0.0012963
0.00129649
0.00129671
0.0012968
0.0012969
0.00129659
0.00129643
0.00129667
0.00129676
0.00129683
0.00129703
0.00129713
0.0012974
0.00129757
0.00129754
0.00129724
0.0012976
0.00129807
0.00129809
0.0012981
0.00129766
0.00129743
0.00129765
0.0012978
0.00129761
0.00129716
0.00129699
0.00129728
0.00129718
0.00129752
0.00129801
0.0012979
0.00129775
0.00129715
0.00129712
0.00129755
0.00129714
0.00129737
0.00129783
0.0012973
0.00129709
0.00129714
0.00129699
0.00129689
0.00129693
0.00129668
0.001297
0.00129759
0.00129731
0.00129734
0.00129717
0.00129713
0.0012971
0.00129664
0.00118222
0.00122748
0.00126358
0.0012852
0.00129383
0.00129511
0.00129557
0.00129591
0.00129577
0.00129566
0.00129502
0.00129537
0.00129685
0.00129676
0.00129644
0.00129657
0.0012968
0.00129653
0.00129638
0.001296
0.00129597
0.00129575
0.00129519
0.00129531
0.00129573
0.00129569
0.00129567
0.00129502
0.00129527
0.00129552
0.00129498
0.00129534
0.00129603
0.00129599
0.00129617
0.00129625
0.00129607
0.00129609
0.00129693
0.00129751
0.00129758
0.00129743
0.00129732
0.00129781
0.00129806
0.00129803
0.00129762
0.00129787
0.00129811
0.00129802
0.00129776
0.00129766
0.00129779
0.0012978
0.00129759
0.00129752
0.0012979
0.00129811
0.00129801
0.00129792
0.00129773
0.00129712
0.00129688
0.00129743
0.00129775
0.00129751
0.00129757
0.0012974
0.00129669
0.00129661
0.00129713
0.00129717
0.0012968
0.00129683
0.00129744
0.00129766
0.00129753
0.00129712
0.00129706
0.00129665
0.00129695
0.00129754
0.00129683
0.00129676
0.0012971
0.00129688
0.00129725
0.00129754
0.00129737
0.00129676
0.00118231
0.00122747
0.00126349
0.00128467
0.00129478
0.00129795
0.00129797
0.00129826
0.00129851
0.00129835
0.00129812
0.00129801
0.00129789
0.00129766
0.00129751
0.00129712
0.0012967
0.00129672
0.00129669
0.00129634
0.00129627
0.00129605
0.00129588
0.00129561
0.00129544
0.0012955
0.00129555
0.00129564
0.00129563
0.00129555
0.00129543
0.00129548
0.0012955
0.00129547
0.00129599
0.00129644
0.00129619
0.00129655
0.00129765
0.00129795
0.001298
0.00129756
0.00129773
0.00129835
0.00129865
0.00129865
0.00129854
0.00129859
0.00129815
0.00129845
0.00129896
0.00129851
0.00129881
0.00129899
0.00129879
0.00129883
0.0012988
0.00129883
0.00129866
0.00129829
0.00129787
0.00129778
0.00129751
0.00129749
0.00129747
0.00129701
0.00129708
0.00129749
0.0012975
0.00129755
0.00129751
0.0012974
0.00129724
0.00129694
0.00129686
0.00129757
0.00129781
0.00129765
0.00129736
0.00129696
0.00129691
0.00129677
0.0012972
0.00129759
0.00129757
0.00129755
0.00129694
0.00129712
0.00129725
0.00129658
0.00118227
0.00122745
0.00126363
0.00128513
0.00129406
0.00129612
0.00129616
0.00129593
0.00129581
0.00129533
0.00129551
0.00129666
0.00129649
0.00129655
0.00129644
0.00129622
0.00129592
0.00129606
0.0012964
0.00129626
0.00129625
0.00129601
0.00129582
0.0012955
0.00129563
0.00129569
0.00129565
0.00129573
0.00129566
0.00129529
0.00129494
0.00129511
0.00129541
0.00129556
0.00129605
0.00129648
0.00129623
0.00129653
0.00129722
0.00129728
0.00129785
0.00129827
0.00129789
0.00129834
0.00129869
0.00129881
0.00129891
0.00129863
0.00129864
0.00129844
0.0012979
0.00129739
0.00129748
0.00129753
0.0012971
0.00129708
0.00129782
0.00129801
0.00129781
0.00129733
0.00129711
0.00129766
0.00129781
0.00129764
0.00129731
0.00129704
0.00129718
0.001297
0.00129736
0.00129798
0.00129792
0.00129784
0.0012971
0.00129716
0.00129758
0.00129713
0.0012975
0.00129805
0.00129795
0.00129781
0.00129731
0.00129712
0.00129719
0.00129702
0.00129734
0.00129749
0.00129716
0.00129714
0.00129708
0.00129648
0.00118224
0.00122734
0.00126401
0.00128485
0.00129395
0.00129588
0.00129583
0.00129554
0.00129533
0.00129604
0.00129631
0.00129599
0.00129538
0.001295
0.00129555
0.00129574
0.00129543
0.00129527
0.00129494
0.00129414
0.00129401
0.00129441
0.00129433
0.00129407
0.00129404
0.00129439
0.00129401
0.00129428
0.001295
0.00129512
0.00129512
0.0012952
0.0012955
0.00129553
0.00129613
0.00129656
0.00129671
0.00129665
0.00129681
0.00129708
0.00129719
0.0012974
0.00129736
0.0012969
0.00129679
0.00129722
0.00129759
0.00129756
0.00129748
0.00129716
0.00129734
0.00129759
0.00129754
0.00129752
0.00129699
0.00129716
0.00129726
0.00129682
0.00129705
0.0012978
0.0012978
0.00129772
0.00129697
0.00129708
0.0012974
0.00129676
0.00129695
0.00129752
0.00129715
0.00129714
0.00129708
0.00129682
0.00129652
0.00129686
0.00129702
0.00129657
0.00129679
0.00129745
0.00129745
0.00129738
0.00129667
0.00129669
0.00129745
0.00129768
0.00129759
0.0012975
0.00129699
0.00129706
0.00129724
0.00129659
0.00118231
0.00122737
0.00126366
0.00128513
0.00129437
0.00129617
0.00129611
0.00129565
0.00129549
0.00129591
0.00129585
0.00129549
0.00129538
0.00129559
0.00129543
0.00129512
0.00129535
0.00129572
0.00129532
0.00129533
0.00129521
0.00129496
0.00129486
0.00129449
0.00129452
0.00129457
0.00129416
0.00129442
0.00129462
0.00129465
0.00129471
0.0012953
0.00129595
0.00129626
0.00129661
0.00129679
0.00129714
0.00129733
0.00129741
0.00129736
0.00129736
0.00129704
0.00129686
0.0012973
0.00129754
0.00129734
0.00129782
0.0012984
0.00129842
0.00129845
0.00129824
0.00129818
0.00129802
0.00129765
0.00129751
0.00129767
0.00129765
0.00129722
0.00129729
0.00129774
0.00129782
0.00129765
0.00129693
0.00129714
0.0012975
0.00129743
0.00129739
0.00129673
0.00129693
0.00129737
0.00129729
0.0012971
0.00129715
0.00129766
0.00129708
0.001297
0.00129736
0.00129702
0.0012973
0.00129779
0.0012971
0.00129729
0.00129776
0.00129749
0.00129725
0.00129702
0.00129718
0.00129724
0.00129711
0.00129652
0.00118225
0.0012275
0.00126354
0.0012852
0.00129429
0.00129636
0.0012967
0.00129646
0.00129634
0.00129585
0.00129566
0.00129634
0.00129617
0.00129645
0.00129683
0.0012963
0.00129618
0.00129585
0.00129523
0.00129531
0.00129555
0.00129469
0.00129473
0.00129518
0.00129494
0.001295
0.00129514
0.0012952
0.00129511
0.00129528
0.00129541
0.00129545
0.00129554
0.00129573
0.00129599
0.00129621
0.00129639
0.00129632
0.00129633
0.00129665
0.00129685
0.00129699
0.00129723
0.00129739
0.00129773
0.00129787
0.00129785
0.00129763
0.00129801
0.00129857
0.00129826
0.00129844
0.00129865
0.00129854
0.00129839
0.00129754
0.00129739
0.0012976
0.00129758
0.00129724
0.00129732
0.00129785
0.00129736
0.00129763
0.00129789
0.00129784
0.0012978
0.0012971
0.00129735
0.00129781
0.0012978
0.00129777
0.00129702
0.00129716
0.00129741
0.00129734
0.00129729
0.00129665
0.00129691
0.00129754
0.00129741
0.00129705
0.00129686
0.00129731
0.00129747
0.00129731
0.00129667
0.0012967
0.00129716
0.00129652
0.00118232
0.00122748
0.00126354
0.00128465
0.00129499
0.00129785
0.00129776
0.00129766
0.00129736
0.00129759
0.00129769
0.00129689
0.00129694
0.00129711
0.00129636
0.00129645
0.00129651
0.00129612
0.00129589
0.00129533
0.00129549
0.00129559
0.00129477
0.00129488
0.00129511
0.00129513
0.0012952
0.00129521
0.00129535
0.00129507
0.00129487
0.00129531
0.00129576
0.00129609
0.00129633
0.00129694
0.00129752
0.00129777
0.00129792
0.00129774
0.00129819
0.00129855
0.00129859
0.00129819
0.00129829
0.00129894
0.00129919
0.00129912
0.00129888
0.00129887
0.00129866
0.00129863
0.00129846
0.00129796
0.00129811
0.00129836
0.00129825
0.00129817
0.00129758
0.00129789
0.00129829
0.00129812
0.00129781
0.00129743
0.00129744
0.00129708
0.00129713
0.00129748
0.00129748
0.00129754
0.00129749
0.00129739
0.00129727
0.00129697
0.00129689
0.0012976
0.00129782
0.00129763
0.00129713
0.00129695
0.00129741
0.00129751
0.00129735
0.00129701
0.00129677
0.00129692
0.00129701
0.00129715
0.00129702
0.00129652
0.00118226
0.00122736
0.00126379
0.00128532
0.00129372
0.00129507
0.00129524
0.00129568
0.00129536
0.00129539
0.00129526
0.00129499
0.00129473
0.00129449
0.00129412
0.00129434
0.00129478
0.00129419
0.00129422
0.00129416
0.0012935
0.00129355
0.00129424
0.00129381
0.00129412
0.00129462
0.0012943
0.00129454
0.00129477
0.0012949
0.0012948
0.00129528
0.00129574
0.00129567
0.00129604
0.00129693
0.00129744
0.00129766
0.00129804
0.00129841
0.00129875
0.00129868
0.00129885
0.00129909
0.00129901
0.0012991
0.00129915
0.00129925
0.00129929
0.00129922
0.00129872
0.0012981
0.00129827
0.00129849
0.00129838
0.0012983
0.00129767
0.00129782
0.00129823
0.00129815
0.00129807
0.00129736
0.00129742
0.00129781
0.00129766
0.00129725
0.00129709
0.0012975
0.00129778
0.00129765
0.00129744
0.00129744
0.00129726
0.00129675
0.00129685
0.00129763
0.00129717
0.00129743
0.00129795
0.00129747
0.00129772
0.00129788
0.0012978
0.00129777
0.0012971
0.00129717
0.00129787
0.00129793
0.00129779
0.00129701
0.00118232
0.00122749
0.00126352
0.00128471
0.00129481
0.0012982
0.00129846
0.00129826
0.00129782
0.00129795
0.00129802
0.00129735
0.00129733
0.00129721
0.00129674
0.00129649
0.00129623
0.00129551
0.00129543
0.00129552
0.00129514
0.00129507
0.00129477
0.00129466
0.00129461
0.00129465
0.00129466
0.00129486
0.00129487
0.00129506
0.00129539
0.00129556
0.00129575
0.00129605
0.00129633
0.00129666
0.00129691
0.00129689
0.00129678
0.00129701
0.0012973
0.00129746
0.00129802
0.00129866
0.0012987
0.00129868
0.00129835
0.00129831
0.00129807
0.00129839
0.00129866
0.00129807
0.00129828
0.00129874
0.00129867
0.00129858
0.00129795
0.0012976
0.00129774
0.00129763
0.00129798
0.00129863
0.00129839
0.00129837
0.00129812
0.00129819
0.00129819
0.00129808
0.00129801
0.00129739
0.00129743
0.00129748
0.00129733
0.0012971
0.00129691
0.00129761
0.00129782
0.00129764
0.001297
0.0012969
0.00129752
0.00129769
0.00129759
0.00129761
0.00129739
0.00129663
0.00129674
0.00129724
0.00129714
0.00129668
0.00118243
0.00122739
0.00126335
0.00128525
0.0012943
0.00129589
0.00129638
0.00129663
0.00129584
0.00129586
0.00129614
0.00129574
0.00129549
0.00129496
0.001295
0.00129521
0.00129482
0.00129406
0.00129376
0.00129383
0.00129364
0.00129336
0.00129338
0.00129379
0.00129316
0.00129312
0.00129369
0.00129393
0.00129381
0.00129427
0.00129497
0.00129477
0.00129545
0.00129633
0.00129664
0.0012971
0.00129728
0.00129765
0.00129794
0.00129825
0.00129837
0.0012985
0.00129861
0.00129868
0.00129862
0.00129836
0.00129772
0.00129808
0.00129875
0.00129831
0.00129852
0.00129859
0.00129843
0.00129807
0.00129824
0.00129923
0.00129887
0.00129907
0.00129973
0.00129969
0.0012996
0.00129886
0.00129891
0.00129907
0.00129891
0.00129884
0.00129882
0.00129878
0.0012985
0.00129835
0.00129773
0.00129726
0.00129763
0.00129792
0.00129773
0.00129713
0.00129714
0.00129742
0.00129722
0.00129689
0.00129715
0.00129766
0.00129759
0.00129753
0.00129705
0.0012971
0.00129731
0.00129722
0.00129717
0.0012966
0.00118235
0.00122752
0.00126345
0.00128464
0.00129458
0.00129843
0.00129909
0.00129889
0.00129866
0.00129828
0.00129802
0.00129798
0.00129775
0.00129743
0.00129652
0.00129629
0.00129615
0.00129514
0.00129507
0.00129522
0.00129422
0.00129401
0.00129422
0.00129394
0.00129408
0.00129419
0.00129421
0.00129438
0.00129411
0.00129444
0.00129492
0.00129535
0.00129579
0.00129573
0.00129627
0.00129667
0.00129707
0.00129748
0.0012977
0.00129806
0.00129813
0.00129757
0.00129787
0.00129841
0.00129855
0.00129862
0.00129794
0.00129813
0.00129858
0.00129803
0.00129831
0.00129861
0.00129802
0.00129773
0.00129818
0.00129835
0.00129864
0.00129913
0.00129843
0.0012986
0.00129899
0.00129825
0.0012984
0.00129866
0.00129815
0.00129806
0.00129799
0.00129747
0.00129738
0.00129757
0.00129709
0.00129731
0.00129751
0.00129747
0.00129744
0.0012968
0.00129669
0.00129743
0.00129764
0.00129757
0.00129754
0.0012973
0.00129724
0.00129674
0.00129697
0.00129751
0.00129684
0.00129704
0.00129753
0.00129672
0.00118232
0.00122749
0.0012635
0.00128475
0.00129459
0.00129867
0.00129895
0.00129868
0.00129849
0.00129836
0.00129819
0.00129782
0.00129756
0.00129687
0.00129671
0.0012965
0.00129566
0.00129561
0.00129557
0.0012946
0.00129457
0.00129478
0.00129426
0.00129414
0.00129425
0.00129431
0.00129432
0.00129443
0.00129425
0.00129434
0.00129469
0.00129502
0.00129545
0.00129592
0.00129644
0.00129689
0.00129719
0.00129718
0.00129719
0.00129739
0.0012976
0.00129771
0.00129805
0.00129849
0.00129846
0.00129856
0.00129841
0.00129868
0.0012989
0.00129885
0.0012988
0.00129813
0.00129796
0.0012984
0.00129831
0.00129868
0.00129925
0.00129882
0.001299
0.00129907
0.00129893
0.00129893
0.00129879
0.00129855
0.00129783
0.00129788
0.00129817
0.00129773
0.00129747
0.00129778
0.00129812
0.00129807
0.00129803
0.00129781
0.00129742
0.00129743
0.00129775
0.00129767
0.00129765
0.00129748
0.00129683
0.00129677
0.00129748
0.00129757
0.00129739
0.00129698
0.00129673
0.00129703
0.00129714
0.00129664
0.00118235
0.00122752
0.00126345
0.0012846
0.00129472
0.00129794
0.00129792
0.00129824
0.00129836
0.00129773
0.00129769
0.0012975
0.00129711
0.00129642
0.00129632
0.00129622
0.00129517
0.00129507
0.00129518
0.00129414
0.00129385
0.00129399
0.00129367
0.00129366
0.00129363
0.00129357
0.00129366
0.00129371
0.00129402
0.00129428
0.00129462
0.00129507
0.00129501
0.00129579
0.00129678
0.00129697
0.00129769
0.00129839
0.00129876
0.00129908
0.0012989
0.00129876
0.00129877
0.0012986
0.00129838
0.00129815
0.0012981
0.00129785
0.00129806
0.00129874
0.00129872
0.00129865
0.00129819
0.00129782
0.00129825
0.00129873
0.00129904
0.00129933
0.00129886
0.00129906
0.00129913
0.00129891
0.00129886
0.00129884
0.00129873
0.00129806
0.00129813
0.00129835
0.00129789
0.00129768
0.00129789
0.00129797
0.00129761
0.00129776
0.00129779
0.00129761
0.00129711
0.00129726
0.00129756
0.00129748
0.00129744
0.00129701
0.00129693
0.00129648
0.00129671
0.00129725
0.00129685
0.0012966
0.00129653
0.00129621
0.00118233
0.00122762
0.00126318
0.00128505
0.00129461
0.00129716
0.00129721
0.00129694
0.00129635
0.00129631
0.00129644
0.00129619
0.00129593
0.0012951
0.00129505
0.0012951
0.00129446
0.00129432
0.00129407
0.0012937
0.00129324
0.00129334
0.00129403
0.00129367
0.00129373
0.00129381
0.00129381
0.00129375
0.00129376
0.00129404
0.0012945
0.00129493
0.00129541
0.00129591
0.0012964
0.00129686
0.0012972
0.00129757
0.00129784
0.0012979
0.00129793
0.00129813
0.00129813
0.00129836
0.00129869
0.00129868
0.00129877
0.00129863
0.00129832
0.00129802
0.00129842
0.00130062
0.00130088
0.00130073
0.00130045
0.00130051
0.00130054
0.00130044
0.00130035
0.00129951
0.00129956
0.00129972
0.00129928
0.00129919
0.00129909
0.00129903
0.00129898
0.00129865
0.00129875
0.00129884
0.00129867
0.00129846
0.00129814
0.00129801
0.00129772
0.00129784
0.00129787
0.00129754
0.00129749
0.00129743
0.00129683
0.00129692
0.00129724
0.00129686
0.00129664
0.00129661
0.00129662
0.00129676
0.00129663
0.0012962
0.00118233
0.00122739
0.0012636
0.00128516
0.00129407
0.00129563
0.00129532
0.00129511
0.00129525
0.00129545
0.00129522
0.00129482
0.00129406
0.0012938
0.00129452
0.00129444
0.001294
0.00129327
0.00129301
0.00129382
0.00129441
0.00129415
0.00129395
0.00129374
0.0012935
0.00129312
0.00129307
0.00129348
0.00129384
0.0012943
0.00129467
0.00129483
0.00129512
0.00129577
0.00129609
0.00129663
0.00129761
0.00129825
0.00129854
0.00129844
0.00129853
0.00129887
0.00129914
0.00129917
0.00129866
0.00129891
0.00129917
0.0012991
0.00129906
0.00129874
0.00129865
0.00129844
0.0012979
0.00129793
0.00129827
0.00129788
0.00129777
0.00129768
0.00129753
0.00129721
0.00129708
0.00129705
0.00129697
0.00129699
0.00129677
0.00129708
0.00129732
0.00129663
0.00129661
0.00129746
0.00129787
0.00129778
0.00129759
0.00129747
0.00129742
0.00129709
0.00129699
0.00129764
0.0012979
0.00129772
0.00129771
0.00129758
0.00129677
0.00129672
0.00129709
0.00129698
0.00129668
0.00129684
0.00129707
0.00129649
0.00118232
0.00122748
0.00126353
0.00128459
0.00129501
0.00129776
0.00129765
0.00129754
0.00129733
0.0012972
0.00129674
0.00129678
0.0012968
0.00129638
0.00129566
0.0012953
0.00129519
0.00129467
0.00129434
0.00129392
0.00129402
0.00129423
0.00129393
0.0012938
0.00129375
0.00129383
0.00129386
0.00129397
0.00129358
0.00129403
0.00129462
0.0012946
0.00129549
0.00129629
0.00129691
0.0012975
0.00129731
0.00129762
0.00129795
0.00129812
0.00129833
0.00129848
0.00129868
0.00129883
0.00129886
0.0012982
0.00129829
0.00129882
0.00129885
0.0012988
0.00129818
0.00129815
0.0012996
0.00130078
0.00130051
0.00130042
0.00130022
0.0013004
0.00130052
0.00130032
0.00130027
0.00130016
0.00129966
0.00129967
0.00129967
0.00129882
0.00129889
0.00129909
0.00129837
0.00129857
0.00129896
0.00129842
0.00129863
0.00129896
0.00129885
0.00129879
0.00129879
0.0012988
0.00129864
0.0012986
0.0012983
0.00129757
0.00129702
0.00129733
0.00129756
0.00129738
0.00129676
0.00129673
0.00129706
0.00129641
0.00118232
0.00122749
0.0012635
0.0012847
0.0012947
0.00129834
0.00129846
0.00129794
0.00129808
0.0012981
0.00129749
0.00129724
0.00129695
0.00129666
0.00129596
0.00129587
0.00129578
0.00129472
0.0012946
0.00129473
0.0012944
0.00129403
0.00129394
0.00129418
0.00129418
0.0012941
0.00129416
0.00129438
0.00129416
0.00129442
0.00129481
0.0012951
0.00129556
0.00129612
0.00129664
0.00129687
0.00129754
0.00129815
0.00129805
0.00129873
0.00129939
0.00129967
0.00129987
0.00129917
0.00129938
0.00129971
0.00129934
0.00129956
0.00129963
0.00129939
0.00129887
0.00129857
0.00129959
0.00130089
0.00130052
0.00130078
0.00130094
0.00130059
0.00130053
0.00130036
0.00130032
0.00129994
0.00130001
0.00130001
0.00129921
0.00129929
0.00129947
0.00129879
0.001299
0.0012993
0.00129921
0.00129915
0.00129906
0.00129904
0.00129897
0.00129894
0.00129865
0.00129858
0.0012983
0.00129831
0.00129816
0.001298
0.00129791
0.00129775
0.00129747
0.00129696
0.00129722
0.00129759
0.00129743
0.00129682
0.00118232
0.00122732
0.00126374
0.00128519
0.00129376
0.00129613
0.0012961
0.00129594
0.00129539
0.00129518
0.00129516
0.00129485
0.00129425
0.00129416
0.00129526
0.00129483
0.00129455
0.0012952
0.00129532
0.00129488
0.00129412
0.0012938
0.00129386
0.00129334
0.00129311
0.00129316
0.00129329
0.00129372
0.00129415
0.00129452
0.0012949
0.00129545
0.00129599
0.00129647
0.00129668
0.00129718
0.00129753
0.0012974
0.0012977
0.00129864
0.0012992
0.00129927
0.00129947
0.00129961
0.00129956
0.00129958
0.00129946
0.00129905
0.0012992
0.00129938
0.00129851
0.00129856
0.00129877
0.00129852
0.00129842
0.00129804
0.00129832
0.00129846
0.00129834
0.00129814
0.00129795
0.00129766
0.00129788
0.00129867
0.00129863
0.0012984
0.00129767
0.00129769
0.00129815
0.0012979
0.00129797
0.00129796
0.0012978
0.00129747
0.00129761
0.00129773
0.00129716
0.00129738
0.0012979
0.00129726
0.00129712
0.00129725
0.00129677
0.00129682
0.00129748
0.00129755
0.00129744
0.00129745
0.00129724
0.0012964
0.0011823
0.00122755
0.00126333
0.00128499
0.00129476
0.00129703
0.0012977
0.0012975
0.00129665
0.00129666
0.0012969
0.00129658
0.00129629
0.00129575
0.00129546
0.00129508
0.00129422
0.00129385
0.00129389
0.00129352
0.00129323
0.00129265
0.00129285
0.00129322
0.00129255
0.00129287
0.00129354
0.00129367
0.0012937
0.00129402
0.00129447
0.00129447
0.00129534
0.00129616
0.00129679
0.00129744
0.00129773
0.00129822
0.00129846
0.00129831
0.00129812
0.00129828
0.00129836
0.00129818
0.0012983
0.00129854
0.00129859
0.00129857
0.00129814
0.00129787
0.00129846
0.00129875
0.00129861
0.00129849
0.00129776
0.00129784
0.00129805
0.00129743
0.00129764
0.00129814
0.00129793
0.00129786
0.00129785
0.00129778
0.00129744
0.00129725
0.00129704
0.00129666
0.00129643
0.00129704
0.0012975
0.00129738
0.00129708
0.00129717
0.00129726
0.00129667
0.00129695
0.00129722
0.00129707
0.00129669
0.00129672
0.00129742
0.0012976
0.00129747
0.00129717
0.0012971
0.00129674
0.00129633
0.0012962
0.00129594
0.00118232
0.00122749
0.00126351
0.00128464
0.0012949
0.00129784
0.00129773
0.0012976
0.00129736
0.00129754
0.00129753
0.00129682
0.00129683
0.00129675
0.00129619
0.00129582
0.00129551
0.00129516
0.00129431
0.00129401
0.00129409
0.00129358
0.00129374
0.00129383
0.00129368
0.00129374
0.00129372
0.00129371
0.0012937
0.00129405
0.00129437
0.00129477
0.00129532
0.00129596
0.00129622
0.00129654
0.00129736
0.001298
0.00129832
0.00129842
0.00129866
0.00129872
0.00129882
0.00129883
0.00129872
0.00129871
0.00129816
0.0012983
0.00129893
0.00129886
0.00129878
0.00129842
0.00129839
0.00129858
0.00129845
0.00129816
0.00129745
0.00129729
0.00129783
0.0012978
0.00129736
0.00129732
0.00129801
0.00129818
0.00129804
0.00129801
0.00129775
0.00129721
0.0012968
0.00129698
0.00129711
0.00129665
0.00129691
0.00129761
0.00129767
0.00129752
0.00129722
0.00129717
0.00129692
0.00129666
0.00129655
0.00129623
0.00129648
0.0012973
0.00129722
0.00129709
0.00129657
0.00129686
0.00129724
0.00129656
0.00118232
0.00122749
0.00126349
0.00128474
0.00129456
0.00129864
0.0012989
0.00129855
0.00129835
0.00129778
0.00129776
0.0012976
0.00129699
0.00129685
0.00129657
0.00129573
0.00129562
0.00129553
0.00129448
0.00129437
0.00129456
0.00129362
0.00129345
0.00129391
0.00129405
0.00129407
0.00129415
0.00129448
0.00129482
0.00129516
0.00129561
0.00129614
0.00129658
0.00129692
0.00129675
0.00129696
0.00129771
0.00129844
0.00129879
0.00129906
0.00129905
0.00129908
0.00129931
0.00129947
0.00129944
0.00129914
0.00129923
0.00129926
0.00129911
0.00129898
0.00129846
0.00129867
0.00130084
0.00130127
0.00130073
0.0013009
0.00130097
0.0013007
0.00130054
0.00130047
0.00130046
0.00130017
0.0013001
0.00129994
0.00129921
0.0012992
0.00129935
0.00129863
0.00129882
0.00129913
0.00129867
0.0012986
0.00129852
0.00129853
0.00129845
0.00129789
0.00129798
0.00129816
0.00129799
0.00129788
0.0012979
0.00129792
0.00129726
0.00129743
0.00129764
0.00129759
0.00129757
0.00129725
0.00129714
0.00129636
0.00118232
0.00122749
0.0012635
0.0012847
0.0012947
0.00129834
0.00129847
0.00129794
0.00129809
0.00129811
0.0012975
0.00129724
0.00129695
0.00129665
0.00129597
0.00129588
0.00129579
0.00129473
0.0012946
0.00129474
0.00129414
0.00129413
0.00129411
0.00129381
0.00129383
0.00129389
0.0012941
0.00129421
0.00129418
0.0012944
0.00129476
0.001295
0.00129522
0.00129593
0.0012966
0.00129693
0.00129748
0.00129795
0.00129802
0.00129873
0.0012994
0.00129968
0.00129988
0.00129918
0.00129939
0.00129971
0.0012995
0.00129954
0.00129955
0.00129941
0.00129882
0.00129861
0.00129971
0.00130049
0.00130037
0.00130021
0.00130026
0.00130027
0.00130005
0.00129993
0.00129923
0.00129938
0.0012996
0.0012989
0.00129908
0.00129927
0.00129879
0.00129869
0.00129862
0.00129814
0.00129826
0.00129864
0.00129864
0.00129848
0.0012983
0.00129823
0.00129773
0.0012974
0.00129723
0.0012969
0.00129725
0.00129766
0.00129701
0.00129725
0.00129755
0.00129751
0.0012975
0.00129729
0.0012972
0.00129641
0.00118232
0.00122748
0.00126353
0.00128459
0.00129501
0.00129776
0.00129756
0.00129768
0.00129778
0.00129734
0.00129711
0.00129686
0.00129622
0.00129614
0.00129624
0.00129581
0.0012951
0.00129483
0.00129476
0.00129413
0.00129402
0.00129391
0.00129356
0.00129288
0.001293
0.00129334
0.00129283
0.00129332
0.00129422
0.0012947
0.00129525
0.0012955
0.00129613
0.0012968
0.00129746
0.00129781
0.00129823
0.00129844
0.00129805
0.00129805
0.00129849
0.0012988
0.00129891
0.00129902
0.00129895
0.00129823
0.00129819
0.00129901
0.00129915
0.00129893
0.00129849
0.00129829
0.00129964
0.0013006
0.00130048
0.0013004
0.0013002
0.0013002
0.00130034
0.00130014
0.00129961
0.00129928
0.00129941
0.00129947
0.00129924
0.00129875
0.00129853
0.00129853
0.00129799
0.00129805
0.00129861
0.0012986
0.00129855
0.00129823
0.0012978
0.00129796
0.00129828
0.00129795
0.00129811
0.00129816
0.00129802
0.00129783
0.00129752
0.00129736
0.00129726
0.00129695
0.0012972
0.00129754
0.00129738
0.00129676
0.00118233
0.00122738
0.00126364
0.00128508
0.0012941
0.00129592
0.00129584
0.00129556
0.00129513
0.00129556
0.00129585
0.00129548
0.00129484
0.0012944
0.00129438
0.00129398
0.001294
0.00129389
0.00129314
0.0012931
0.00129332
0.00129329
0.00129362
0.00129298
0.00129313
0.00129372
0.00129358
0.00129354
0.00129408
0.00129466
0.00129508
0.00129561
0.00129597
0.0012965
0.00129696
0.0012972
0.00129741
0.0012981
0.00129863
0.00129862
0.00129918
0.00129956
0.00129942
0.0012996
0.00129968
0.00129973
0.0012998
0.00129979
0.00129937
0.00129926
0.00129936
0.00129933
0.00129913
0.00129877
0.00129792
0.00129781
0.00129784
0.00129723
0.0012972
0.00129804
0.00129809
0.00129786
0.00129741
0.00129721
0.0012978
0.00129802
0.0012981
0.00129795
0.0012978
0.00129753
0.00129772
0.00129832
0.00129795
0.0012982
0.00129829