/*--------------------------------*- C++ -*----------------------------------*\
  =========                 |
  \\      /  F ield         | OpenFOAM: The Open Source CFD Toolbox
   \\    /   O peration     | Website:  https://openfoam.org
    \\  /    A nd           | Version:  11
     \\/     M anipulation  |
\*---------------------------------------------------------------------------*/
FoamFile
{
    format      ascii;
    class       volScalarField;
    location    "0.052";
    object      omega;
}
// * * * * * * * * * * * * * * * * * * * * * * * * * * * * * * * * * * * * * //

dimensions      [0 0 -1 0 0 0 0];

internalField   nonuniform List<scalar> 
287084
(
55.0179
56.0499
56.8293
57.2601
57.4223
57.4445
57.4426
57.4381
57.4322
57.4449
57.4539
57.4515
57.4509
57.449
57.4482
57.4353
57.4339
57.4475
57.4416
57.449
57.4611
57.454
57.4548
57.4559
57.4544
57.4444
57.4426
57.454
57.4599
57.4586
57.459
57.4551
57.4478
57.4313
57.4337
57.4428
57.4353
57.4352
57.4345
57.4246
57.4211
57.4252
57.4259
57.4206
57.4205
57.4209
57.4114
57.419
57.4313
57.4189
57.4241
57.4311
57.4293
57.4279
57.4114
57.4115
57.4214
57.4214
57.4204
57.4213
57.4218
57.4092
57.4101
57.4318
57.4375
57.4334
57.4221
57.4187
57.4287
57.4344
57.4312
57.4183
57.4194
57.4319
57.4295
57.4319
57.4322
57.4284
57.425
57.4316
57.44
57.4391
57.4402
57.4381
57.4339
57.4209
57.413
57.4218
57.4259
57.4165
55.0217
56.0414
56.8176
57.2565
57.4216
57.4435
57.4425
57.4394
57.4452
57.452
57.4511
57.451
57.446
57.4471
57.4442
57.4342
57.4378
57.4444
57.4363
57.4332
57.4431
57.4534
57.4605
57.4631
57.4602
57.4517
57.4522
57.4609
57.4466
57.45
57.4576
57.4506
57.4481
57.4446
57.441
57.4415
57.4415
57.43
57.4355
57.4472
57.4472
57.447
57.4304
57.4342
57.443
57.4431
57.4431
57.4391
57.4389
57.4343
57.4232
57.4182
57.4258
57.4276
57.4258
57.421
57.4195
57.4134
57.4194
57.4331
57.4252
57.4308
57.4334
57.4303
57.4207
57.4224
57.4344
57.436
57.4362
57.4253
57.4327
57.4454
57.4443
57.443
57.4328
57.4311
57.4236
57.4307
57.4399
57.4345
57.4347
57.4315
57.4216
57.4252
57.4314
57.4313
57.4313
57.425
57.4236
57.4109
55.0218
56.0406
56.8173
57.2533
57.4192
57.4565
57.4571
57.4571
57.4481
57.4535
57.4617
57.4573
57.4596
57.4566
57.4458
57.4484
57.4573
57.4582
57.4583
57.4444
57.4463
57.4561
57.4555
57.4668
57.4693
57.4658
57.4528
57.4511
57.4569
57.4497
57.4453
57.4465
57.4447
57.4426
57.4435
57.4376
57.44
57.4501
57.4478
57.4491
57.449
57.4438
57.4422
57.4416
57.4415
57.439
57.4364
57.4435
57.4462
57.4424
57.427
57.4255
57.4304
57.4179
57.4206
57.4321
57.4258
57.4201
57.4262
57.4356
57.4346
57.4361
57.4324
57.4197
57.4244
57.4388
57.4383
57.4382
57.432
57.4302
57.4311
57.4311
57.4191
57.4202
57.4295
57.426
57.4207
57.4209
57.4221
57.4197
57.4163
57.4269
57.439
57.4229
57.4235
57.4324
57.4191
57.42
57.4278
57.4142
55.0204
56.0436
56.8139
57.2484
57.4248
57.464
57.4649
57.4649
57.4549
57.46
57.4669
57.4666
57.4664
57.45
57.4541
57.4636
57.4627
57.4626
57.4559
57.4504
57.4505
57.4508
57.4487
57.4468
57.4476
57.4481
57.4464
57.4419
57.4487
57.4615
57.462
57.462
57.4545
57.4555
57.4541
57.4525
57.4476
57.4317
57.4313
57.444
57.4448
57.4448
57.4343
57.4398
57.4433
57.4424
57.4421
57.4334
57.4275
57.4258
57.4301
57.4307
57.4306
57.4235
57.4175
57.4208
57.4146
57.4182
57.437
57.4393
57.4353
57.4209
57.4219
57.4357
57.4295
57.4365
57.4415
57.4308
57.4382
57.4438
57.4263
57.427
57.4353
57.43
57.4266
57.4297
57.4303
57.4392
57.4472
57.4459
57.4451
57.4301
57.434
57.4403
57.4371
57.4303
57.4246
57.4278
57.4287
57.4214
55.0204
56.0437
56.8122
57.2497
57.4254
57.4529
57.4433
57.4497
57.4617
57.4462
57.4497
57.4639
57.4638
57.46
57.445
57.4492
57.454
57.4478
57.4473
57.4473
57.4411
57.4421
57.4559
57.4532
57.4543
57.4542
57.4475
57.4451
57.4496
57.4493
57.4499
57.4498
57.4409
57.4404
57.4513
57.4434
57.4486
57.4634
57.4616
57.4586
57.4481
57.4397
57.4429
57.4455
57.4415
57.4275
57.4256
57.4319
57.4197
57.4205
57.4303
57.4289
57.4295
57.4283
57.4164
57.4156
57.4285
57.425
57.4259
57.4258
57.4197
57.4169
57.422
57.4157
57.4177
57.4268
57.4258
57.4272
57.4265
57.4166
57.415
57.4373
57.445
57.4413
57.4309
57.4272
57.4322
57.4286
57.4299
57.429
57.4216
57.419
57.4255
57.4189
57.4251
57.4379
57.4225
57.4248
57.4354
57.4205
55.0193
56.0438
56.8167
57.2492
57.4021
57.4167
57.4167
57.4364
57.45
57.4499
57.4497
57.4392
57.4377
57.4305
57.4371
57.4553
57.4492
57.4514
57.4482
57.4468
57.4465
57.4375
57.4364
57.4474
57.4489
57.4416
57.447
57.4571
57.4542
57.4539
57.4455
57.4447
57.4441
57.4441
57.444
57.4471
57.4478
57.4464
57.4464
57.4429
57.438
57.4259
57.4219
57.4274
57.4229
57.4221
57.4273
57.4272
57.4297
57.43
57.4309
57.424
57.4313
57.4403
57.44
57.4399
57.4286
57.4251
57.4314
57.4344
57.4309
57.418
57.4172
57.4282
57.4254
57.4327
57.44
57.4401
57.4401
57.4257
57.4268
57.438
57.4274
57.4328
57.4429
57.4289
57.4262
57.4308
57.4243
57.4228
57.427
57.4208
57.428
57.4406
57.4327
57.4325
57.4317
57.4327
57.4318
57.4214
55.0171
56.046
56.8163
57.2497
57.4062
57.4207
57.4302
57.4417
57.4397
57.4394
57.429
57.4422
57.478
57.4775
57.4727
57.4784
57.4857
57.4816
57.4812
57.475
57.4746
57.4746
57.4654
57.4694
57.4788
57.4764
57.4737
57.4593
57.4629
57.465
57.4496
57.4542
57.4643
57.4561
57.4521
57.4486
57.4384
57.4361
57.4523
57.4584
57.4543
57.4435
57.4399
57.4488
57.4504
57.447
57.4356
57.4398
57.443
57.4399
57.4301
57.4298
57.4356
57.4345
57.4261
57.426
57.4362
57.4401
57.4374
57.4328
57.4314
57.4168
57.4143
57.4295
57.4356
57.4296
57.4289
57.4282
57.4142
57.4148
57.4258
57.426
57.4198
57.4217
57.4343
57.4358
57.4359
57.4261
57.4253
57.4187
57.4262
57.4387
57.4231
57.4234
57.4325
57.4263
57.4341
57.4395
57.4358
57.4228
55.0194
56.0455
56.8131
57.2387
57.4317
57.4884
57.4875
57.4946
57.5011
57.5004
57.498
57.4981
57.4985
57.4958
57.4954
57.489
57.484
57.4887
57.4907
57.4852
57.4852
57.4851
57.4821
57.4742
57.4738
57.478
57.4753
57.4751
57.4734
57.4651
57.4568
57.4533
57.4482
57.4451
57.4523
57.4553
57.4447
57.4481
57.4653
57.4657
57.4625
57.4477
57.4492
57.4578
57.4581
57.4581
57.4531
57.4522
57.4427
57.4488
57.4585
57.4488
57.4548
57.4578
57.4554
57.4572
57.4537
57.4517
57.4497
57.441
57.4311
57.4299
57.4276
57.4283
57.4283
57.4202
57.4228
57.4329
57.4324
57.4311
57.4295
57.4275
57.4271
57.4205
57.4202
57.439
57.4426
57.4391
57.4296
57.4236
57.4262
57.4231
57.4324
57.4401
57.4391
57.4389
57.4266
57.4304
57.433
57.4196
55.0182
56.0451
56.8165
57.2471
57.4113
57.4421
57.4436
57.4397
57.4393
57.4334
57.4419
57.4715
57.4698
57.4725
57.473
57.4719
57.4689
57.4767
57.487
57.4865
57.4859
57.4857
57.4862
57.4797
57.4818
57.4824
57.4802
57.4801
57.4761
57.4602
57.4506
57.4527
57.4515
57.4484
57.4531
57.4554
57.4446
57.4458
57.456
57.4507
57.4574
57.4612
57.4494
57.4556
57.4595
57.4594
57.4592
57.4503
57.4491
57.4432
57.4281
57.4196
57.4226
57.4234
57.4155
57.4164
57.4329
57.4357
57.4321
57.4185
57.4169
57.4321
57.4344
57.4309
57.4213
57.4187
57.426
57.4216
57.43
57.4433
57.4414
57.4388
57.4245
57.428
57.4378
57.4281
57.4371
57.4457
57.4458
57.4456
57.4306
57.428
57.4334
57.429
57.4353
57.4379
57.4326
57.4332
57.4302
57.4168
55.0172
56.043
56.8247
57.2397
57.4084
57.439
57.4378
57.4298
57.4287
57.4508
57.4574
57.4537
57.4399
57.4377
57.4569
57.4628
57.459
57.4588
57.4569
57.4418
57.4438
57.4564
57.4561
57.451
57.4517
57.46
57.4487
57.453
57.466
57.4622
57.454
57.4531
57.4566
57.4497
57.4549
57.4566
57.4528
57.4416
57.4414
57.4444
57.4381
57.4371
57.4321
57.4159
57.4136
57.4222
57.4245
57.4249
57.422
57.4143
57.4183
57.4233
57.4215
57.4213
57.4112
57.415
57.4171
57.4094
57.4159
57.4331
57.4317
57.429
57.4148
57.4189
57.4263
57.4132
57.4189
57.4318
57.4247
57.4264
57.4232
57.4143
57.411
57.4207
57.4238
57.4154
57.4213
57.4363
57.4347
57.432
57.4182
57.421
57.4373
57.4417
57.4391
57.4339
57.4258
57.4287
57.4328
57.4198
55.0191
56.043
56.8172
57.2469
57.4177
57.4451
57.4436
57.4347
57.4352
57.4464
57.4471
57.4449
57.4462
57.4556
57.4555
57.4525
57.4615
57.4725
57.4692
57.4714
57.4717
57.4684
57.4677
57.4633
57.4638
57.4644
57.4554
57.4578
57.4583
57.4539
57.45
57.4585
57.4651
57.4641
57.4639
57.4597
57.4585
57.4549
57.4487
57.4412
57.4357
57.4232
57.4185
57.4262
57.4276
57.4227
57.4313
57.4418
57.4403
57.4394
57.4336
57.4305
57.428
57.4199
57.4197
57.4275
57.4266
57.4168
57.4196
57.4278
57.4282
57.4282
57.414
57.42
57.428
57.4266
57.4263
57.4136
57.419
57.4289
57.4278
57.4241
57.4272
57.4397
57.4259
57.426
57.4355
57.4266
57.4329
57.4434
57.4285
57.4334
57.4438
57.436
57.4282
57.4267
57.4312
57.4322
57.432
57.4183
55.0178
56.0458
56.8143
57.2486
57.416
57.4472
57.4556
57.4543
57.4546
57.4459
57.446
57.4675
57.4653
57.4752
57.4868
57.4775
57.477
57.4769
57.4692
57.4749
57.483
57.4673
57.4716
57.4832
57.4791
57.4795
57.4812
57.4804
57.4713
57.468
57.4644
57.4582
57.4526
57.449
57.4465
57.4428
57.4386
57.4289
57.4253
57.4292
57.4246
57.4229
57.4268
57.4268
57.4291
57.4293
57.4277
57.4215
57.4302
57.4411
57.4353
57.4383
57.443
57.4418
57.4369
57.4192
57.4194
57.426
57.424
57.4172
57.4211
57.4342
57.4234
57.4302
57.4361
57.4353
57.4351
57.4212
57.4284
57.4386
57.4382
57.438
57.4228
57.4266
57.4321
57.4305
57.4297
57.417
57.4243
57.4378
57.4352
57.424
57.4225
57.4345
57.4371
57.4343
57.4198
57.4222
57.4334
57.4184
55.0194
56.0453
56.8134
57.2372
57.4347
57.4841
57.4814
57.4816
57.4772
57.4849
57.4897
57.4765
57.482
57.4896
57.4783
57.4849
57.4904
57.4852
57.4847
57.4786
57.4861
57.4908
57.4755
57.48
57.4852
57.4849
57.4849
57.4819
57.4803
57.4666
57.4576
57.4608
57.4622
57.4608
57.4571
57.4622
57.4659
57.4621
57.4545
57.4469
57.4523
57.4546
57.451
57.4382
57.4397
57.4506
57.4508
57.4508
57.4442
57.4436
57.4386
57.4361
57.4357
57.4269
57.4308
57.4369
57.4346
57.4323
57.4223
57.4317
57.4406
57.4373
57.4281
57.4232
57.428
57.4198
57.4218
57.4309
57.4307
57.4297
57.4291
57.4272
57.4268
57.4201
57.4199
57.4389
57.4421
57.4385
57.4243
57.4235
57.4358
57.4369
57.4342
57.4235
57.4207
57.4279
57.4273
57.4272
57.4271
57.4186
55.0178
56.043
56.8203
57.2499
57.401
57.4171
57.4216
57.4371
57.4327
57.4353
57.4358
57.4341
57.43
57.4284
57.4283
57.4408
57.4545
57.447
57.4521
57.4544
57.4454
57.451
57.4698
57.4613
57.4689
57.4787
57.4707
57.4715
57.4717
57.4684
57.459
57.4615
57.4624
57.4495
57.4495
57.4613
57.4618
57.4603
57.4613
57.4594
57.4578
57.4537
57.4542
57.4561
57.4523
57.4527
57.4522
57.4538
57.4516
57.4466
57.4344
57.4244
57.4308
57.4359
57.4338
57.4327
57.4212
57.4264
57.4361
57.4345
57.4333
57.4199
57.4235
57.4331
57.4301
57.4184
57.4184
57.4302
57.4329
57.4333
57.4292
57.427
57.4242
57.4162
57.4213
57.4399
57.4288
57.4352
57.4463
57.4366
57.4422
57.4453
57.4433
57.4426
57.4293
57.4325
57.4463
57.4476
57.4469
57.4285
55.0194
56.0454
56.813
57.2385
57.4312
57.4906
57.4953
57.4929
57.4862
57.4939
57.4987
57.489
57.4926
57.4945
57.4911
57.4917
57.4907
57.4789
57.4821
57.4887
57.4839
57.4834
57.483
57.4855
57.4853
57.4861
57.4811
57.479
57.4771
57.4777
57.4758
57.4669
57.4596
57.4559
57.4517
57.4486
57.4437
57.4337
57.4263
57.4271
57.4244
57.4225
57.4325
57.4421
57.4392
57.4333
57.4246
57.4232
57.4206
57.4296
57.4353
57.4234
57.4293
57.44
57.4387
57.4372
57.4227
57.4182
57.4265
57.4248
57.4333
57.4479
57.4451
57.4463
57.4411
57.442
57.4425
57.4407
57.4396
57.4281
57.4294
57.4311
57.4284
57.421
57.42
57.4389
57.442
57.4383
57.4242
57.4249
57.4384
57.4409
57.4386
57.4363
57.4326
57.4178
57.4223
57.4335
57.431
57.421
55.0221
56.0426
56.8103
57.2502
57.4157
57.4367
57.4469
57.4572
57.4433
57.4479
57.4579
57.4549
57.455
57.4475
57.4535
57.463
57.46
57.4483
57.4492
57.4568
57.4564
57.4542
57.4581
57.4695
57.4557
57.4558
57.4652
57.4654
57.4589
57.4615
57.4683
57.4537
57.4582
57.4662
57.4603
57.4593
57.4519
57.4517
57.4489
57.4456
57.4416
57.4389
57.4369
57.4348
57.4306
57.422
57.4101
57.4205
57.4344
57.4253
57.4301
57.4318
57.4294
57.4227
57.4302
57.4542
57.4464
57.4526
57.4685
57.4679
57.4662
57.4518
57.4542
57.4587
57.4584
57.4584
57.4563
57.456
57.4498
57.4464
57.4321
57.4251
57.4365
57.4423
57.4386
57.4255
57.4277
57.4346
57.428
57.4216
57.4297
57.4409
57.4384
57.4339
57.4266
57.4291
57.4338
57.4313
57.4278
57.4185
55.0203
56.0459
56.8114
57.2368
57.4269
57.4975
57.5075
57.5076
57.5054
57.5009
57.5016
57.5062
57.5049
57.5008
57.4874
57.4889
57.4919
57.4757
57.4806
57.4889
57.4718
57.4732
57.482
57.4777
57.4802
57.4814
57.4792
57.4783
57.4679
57.4682
57.4699
57.4666
57.4633
57.4491
57.4486
57.4483
57.4457
57.4456
57.4407
57.4382
57.433
57.4175
57.4212
57.4298
57.4292
57.4288
57.4135
57.4181
57.4277
57.4163
57.4236
57.4303
57.4162
57.4126
57.4263
57.4289
57.4379
57.4514
57.4375
57.4431
57.4526
57.4377
57.4427
57.449
57.4399
57.4404
57.4393
57.4276
57.428
57.4339
57.4224
57.4277
57.4322
57.4317
57.4316
57.416
57.416
57.4358
57.4386
57.4369
57.4368
57.4311
57.4292
57.4204
57.427
57.4385
57.4238
57.4289
57.4396
57.422
55.0195
56.0454
56.8129
57.2393
57.4275
57.5029
57.5072
57.5028
57.5025
57.504
57.5046
57.5009
57.4999
57.4922
57.4942
57.4953
57.484
57.4892
57.4938
57.4787
57.4839
57.4928
57.4859
57.486
57.4869
57.488
57.4877
57.4839
57.4698
57.463
57.4613
57.4574
57.4573
57.4549
57.4513
57.4487
57.4435
57.4321
57.4233
57.4231
57.4234
57.4201
57.4223
57.4287
57.4263
57.4276
57.4227
57.4272
57.4316
57.4309
57.4307
57.4152
57.4147
57.4304
57.4287
57.4382
57.4513
57.4443
57.4491
57.4516
57.4496
57.4487
57.4467
57.443
57.4307
57.4341
57.4416
57.4306
57.4271
57.4369
57.4444
57.4433
57.4432
57.4379
57.4306
57.4333
57.4413
57.4381
57.438
57.4362
57.4214
57.4224
57.438
57.4385
57.4357
57.4234
57.4203
57.4286
57.4303
57.4213
55.0203
56.0459
56.8115
57.2362
57.4297
57.4877
57.4868
57.4956
57.5005
57.492
57.4947
57.4951
57.4926
57.4831
57.4874
57.491
57.4749
57.4797
57.4882
57.4713
57.4722
57.4814
57.477
57.4774
57.4776
57.4749
57.471
57.4674
57.4672
57.4671
57.4637
57.4588
57.4476
57.4535
57.4617
57.4541
57.4572
57.4614
57.4591
57.4562
57.4438
57.4343
57.43
57.4225
57.4153
57.409
57.4071
57.4048
57.4121
57.4275
57.427
57.4261
57.4163
57.4114
57.4255
57.4342
57.4426
57.4534
57.4459
57.4513
57.4536
57.4525
57.4536
57.4524
57.4491
57.4367
57.4403
57.4461
57.4349
57.4324
57.4393
57.4411
57.4357
57.4383
57.4392
57.4365
57.4255
57.43
57.4367
57.4347
57.4334
57.4234
57.4208
57.4139
57.421
57.4325
57.4215
57.4172
57.419
57.4119
55.0199
56.0478
56.806
57.2467
57.4255
57.4667
57.4685
57.4653
57.4558
57.4602
57.4674
57.4666
57.4666
57.4555
57.461
57.4681
57.4623
57.4647
57.4654
57.4637
57.4595
57.4688
57.4874
57.4829
57.4835
57.4842
57.4824
57.4721
57.4633
57.4605
57.4596
57.4593
57.456
57.4511
57.4481
57.4449
57.4399
57.4393
57.435
57.4255
57.4189
57.4178
57.4163
57.4189
57.4237
57.4218
57.4201
57.4194
57.4122
57.4078
57.4231
57.4725
57.4773
57.4759
57.4717
57.475
57.4772
57.4765
57.4763
57.4602
57.4632
57.468
57.4613
57.4618
57.4609
57.461
57.4591
57.4527
57.4559
57.4585
57.455
57.4479
57.4418
57.4397
57.4371
57.4414
57.4423
57.4372
57.4374
57.4358
57.4216
57.4245
57.4321
57.421
57.4176
57.4202
57.4182
57.4182
57.4182
57.4114
55.0195
56.0434
56.8161
57.2477
57.4111
57.4339
57.4256
57.4243
57.433
57.438
57.4402
57.4377
57.4262
57.4288
57.4515
57.4547
57.4519
57.4429
57.4465
57.4719
57.4893
57.4879
57.4844
57.4834
57.4798
57.4683
57.467
57.4741
57.4711
57.4708
57.4682
57.4556
57.4504
57.4538
57.4426
57.4419
57.4525
57.4539
57.4504
57.436
57.4333
57.4355
57.4367
57.4365
57.4214
57.4257
57.4304
57.4285
57.4278
57.4213
57.4187
57.4151
57.4082
57.4127
57.4221
57.4165
57.4169
57.4169
57.4124
57.4072
57.4076
57.4088
57.4074
57.4063
57.4057
57.4158
57.4213
57.4078
57.41
57.4298
57.4381
57.4359
57.4327
57.4338
57.4329
57.4225
57.4221
57.4399
57.4443
57.4426
57.4432
57.4384
57.4199
57.4214
57.4306
57.425
57.4188
57.4237
57.4287
57.4176
55.0195
56.0453
56.8135
57.2367
57.4363
57.4836
57.4813
57.4821
57.4812
57.483
57.477
57.4826
57.4883
57.4855
57.4761
57.4769
57.4823
57.4779
57.4783
57.4756
57.4835
57.4923
57.4892
57.4892
57.4895
57.4902
57.4867
57.4794
57.4658
57.4667
57.4677
57.4547
57.4599
57.4623
57.4611
57.46
57.4402
57.4346
57.433
57.4274
57.4269
57.4269
57.4272
57.4245
57.4208
57.4068
57.4106
57.423
57.4226
57.4225
57.4115
57.4143
57.4515
57.4761
57.4725
57.4734
57.4707
57.4753
57.4792
57.4789
57.4802
57.4772
57.4674
57.4693
57.4705
57.4535
57.4565
57.4619
57.4475
57.4533
57.4623
57.4521
57.4575
57.4648
57.4623
57.4619
57.4626
57.4634
57.4598
57.4571
57.4503
57.4331
57.4249
57.4342
57.4388
57.4351
57.4211
57.4224
57.4309
57.4156
55.0194
56.0454
56.813
57.2388
57.4303
57.4953
57.4972
57.4899
57.4966
57.5006
57.4938
57.4949
57.4945
57.4947
57.4851
57.4897
57.4944
57.4788
57.484
57.4935
57.4926
57.4898
57.4925
57.4974
57.4976
57.4976
57.4949
57.4936
57.4787
57.4727
57.4687
57.4611
57.4571
57.4565
57.4531
57.4451
57.4473
57.4488
57.4369
57.4432
57.4499
57.4497
57.4493
57.431
57.434
57.4398
57.4325
57.437
57.4387
57.4351
57.4218
57.4196
57.4501
57.4779
57.472
57.4794
57.484
57.4802
57.4816
57.4767
57.4745
57.471
57.4751
57.4764
57.4607
57.4639
57.4688
57.4555
57.4618
57.4687
57.4671
57.4667
57.4668
57.4673
57.4651
57.4647
57.4581
57.4567
57.4506
57.4501
57.45
57.4464
57.4421
57.4387
57.4322
57.4244
57.4326
57.4401
57.4366
57.4236
55.0192
56.042
56.8195
57.2478
57.4051
57.4469
57.4467
57.4439
57.4357
57.437
57.4419
57.4395
57.4321
57.4398
57.473
57.4684
57.4702
57.4926
57.5006
57.4977
57.4871
57.4876
57.4942
57.481
57.478
57.4808
57.4801
57.4813
57.4819
57.4816
57.474
57.4698
57.4667
57.4619
57.4513
57.448
57.4431
57.4274
57.4268
57.4409
57.4443
57.4418
57.4423
57.4395
57.4333
57.4324
57.4322
57.4255
57.4292
57.4339
57.4165
57.4199
57.4262
57.4248
57.4254
57.4184
57.4262
57.4305
57.4292
57.4269
57.4275
57.4225
57.4293
57.4451
57.4469
57.444
57.4284
57.4317
57.4438
57.439
57.4399
57.4401
57.4398
57.4327
57.4356
57.4384
57.4273
57.433
57.4445
57.4278
57.4269
57.4337
57.4215
57.424
57.4373
57.4385
57.436
57.4353
57.4317
57.414
55.0192
56.0467
56.8095
57.2455
57.429
57.4649
57.478
57.4786
57.4646
57.47
57.48
57.4776
57.4775
57.4744
57.4759
57.4729
57.4605
57.462
57.4712
57.4701
57.4703
57.4621
57.471
57.4809
57.4675
57.4735
57.4844
57.4797
57.4686
57.4681
57.4682
57.4523
57.4564
57.4587
57.4572
57.4566
57.4488
57.4472
57.441
57.4268
57.4154
57.4135
57.4126
57.408
57.4092
57.4138
57.413
57.4126
57.4026
57.3994
57.417
57.4235
57.4219
57.4213
57.4083
57.4128
57.4191
57.4082
57.4156
57.4279
57.4267
57.4274
57.4263
57.4251
57.4182
57.414
57.4108
57.4033
57.4027
57.4204
57.4295
57.4277
57.4219
57.4246
57.427
57.4157
57.4227
57.4283
57.4242
57.4165
57.4203
57.4346
57.4357
57.4358
57.4287
57.4268
57.4177
57.4109
57.4113
57.4061
55.0194
56.0454
56.8132
57.2377
57.434
57.4859
57.4835
57.4839
57.4823
57.4898
57.4936
57.4848
57.4909
57.4951
57.4914
57.4914
57.4923
57.4917
57.4788
57.4804
57.4895
57.4831
57.4905
57.4942
57.4914
57.4912
57.4868
57.4771
57.4684
57.4655
57.4595
57.4577
57.4578
57.4554
57.4419
57.4367
57.4428
57.444
57.4401
57.4304
57.428
57.4234
57.4212
57.4208
57.416
57.4148
57.404
57.4089
57.4242
57.4216
57.4216
57.4177
57.4187
57.4226
57.423
57.4188
57.4051
57.4062
57.4194
57.4195
57.4135
57.4153
57.4315
57.4354
57.4334
57.431
57.4273
57.4157
57.4105
57.4171
57.4204
57.4126
57.4195
57.4324
57.4331
57.4332
57.4266
57.4257
57.4198
57.4129
57.4112
57.4074
57.4156
57.4304
57.4305
57.4305
57.418
57.4248
57.4325
57.4186
55.0194
56.0454
56.8129
57.2394
57.4275
57.503
57.5073
57.5015
57.5008
57.4948
57.4991
57.5006
57.495
57.4971
57.4976
57.4875
57.4924
57.4974
57.4819
57.4871
57.4972
57.4819
57.4841
57.4958
57.4967
57.4985
57.4964
57.4948
57.4934
57.4933
57.4923
57.4868
57.4794
57.4717
57.452
57.4462
57.4508
57.4512
57.4513
57.4499
57.4386
57.4351
57.436
57.4362
57.4348
57.4267
57.4277
57.4287
57.4257
57.421
57.4142
57.4254
57.4769
57.4847
57.4756
57.4813
57.4842
57.4795
57.4785
57.4794
57.481
57.4785
57.4794
57.4751
57.4595
57.4616
57.4663
57.4518
57.4575
57.4648
57.4567
57.4573
57.4563
57.4575
57.4544
57.442
57.4451
57.4491
57.4451
57.4435
57.4448
57.4455
57.432
57.436
57.4404
57.439
57.4386
57.4307
57.428
57.4133
55.0194
56.0454
56.813
57.2388
57.4303
57.4954
57.4973
57.4901
57.4968
57.5008
57.494
57.4949
57.4945
57.4946
57.4852
57.4898
57.4946
57.4789
57.4841
57.4936
57.488
57.4923
57.4955
57.4941
57.4962
57.4932
57.491
57.4892
57.479
57.472
57.4675
57.4584
57.4523
57.4537
57.4538
57.4458
57.4457
57.4468
57.4369
57.4435
57.4501
57.4498
57.4495
57.4311
57.4341
57.4398
57.4365
57.4368
57.4379
57.4374
57.4218
57.4207
57.4524
57.4683
57.468
57.4666
57.469
57.4712
57.4677
57.4671
57.4545
57.4599
57.4658
57.4524
57.458
57.463
57.4549
57.455
57.4546
57.4438
57.4472
57.4532
57.4532
57.4532
57.4497
57.4485
57.4365
57.4283
57.4278
57.4233
57.4318
57.4402
57.4264
57.4324
57.4387
57.4374
57.4373
57.4323
57.4295
57.4145
55.0195
56.0453
56.8135
57.2366
57.4362
57.4837
57.4791
57.4835
57.4888
57.4854
57.486
57.4854
57.4763
57.4809
57.4893
57.4868
57.478
57.4803
57.4858
57.4797
57.4824
57.4846
57.4821
57.4691
57.4732
57.4793
57.4649
57.4708
57.482
57.4818
57.4816
57.4755
57.4761
57.4735
57.4702
57.4636
57.4614
57.454
57.4328
57.4277
57.431
57.4318
57.4293
57.4255
57.4241
57.408
57.409
57.4274
57.4293
57.4257
57.4144
57.4144
57.4525
57.4718
57.4713
57.4687
57.4676
57.4705
57.4721
57.4722
57.4608
57.4566
57.4624
57.4647
57.4613
57.4485
57.4474
57.4519
57.4395
57.4428
57.4568
57.4561
57.4534
57.4449
57.4384
57.4445
57.4516
57.4464
57.4491
57.4501
57.4471
57.4401
57.4332
57.4301
57.428
57.4247
57.4322
57.4392
57.4355
57.4222
55.0196
56.0431
56.8168
57.2459
57.4123
57.4408
57.4392
57.4324
57.4285
57.4454
57.4553
57.4522
57.4405
57.4394
57.4497
57.4466
57.453
57.4565
57.4483
57.4541
57.4616
57.467
57.4818
57.4698
57.4746
57.4864
57.4773
57.4719
57.4772
57.4797
57.4767
57.4723
57.4662
57.4636
57.4594
57.4506
57.446
57.451
57.452
57.4447
57.4489
57.4508
57.4447
57.4466
57.4433
57.443
57.4472
57.4462
57.4368
57.4368
57.4383
57.4391
57.4386
57.4282
57.4122
57.4135
57.4164
57.4056
57.4082
57.4279
57.4293
57.4259
57.4144
57.4141
57.4313
57.4329
57.4353
57.436
57.4341
57.4293
57.4359
57.4496
57.443
57.4484
57.4503
57.4437
57.4459
57.4466
57.445
57.4457
57.4435
57.4394
57.426
57.4306
57.4442
57.4439
57.4451
57.4421
57.4365
57.4176
55.0223
56.0418
56.8116
57.2499
57.414
57.4353
57.4459
57.4565
57.4489
57.4489
57.4465
57.4471
57.4397
57.4468
57.4597
57.4604
57.4606
57.4486
57.4474
57.4447
57.4532
57.479
57.4796
57.478
57.4628
57.4607
57.4703
57.471
57.4725
57.4693
57.4652
57.4525
57.4564
57.4631
57.4598
57.4539
57.4467
57.4484
57.4495
57.4474
57.4423
57.4399
57.4398
57.4401
57.4365
57.4341
57.4316
57.4278
57.4195
57.4163
57.407
57.4117
57.4281
57.4271
57.428
57.423
57.4269
57.4264
57.4374
57.4494
57.4476
57.4412
57.4431
57.4479
57.4384
57.4377
57.4346
57.439
57.4403
57.4326
57.4387
57.4426
57.4402
57.4382
57.4289
57.4343
57.4419
57.4385
57.4384
57.436
57.4187
57.418
57.4313
57.4345
57.4308
57.4149
57.4161
57.4266
57.4259
57.418
55.0221
56.0426
56.8105
57.2502
57.4157
57.4366
57.4464
57.4567
57.4451
57.4486
57.4499
57.4473
57.4402
57.4451
57.4642
57.465
57.4613
57.4463
57.4502
57.4724
57.4757
57.4735
57.4706
57.4681
57.4642
57.4612
57.4559
57.4545
57.4557
57.456
57.4467
57.4514
57.4622
57.4624
57.462
57.4548
57.4464
57.4394
57.4397
57.442
57.4423
57.4388
57.4341
57.4166
57.4186
57.4253
57.4246
57.4243
57.4101
57.4175
57.4451
57.4371
57.4416
57.4609
57.4615
57.4574
57.4423
57.44
57.4543
57.4603
57.4587
57.4593
57.4554
57.4392
57.442
57.4493
57.4362
57.4422
57.4487
57.4465
57.4439
57.4364
57.4337
57.4259
57.4323
57.4386
57.4382
57.4381
57.4328
57.4331
57.4275
57.4261
57.426
57.4251
57.4162
57.4097
57.424
57.4332
57.4298
57.4171
55.0195
56.0454
56.8129
57.2389
57.4295
57.4971
57.5004
57.4995
57.5013
57.4969
57.4984
57.5012
57.4993
57.4975
57.495
57.4922
57.4835
57.4888
57.4936
57.4786
57.4839
57.4928
57.4844
57.4852
57.4853
57.4859
57.4843
57.4809
57.4742
57.4617
57.4635
57.4652
57.4523
57.4569
57.4602
57.4431
57.4455
57.4553
57.4468
57.4417
57.4397
57.4332
57.4397
57.4512
57.4391
57.4455
57.4515
57.4407
57.4461
57.4491
57.4465
57.4438
57.4306
57.4294
57.4259
57.4348
57.4496
57.4428
57.4447
57.4414
57.4399
57.4393
57.4397
57.4391
57.4297
57.4335
57.4411
57.43
57.4268
57.4371
57.4443
57.4432
57.4431
57.4378
57.4306
57.4356
57.4405
57.4371
57.4301
57.4236
57.4268
57.4232
57.4322
57.4395
57.4385
57.4383
57.4264
57.4307
57.4333
57.4199
55.0203
56.0459
56.8113
57.237
57.4258
57.5019
57.5068
57.5007
57.5014
57.5002
57.4975
57.4988
57.5006
57.4959
57.495
57.501
57.5025
57.4985
57.4982
57.4988
57.4993
57.4945
57.4851
57.4859
57.4932
57.493
57.49
57.488
57.4878
57.488
57.484
57.481
57.4747
57.4582
57.4514
57.4611
57.4641
57.4601
57.4498
57.4421
57.4474
57.4499
57.4468
57.4378
57.441
57.4431
57.4291
57.4298
57.4442
57.4493
57.4478
57.446
57.4445
57.4307
57.4324
57.4482
57.4485
57.4472
57.4344
57.4348
57.4475
57.4393
57.4455
57.4577
57.4494
57.4539
57.4621
57.4612
57.459
57.4573
57.4418
57.4419
57.4498
57.4498
57.4497
57.4435
57.4334
57.4357
57.4411
57.4389
57.4375
57.4289
57.4253
57.4153
57.4178
57.4285
57.4255
57.4248
57.4216
57.4118
55.0199
56.0476
56.8067
57.244
57.4299
57.4668
57.4658
57.4601
57.4545
57.4547
57.4459
57.4521
57.4616
57.4455
57.4495
57.4596
57.457
57.457
57.4525
57.4626
57.4727
57.4703
57.4709
57.4696
57.4624
57.4522
57.4502
57.4451
57.4503
57.4653
57.4657
57.4644
57.4491
57.4531
57.46
57.4591
57.4588
57.4532
57.451
57.4409
57.429
57.4244
57.4121
57.4153
57.4273
57.4252
57.4249
57.415
57.421
57.435
57.4342
57.4331
57.4183
57.4175
57.4328
57.4297
57.4359
57.4574
57.4578
57.4557
57.4569
57.4526
57.4367
57.4382
57.45
57.4458
57.4474
57.4478
57.4468
57.4445
57.4416
57.4329
57.4377
57.4415
57.4297
57.436
57.4417
57.4244
57.4248
57.4341
57.4336
57.4347
57.4358
57.4359
57.4297
57.4223
57.4314
57.4405
57.4369
57.4232
55.0194
56.0454
56.813
57.2387
57.4305
57.4897
57.4902
57.4988
57.5022
57.4996
57.4996
57.4988
57.4984
57.4889
57.4904
57.4939
57.4874
57.4936
57.4964
57.4839
57.489
57.4934
57.4903
57.4905
57.489
57.4866
57.4684
57.4636
57.472
57.4778
57.4753
57.4727
57.4709
57.4629
57.4551
57.4494
57.4378
57.4292
57.4291
57.4244
57.4226
57.4261
57.4197
57.4222
57.432
57.4218
57.4244
57.4349
57.4249
57.4317
57.4403
57.4394
57.4392
57.4238
57.4236
57.4376
57.4417
57.439
57.4303
57.436
57.4404
57.428
57.4324
57.4407
57.4253
57.4289
57.4394
57.4248
57.4255
57.437
57.4363
57.4408
57.4418
57.4392
57.43
57.433
57.438
57.4346
57.4227
57.4219
57.4356
57.4407
57.4387
57.4357
57.4339
57.4184
57.4223
57.4335
57.4308
57.4209
55.0179
56.0444
56.8188
57.2478
57.4069
57.4283
57.4284
57.4262
57.4309
57.4449
57.4465
57.4436
57.4284
57.4289
57.4576
57.47
57.4683
57.4624
57.4702
57.4829
57.469
57.4714
57.4895
57.4937
57.4918
57.4904
57.4874
57.4828
57.4748
57.4594
57.4623
57.4647
57.4626
57.4624
57.4563
57.4597
57.4599
57.4498
57.4481
57.4535
57.456
57.4534
57.4374
57.4401
57.4474
57.4433
57.445
57.4459
57.4444
57.4333
57.4223
57.4196
57.4117
57.4184
57.4318
57.433
57.43
57.417
57.4213
57.4292
57.4265
57.4169
57.4164
57.4285
57.4295
57.4286
57.4162
57.4152
57.4258
57.4327
57.4292
57.4295
57.4261
57.4256
57.4264
57.4207
57.4255
57.427
57.4159
57.4217
57.437
57.4358
57.4356
57.4291
57.4295
57.4269
57.4248
57.4197
57.4172
57.4104
55.0195
56.0454
56.8131
57.2377
57.4337
57.4853
57.4805
57.4896
57.4963
57.4944
57.4941
57.4841
57.4879
57.49
57.4859
57.487
57.4848
57.4841
57.4827
57.4821
57.4733
57.4774
57.4835
57.4834
57.4834
57.4806
57.4768
57.4718
57.4681
57.4565
57.4629
57.4721
57.4714
57.4708
57.4555
57.4585
57.4648
57.4551
57.4577
57.4618
57.4603
57.4586
57.4441
57.4473
57.4553
57.4405
57.4452
57.455
57.4543
57.4534
57.4347
57.4364
57.4408
57.4326
57.4317
57.4301
57.4175
57.4179
57.4304
57.4278
57.4294
57.4286
57.4183
57.4199
57.4342
57.4239
57.4294
57.4381
57.4228
57.4265
57.4393
57.4398
57.4392
57.4228
57.4219
57.4385
57.4414
57.4377
57.4239
57.4248
57.4387
57.441
57.4387
57.4364
57.4327
57.418
57.4224
57.4336
57.431
57.421
55.0178
56.0458
56.8143
57.2486
57.416
57.4471
57.4555
57.4542
57.4546
57.4459
57.4462
57.4678
57.4653
57.4751
57.4869
57.4874
57.4875
57.4722
57.4774
57.4854
57.4696
57.4743
57.483
57.4814
57.4817
57.4801
57.4763
57.4773
57.4787
57.4761
57.4752
57.4661
57.4617
57.455
57.4523
57.4488
57.4376
57.4406
57.4538
57.4415
57.4463
57.4539
57.4368
57.4397
57.4501
57.4514
57.4485
57.4454
57.4447
57.4325
57.4357
57.4374
57.4316
57.431
57.4297
57.4172
57.4196
57.4271
57.4139
57.4105
57.4229
57.4306
57.4278
57.4185
57.4219
57.4249
57.4158
57.4124
57.4256
57.4367
57.4363
57.436
57.4224
57.4264
57.432
57.4312
57.431
57.4175
57.4252
57.4434
57.4439
57.4434
57.4269
57.429
57.4368
57.4232
57.428
57.4417
57.4401
57.4313
55.0179
56.0429
56.8207
57.2483
57.406
57.427
57.4181
57.4201
57.4532
57.4681
57.4577
57.4651
57.4728
57.4627
57.4677
57.4695
57.462
57.4672
57.4698
57.4589
57.4649
57.4696
57.4634
57.4652
57.4623
57.4562
57.4501
57.4558
57.4627
57.4612
57.4609
57.4571
57.4503
57.4476
57.4455
57.4425
57.4402
57.4389
57.4384
57.4355
57.4321
57.43
57.4266
57.4155
57.4205
57.4319
57.421
57.4175
57.4248
57.4274
57.4187
57.4239
57.4381
57.4377
57.437
57.4237
57.4214
57.4317
57.4359
57.4342
57.4345
57.43
57.4134
57.4169
57.428
57.4198
57.4151
57.4249
57.4331
57.4325
57.4324
57.4258
57.4247
57.4157
57.4209
57.4388
57.4283
57.4352
57.4449
57.4447
57.4446
57.4365
57.4347
57.422
57.4237
57.4347
57.4294
57.4314
57.4284
57.4167
55.0194
56.045
56.8139
57.2466
57.4103
57.4308
57.4413
57.4468
57.4317
57.4312
57.449
57.4638
57.4617
57.4633
57.4619
57.4473
57.4478
57.4644
57.4658
57.4631
57.4498
57.4493
57.4665
57.4721
57.4706
57.4716
57.4667
57.4527
57.4467
57.4555
57.4587
57.4552
57.4437
57.4476
57.4537
57.4361
57.4369
57.4449
57.4398
57.4393
57.4373
57.4286
57.4219
57.4242
57.4248
57.4219
57.4315
57.4429
57.4415
57.4403
57.4339
57.4317
57.4289
57.4203
57.4205
57.4284
57.4303
57.4305
57.4183
57.4233
57.4367
57.4363
57.4353
57.4205
57.4207
57.4367
57.4527
57.4545
57.4512
57.4518
57.4501
57.4482
57.437
57.4346
57.4356
57.4262
57.4317
57.4446
57.4447
57.4447
57.4333
57.438
57.4421
57.4401
57.4386
57.4238
57.4274
57.4339
57.4304
57.4176
55.0201
56.0428
56.8168
57.2441
57.4135
57.4498
57.4513
57.4488
57.4484
57.4377
57.4414
57.4697
57.4657
57.4749
57.4861
57.4734
57.4799
57.4859
57.4766
57.4829
57.4867
57.4829
57.4731
57.4701
57.4733
57.4752
57.4732