/*--------------------------------*- C++ -*----------------------------------*\
  =========                 |
  \\      /  F ield         | OpenFOAM: The Open Source CFD Toolbox
   \\    /   O peration     | Website:  https://openfoam.org
    \\  /    A nd           | Version:  11
     \\/     M anipulation  |
\*---------------------------------------------------------------------------*/
FoamFile
{
    format      ascii;
    class       volScalarField;
    location    "0.052";
    object      p;
}
// * * * * * * * * * * * * * * * * * * * * * * * * * * * * * * * * * * * * * //

dimensions      [0 2 -2 0 0 0 0];

internalField   nonuniform List<scalar> 
287084
(
1.73646
1.45311
1.39023
1.32291
1.25425
1.20243
1.15343
1.10821
1.06389
1.02034
0.978412
0.936848
0.894411
0.850269
0.805193
0.760015
0.714516
0.668725
0.622819
0.577046
0.531593
0.486811
0.442922
0.400283
0.359103
0.319608
0.282858
0.249236
0.220111
0.19559
0.17406
0.152634
0.132462
0.116485
0.103957
0.094508
0.0878432
0.0836461
0.0816073
0.0814535
0.0829094
0.0856762
0.0894895
0.0941281
0.0993391
0.104916
0.110639
0.116355
0.12161
0.126076
0.129876
0.135448
0.142769
0.147343
0.151837
0.157534
0.161121
0.161863
0.161674
0.161812
0.161627
0.161126
0.16004
0.158511
0.156335
0.153989
0.151128
0.147277
0.142444
0.136447
0.129391
0.126031
0.12406
0.117035
0.111376
0.106643
0.101852
0.0981216
0.0920486
0.0835111
0.0746759
0.0649008
0.0550676
0.0468934
0.0385021
0.0319283
0.0253357
0.0156054
0.0058627
0.00175489
1.60108
1.4108
1.36029
1.30328
1.24305
1.19505
1.14856
1.10468
1.0617
1.01891
0.976799
0.934625
0.891461
0.847407
0.802735
0.757535
0.711921
0.665942
0.619825
0.573817
0.528147
0.483082
0.439069
0.396182
0.354459
0.315727
0.280919
0.247883
0.216862
0.190115
0.166128
0.144633
0.126213
0.111193
0.0992144
0.0901674
0.0838073
0.0799098
0.0781553
0.0782847
0.0800104
0.083038
0.0871003
0.0919796
0.0974173
0.103209
0.109169
0.115124
0.120872
0.126349
0.131681
0.137191
0.142556
0.146499
0.150552
0.155363
0.158337
0.159767
0.160751
0.16126
0.16117
0.160832
0.1598
0.158216
0.156562
0.153999
0.150656
0.1472
0.142813
0.137796
0.132507
0.12826
0.124184
0.118509
0.11249
0.106767
0.101403
0.0954978
0.0887296
0.0811675
0.0723352
0.0633959
0.0562905
0.04924
0.0408613
0.0328292
0.02453
0.0159638
0.0081152
0.00255185
1.57486
1.40391
1.35313
1.29735
1.2394
1.19158
1.14539
1.10147
1.05848
1.01584
0.97348
0.930824
0.887471
0.843298
0.798389
0.752868
0.706839
0.660431
0.613857
0.567347
0.521193
0.475696
0.431198
0.388104
0.346662
0.307341
0.270852
0.237337
0.206711
0.17923
0.15551
0.134566
0.116493
0.101784
0.0902251
0.0816229
0.0757768
0.0723873
0.0711747
0.0718401
0.0740921
0.0776415
0.0822182
0.0875723
0.0934654
0.0996932
0.106069
0.112433
0.118612
0.124572
0.130157
0.135528
0.140844
0.14555
0.149813
0.153721
0.156473
0.158476
0.159749
0.160451
0.160697
0.160299
0.159319
0.157865
0.155841
0.153575
0.150671
0.146925
0.142832
0.138336
0.133429
0.1288
0.124255
0.118716
0.11282
0.107122
0.101183
0.0949628
0.0881583
0.0804993
0.0726939
0.0646366
0.0564951
0.0489929
0.0414463
0.0334947
0.0251869
0.0163234
0.0075484
0.00206266
1.5281
1.37022
1.32513
1.27507
1.22298
1.17882
1.13547
1.09344
1.05172
1.00992
0.967774
0.925025
0.881474
0.837036
0.791823
0.745827
0.69925
0.652214
0.604942
0.557716
0.510805
0.464558
0.419357
0.37554
0.333537
0.293871
0.256914
0.222797
0.191913
0.164302
0.140076
0.119166
0.101621
0.0875221
0.0766413
0.0688093
0.0637279
0.0611617
0.0607709
0.0622631
0.0653178
0.0696495
0.0749726
0.0810387
0.0876015
0.0944591
0.101426
0.108342
0.115081
0.121546
0.127675
0.133446
0.138872
0.143702
0.14795
0.151739
0.154811
0.157077
0.158621
0.159523
0.159791
0.159551
0.15876
0.157373
0.155613
0.153245
0.150144
0.146683
0.142798
0.138407
0.13376
0.12895
0.12399
0.118603
0.112903
0.106958
0.100762
0.0943644
0.0875217
0.0803289
0.072814
0.0649235
0.0571558
0.0495068
0.0416155
0.0336308
0.0253431
0.0166554
0.00806099
0.00252013
1.50519
1.35528
1.31284
1.26445
1.2144
1.17108
1.12836
1.08664
1.0451
1.0033
0.961022
0.917985
0.874046
0.829147
0.783334
0.736656
0.689298
0.641366
0.593179
0.54494
0.497022
0.449776
0.403565
0.358861
0.316017
0.275578
0.237867
0.203223
0.171881
0.144037
0.119909
0.0993755
0.0824056
0.0689796
0.0589154
0.05198
0.0479039
0.0463712
0.0470484
0.0496083
0.0537244
0.0590906
0.0654081
0.0724105
0.0798554
0.0875371
0.0952742
0.102903
0.110294
0.117366
0.12402
0.130223
0.135942
0.141086
0.145632
0.149547
0.152714
0.155191
0.156988
0.158142
0.158677
0.158583
0.157889
0.156663
0.154847
0.15252
0.14976
0.14646
0.142696
0.138487
0.133937
0.129105
0.124018
0.118597
0.112865
0.106878
0.100629
0.0940829
0.0872593
0.0801061
0.0726875
0.0651057
0.057428
0.0496869
0.0418006
0.0337971
0.0254457
0.0167389
0.00805476
0.00245443
1.48148
1.33362
1.29305
1.24704
1.19964
1.15835
1.11731
1.07681
1.03603
0.994662
0.952437
0.909195
0.864884
0.8194
0.772901
0.725357
0.677008
0.628015
0.578626
0.529168
0.479964
0.431422
0.383983
0.338067
0.294182
0.25274
0.21423
0.178927
0.147208
0.119211
0.0951177
0.0749217
0.0585753
0.0459961
0.0369409
0.0311723
0.0283431
0.0281315
0.0301527
0.0340642
0.0395014
0.046145
0.0536858
0.0618428
0.0703697
0.0790604
0.0877222
0.0962031
0.104382
0.112153
0.119443
0.126198
0.132376
0.137917
0.14279
0.146984
0.150479
0.153243
0.155277
0.15663
0.15734
0.157417
0.156896
0.155784
0.154116
0.151922
0.14919
0.145952
0.142286
0.138197
0.133749
0.128962
0.123869
0.118454
0.112723
0.106716
0.100432
0.0938904
0.0870622
0.0799731
0.0726801
0.0651861
0.0575656
0.049853
0.0419728
0.0339619
0.0256642
0.0169944
0.00823572
0.00257841
1.46366
1.31812
1.2792
1.23439
1.18835
1.1479
1.10751
1.06738
1.02679
0.985372
0.942934
0.899288
0.854371
0.808151
0.760717
0.712109
0.662576
0.612223
0.561443
0.510464
0.45973
0.409659
0.36068
0.313362
0.268121
0.225544
0.186037
0.150018
0.117848
0.0896923
0.0657754
0.0460551
0.030488
0.0189083
0.0110657
0.00666407
0.00531636
0.00666485
0.0102767
0.0157733
0.0227745
0.0309309
0.0399173
0.049439
0.05924
0.0691068
0.078856
0.0883343
0.0974112
0.105998
0.114013
0.12141
0.128137
0.134163
0.139469
0.144037
0.147846
0.150906
0.153237
0.154864
0.155802
0.156079
0.155731
0.154778
0.153245
0.151157
0.148553
0.145448
0.141883
0.137885
0.133497
0.128746
0.123666
0.118261
0.112548
0.106542
0.100259
0.093711
0.08691
0.0798724
0.0726316
0.0651972
0.0576175
0.0499181
0.0420402
0.0340219
0.0257033
0.0170153
0.008275
0.00262594
1.44739
1.30236
1.26419
1.2205
1.17553
1.13602
1.09634
1.05673
1.01636
0.974948
0.932231
0.888087
0.842492
0.795365
0.746877
0.697023
0.64608
0.594222
0.541755
0.48906
0.436523
0.384637
0.33391
0.284889
0.238148
0.194203
0.153607
0.116776
0.0840969
0.0558158
0.0320954
0.0129451
-0.00173555
-0.0121324
-0.0185541
-0.0213593
-0.0209677
-0.0178089
-0.012348
-0.00500692
0.00379417
0.0136856
0.0243233
0.0353959
0.0466465
0.0578549
0.0688314
0.079429
0.089526
0.0990271
0.107862
0.115981
0.12335
0.129939
0.135736
0.140733
0.144936
0.148351
0.150994
0.152894
0.154083
0.15458
0.154423
0.153641
0.152255
0.150306
0.147825
0.144829
0.141362
0.137452
0.133139
0.128446
0.123401
0.118027
0.112338
0.106351
0.100083
0.0935517
0.086775
0.0797764
0.0725759
0.0651929
0.0576533
0.0499694
0.0421
0.0340814
0.0257196
0.0170173
0.00834951
0.00272126
1.4331
1.28866
1.25117
1.20811
1.1638
1.12477
1.08546
1.04598
1.00559
0.963917
0.920777
0.875988
0.829517
0.781358
0.731595
0.680311
0.627765
0.57412
0.519789
0.465089
0.410517
0.356597
0.303845
0.252948
0.204434
0.158995
0.117154
0.0794144
0.0462333
0.0178084
-0.00560164
-0.0240862
-0.0377094
-0.046746
-0.0515511
-0.0525324
-0.0501874
-0.0449845
-0.0374483
-0.028043
-0.0172195
-0.00539001
0.00708602
0.0198939
0.0327523
0.045443
0.0577794
0.0696112
0.0808254
0.0913315
0.101067
0.109992
0.11807
0.125286
0.131638
0.137129
0.141764
0.145563
0.148547
0.150754
0.152212
0.152946
0.152999
0.152396
0.151179
0.149376
0.147021
0.144142
0.140781
0.136962
0.132721
0.128088
0.123091
0.117756
0.112095
0.106135
0.099894
0.0933884
0.0866415
0.079667
0.0724997
0.0651484
0.0576296
0.0499677
0.0421302
0.0341256
0.025866
0.0172157
0.00833525
0.00260492
1.42007
1.27584
1.2387
1.19605
1.15215
1.11346
1.07433
1.03492
0.99434
0.952309
0.908591
0.863009
0.815561
0.766182
0.715026
0.662132
0.607783
0.552202
0.495747
0.438866
0.382019
0.325808
0.270842
0.217799
0.16739
0.120253
0.0770669
0.0383722
0.00461243
-0.0238847
-0.0469733
-0.0646555
-0.0770968
-0.0846012
-0.0875735
-0.0865222
-0.0819805
-0.0745116
-0.0646705
-0.0529903
-0.0399594
-0.0260056
-0.0115203
0.003165
0.017775
0.0320763
0.0458792
0.0590512
0.0714722
0.0830646
0.0937729
0.103555
0.112399
0.120291
0.127242
0.13326
0.138363
0.14258
0.145938
0.148469
0.150211
0.151197
0.151471
0.151071
0.150023
0.148371
0.146153
0.143396
0.140136
0.13641
0.132248
0.127682
0.122743
0.117452
0.111829
0.105904
0.0996941
0.0932194
0.0865019
0.0795614
0.0724212
0.0651019
0.0576109
0.0499621
0.0421226
0.0341405
0.0257842
0.0170697
0.00836854
0.00272676
1.40813
1.26404
1.2271
1.18472
1.14102
1.10245
1.06334
1.02376
0.982895
0.940353
0.895924
0.849451
0.800853
0.750145
0.697402
0.642743
0.586425
0.528674
0.469939
0.41062
0.351298
0.292608
0.235188
0.179878
0.127331
0.0784153
0.0337604
-0.00597384
-0.040274
-0.0688638
-0.0914891
-0.108277
-0.119367
-0.125157
-0.126126
-0.122836
-0.115917
-0.10598
-0.0936599
-0.0795228
-0.0641028
-0.0478713
-0.0312333
-0.0145343
0.00193366
0.0179444
0.0333137
0.0478955
0.0615915
0.0743274
0.0860617
0.0967624
0.106416
0.115031
0.122617
0.129198
0.134796
0.139449
0.143195
0.146067
0.14811
0.14936
0.149871
0.149673
0.14881
0.147317
0.145237
0.142602
0.139455
0.135825
0.131743
0.127249
0.122367
0.117125
0.111546
0.105662
0.0994831
0.0930372
0.0863527
0.0794391
0.0723265
0.065031
0.0575555
0.0499292
0.0421114
0.0341262
0.0258188
0.0171311
0.00836746
0.00270862
1.39709
1.25304
1.21623
1.17395
1.1303
1.09171
1.05247
1.01265
0.971322
0.928162
0.88293
0.835399
0.78557
0.733376
0.678948
0.622372
0.563928
0.503886
0.44266
0.38078
0.318775
0.257411
0.197399
0.139588
0.0848378
0.0339672
-0.0122063
-0.0530088
-0.0878922
-0.116475
-0.138622
-0.154376
-0.163995
-0.167919
-0.166695
-0.160992
-0.151497
-0.138925
-0.123946
-0.107207
-0.0892747
-0.0706381
-0.0517417
-0.0329399
-0.0145228
0.00327393
0.0202662
0.0363291
0.0513596
0.065289
0.0780865
0.0897341
0.100232
0.109588
0.117831
0.124992
0.13111
0.136219
0.140363
0.14359
0.145945
0.147469
0.148218
0.148233
0.147552
0.146223
0.144286
0.141781
0.138743
0.135208
0.131212
0.126786
0.121968
0.116781
0.11125
0.105403
0.0992598
0.0928537
0.0861984
0.0793155
0.0722247
0.0649469
0.0575038
0.0498861
0.0420782
0.0341163
0.0258133
0.0171252
0.00835969
0.00270425
1.38688
1.24283
1.20602
1.16378
1.12009
1.08134
1.04187
1.00167
0.959812
0.915943
0.869761
0.821128
0.76993
0.716174
0.659925
0.601325
0.540622
0.478123
0.414301
0.349648
0.284863
0.220667
0.157902
0.0975252
0.0403994
-0.0124515
-0.060225
-0.102114
-0.137523
-0.166103
-0.187626
-0.202264
-0.210261
-0.21217
-0.208621
-0.200359
-0.188171
-0.172832
-0.155091
-0.135635
-0.115082
-0.0939626
-0.0727299
-0.0517534
-0.0313304
-0.0117013
0.00696301
0.0245304
0.0409164
0.0560652
0.0699522
0.0825689
0.0939255
0.104049
0.112969
0.120727
0.127365
0.132936
0.13749
0.141075
0.143744
0.145544
0.146536
0.146765
0.146276
0.145109
0.143321
0.14094
0.138011
0.134576
0.130665
0.126318
0.121559
0.116427
0.110949
0.105143
0.0990393
0.0926587
0.0860331
0.0791818
0.0721207
0.0648674
0.0574338
0.049842
0.0420532
0.0340885
0.0257841
0.0171048
0.00836231
0.00273091
1.37741
1.23333
1.19648
1.1542
1.11033
1.07139
1.03158
0.990957
0.948462
0.903784
0.85663
0.806766
0.754163
0.698738
0.640617
0.57989
0.516856
0.45182
0.385268
0.317803
0.25006
0.182971
0.117349
0.0542787
-0.00524042
-0.0601649
-0.109531
-0.1525
-0.188427
-0.216899
-0.237768
-0.251168
-0.257461
-0.257251
-0.251255
-0.240332
-0.22534
-0.207145
-0.186558
-0.164327
-0.141107
-0.117456
-0.0938523
-0.0706735
-0.0482283
-0.026745
-0.00639745
0.0126938
0.0304494
0.0468245
0.0618044
0.075398
0.0876211
0.0985078
0.108102
0.116454
0.123622
0.129658
0.134614
0.138556
0.141539
0.143621
0.144859
0.145299
0.144994
0.143996
0.142351
0.140098
0.137281
0.133941
0.130113
0.12584
0.121149
0.116072
0.110641
0.104876
0.0988084
0.0924695
0.0858731
0.079044
0.0720066
0.0647691
0.0573535
0.0497697
0.041989
0.0340531
0.0257396
0.017062
0.00835658
0.00273991
1.36866
1.22455
1.18761
1.14523
1.10119
1.06194
1.02174
0.98058
0.93743
0.891894
0.843689
0.792587
0.738498
0.681379
0.621301
0.558413
0.492964
0.425334
0.356018
0.285619
0.214943
0.144841
0.0763496
0.0105693
-0.0513966
-0.108362
-0.159324
-0.203334
-0.239711
-0.268037
-0.288143
-0.300245
-0.30473
-0.30232
-0.293823
-0.280179
-0.26235
-0.241273
-0.217819
-0.192798
-0.166906
-0.140724
-0.114753
-0.0893858
-0.0649259
-0.041606
-0.0195874
0.00101207
0.0201211
0.0377108
0.0537708
0.0683221
0.0813977
0.0930424
0.103304
0.112245
0.119929
0.126425
0.131787
0.136083
0.139381
0.141732
0.143205
0.143854
0.143736
0.142897
0.141393
0.139263
0.136554
0.133311
0.12957
0.125369
0.120737
0.115716
0.110335
0.104614
0.098587
0.0922741
0.0857082
0.0789107
0.0718955
0.0646856
0.057288
0.0497286
0.0419598
0.0340241
0.0257246
0.0170632
0.00835838
0.00273982
1.36062
1.21646
1.17943
1.13689
1.09259
1.05304
1.01238
0.970708
0.926843
0.880417
0.831134
0.778754
0.723175
0.664336
0.602316
0.53724
0.469403
0.39916
0.327058
0.253776
0.180084
0.107047
0.0356457
-0.0328253
-0.0971983
-0.156181
-0.208673
-0.253677
-0.290441
-0.318542
-0.337837
-0.348569
-0.351226
-0.346595
-0.33558
-0.31922
-0.298562
-0.27462
-0.248338
-0.22057
-0.192046
-0.163387
-0.1351
-0.107586
-0.0811575
-0.0560411
-0.0323944
-0.0103269
0.0100995
0.0288668
0.0459816
0.061468
0.0753726
0.08775
0.0986637
0.108177
0.116363
0.123297
0.129046
0.133683
0.137275
0.139893
0.141603
0.142457
0.142513
0.141835
0.140466
0.138456
0.135854
0.132701
0.129038
0.124912
0.120346
0.115373
0.110033
0.104352
0.0983637
0.0920856
0.0855461
0.078771
0.071779
0.0645809
0.0571982
0.049645
0.0418918
0.0339718
0.0256915
0.0170397
0.00834364
0.00274592
1.35329
1.2091
1.17195
1.12923
1.0847
1.04478
1.00366
0.961442
0.916836
0.869498
0.819162
0.765509
0.70846
0.647914
0.583967
0.516745
0.446523
0.373726
0.29889
0.222736
0.146158
0.0701762
-0.00400624
-0.0751113
-0.1418
-0.202711
-0.25666
-0.302553
-0.339641
-0.367446
-0.385883
-0.395226
-0.396038
-0.389198
-0.375706
-0.356691
-0.333283
-0.306569
-0.277552
-0.247131
-0.216081
-0.185034
-0.154522
-0.124954
-0.096641
-0.0698095
-0.0446092
-0.0211367
0.00054649
0.0204382
0.0385557
0.0549322
0.0696228
0.0827057
0.0942346
0.104294
0.112963
0.120316
0.126437
0.131403
0.135283
0.138152
0.140081
0.141125
0.141352
0.14082
0.139582
0.137687
0.135186
0.132121
0.128535
0.124473
0.119963
0.115044
0.109748
0.104109
0.0981573
0.0919087
0.085397
0.0786433
0.0716695
0.0644996
0.0571345
0.0496099
0.0418565
0.0339421
0.0256284
0.0169808
0.00836265
0.00277249
1.34671
1.20244
1.16517
1.1223
1.07747
1.03722
0.995528
0.952815
0.907567
0.859343
0.807933
0.753062
0.694565
0.632404
0.566594
0.497306
0.424821
0.349547
0.272088
0.193198
0.113803
0.0350683
-0.0418321
-0.115394
-0.184295
-0.247001
-0.30228
-0.348984
-0.386292
-0.41377
-0.431312
-0.439283
-0.438304
-0.429341
-0.41348
-0.391931
-0.36591
-0.336566
-0.304959
-0.272038
-0.238601
-0.205311
-0.17271
-0.141211
-0.111128
-0.0826854
-0.0560249
-0.0312424
-0.00837928
0.0125666
0.0316218
0.0488338
0.0642707
0.0779994
0.0901046
0.100674
0.109788
0.117535
0.124001
0.129269
0.133417
0.13652
0.138654
0.13988
0.140266
0.139878
0.138759
0.136969
0.134564
0.131583
0.128066
0.124063
0.119607
0.114734
0.109483
0.103878
0.0979535
0.091732
0.0852438
0.078512
0.0715575
0.0644032
0.0570489
0.0495294
0.0417902
0.0339032
0.0256235
0.0170236
0.00834452
0.00271045
1.34088
1.19655
1.15914
1.11611
1.07105
1.03043
0.98836
0.945011
0.899012
0.850021
0.79765
0.741613
0.681788
0.618064
0.550522
0.479283
0.404645
0.327078
0.247148
0.165693
0.0837053
0.00234359
-0.077008
-0.152901
-0.223788
-0.288138
-0.344607
-0.391973
-0.429456
-0.456534
-0.473217
-0.479856
-0.477177
-0.466208
-0.448132
-0.424233
-0.395796
-0.364031
-0.330049
-0.294832
-0.259208
-0.223862
-0.189343
-0.156078
-0.124374
-0.0944541
-0.0664635
-0.040476
-0.0165344
0.00537305
0.0252837
0.0432573
0.0593627
0.0736979
0.0863318
0.0973648
0.10689
0.114995
0.12178
0.127326
0.13172
0.135037
0.137357
0.138748
0.139278
0.139012
0.138007
0.136314
0.133992
0.131085
0.127636
0.123688
0.119281
0.114453
0.109237
0.103667
0.0977739
0.0915813
0.085118
0.0784037
0.0714667
0.0643327
0.0569947
0.0495002
0.0417733
0.0338837
0.0256237
0.0169687
0.00831138
0.00273356
1.3358
1.19144
1.15393
1.11072
1.06541
1.02447
0.982001
0.938078
0.891518
0.841751
0.788468
0.731373
0.67031
0.605199
0.536065
0.463058
0.386497
0.306794
0.224651
0.140853
0.0564871
-0.0271915
-0.108827
-0.186738
-0.25945
-0.325214
-0.382704
-0.430649
-0.468195
-0.494897
-0.510733
-0.516143
-0.511912
-0.499135
-0.479064
-0.453054
-0.422451
-0.388513
-0.352402
-0.315129
-0.277549
-0.240367
-0.204143
-0.1693
-0.136154
-0.104923
-0.0757411
-0.0486892
-0.0237881
-0.00101739
0.0196664
0.0383188
0.0550234
0.0698761
0.0829765
0.0944213
0.10431
0.112738
0.119801
0.125595
0.130206
0.133714
0.136201
0.137739
0.138397
0.138245
0.137336
0.135733
0.133486
0.130643
0.127248
0.123349
0.11899
0.114199
0.109021
0.103477
0.0976065
0.0914343
0.0849885
0.0782944
0.071372
0.0642465
0.0569196
0.0494252
0.041713
0.0338369
0.0255849
0.0169571
0.00829809
0.0027353
1.33156
1.18711
1.14947
1.10616
1.06063
1.01942
0.976491
0.932193
0.885126
0.834663
0.78056
0.72253
0.660394
0.59403
0.523509
0.448945
0.370657
0.289135
0.205028
0.119203
0.0327835
-0.0529691
-0.136518
-0.21623
-0.290466
-0.357446
-0.41578
-0.464147
-0.501747
-0.528043
-0.543125
-0.547444
-0.541834
-0.527473
-0.505666
-0.477824
-0.445351
-0.409549
-0.371608
-0.332572
-0.293312
-0.254556
-0.216861
-0.180667
-0.146281
-0.113919
-0.0837209
-0.0557487
-0.0300246
-0.00652026
0.0148112
0.034049
0.0512762
0.066592
0.080093
0.0918939
0.102095
0.110798
0.118106
0.124111
0.128911
0.13258
0.135213
0.136877
0.137646
0.137588
0.136764
0.135231
0.133054
0.130269
0.126923
0.123067
0.118742
0.113985
0.108829
0.103316
0.0974725
0.0913216
0.0848943
0.0782116
0.0713053
0.0641929
0.0568787
0.0494087
0.0416939
0.0338245
0.025578
0.0169464
0.00830071
0.00273409
1.3281
1.18363
1.1459
1.10246
1.05675
1.01528
0.97209
0.927375
0.879828
0.828788
0.774047
0.715234
0.652193
0.584815
0.513127
0.43727
0.357583
0.274495
0.18877
0.101233
0.0130942
-0.0743302
-0.15952
-0.240646
-0.316192
-0.384092
-0.443078
-0.491805
-0.529381
-0.555343
-0.569768
-0.573154
-0.566412
-0.550739
-0.527503
-0.49816
-0.464151
-0.426808
-0.387363
-0.346875
-0.30624
-0.266188
-0.227292
-0.189985
-0.154581
-0.121297
-0.090254
-0.0615308
-0.0351298
-0.0110225
0.0108507
0.0305706
0.0482227
0.0639024
0.0777344
0.0898242
0.100284
0.109214
0.116718
0.122897
0.127845
0.131651
0.134398
0.136166
0.137021
0.137043
0.136289
0.13482
0.13269
0.129951
0.126648
0.122827
0.118537
0.113805
0.108676
0.103179
0.0973491
0.0912148
0.0847983
0.0781326
0.0712343
0.0641277
0.0568258
0.0493509
0.0416491
0.0337799
0.0255349
0.0169123
0.00828967
0.00274766
1.3255
1.181
1.14319
1.09967
1.05379
1.01216
0.968648
0.923706
0.875833
0.824347
0.769049
0.709641
0.645899
0.577705
0.505117
0.428261
0.347452
0.263201
0.176212
0.0873749
-0.00207815
-0.0908142
-0.17724
-0.259477
-0.336067
-0.404598
-0.464029
-0.512997
-0.550583
-0.576246
-0.590154
-0.592835
-0.585196
-0.568514
-0.544178
-0.513683
-0.478498
-0.439988
-0.399394
-0.357801
-0.316115
-0.275079
-0.235263
-0.197109
-0.160926
-0.126935
-0.0952581
-0.0659556
-0.0390382
-0.0144677
0.00781456
0.0279018
0.0458774
0.0618462
0.0759276
0.0882418
0.0988927
0.107995
0.115654
0.121965
0.127033
0.130939
0.13378
0.135622
0.136549
0.136631
0.135931
0.134505
0.132418
0.129715
0.12644
0.12265
0.118377
0.113667
0.108554
0.103075
0.0972594
0.0911373
0.0847377
0.0780799
0.0711959
0.0640978
0.0568016
0.0493414
0.0416406
0.0337842
0.0255351
0.0168976
0.00828589
0.00275171
1.32376
1.17923
1.14136
1.09778
1.05181
1.01003
0.966387
0.921214
0.873074
0.821294
0.765672
0.705842
0.641625
0.572912
0.499702
0.422158
0.340615
0.255537
0.167683
0.07795
-0.0124232
-0.102017
-0.189337
-0.272279
-0.349634
-0.418629
-0.478121
-0.527279
-0.564909
-0.590383
-0.603942
-0.606119
-0.597891
-0.580522
-0.555444
-0.524167
-0.48819
-0.448887
-0.407517
-0.365179
-0.322785
-0.28108
-0.240643
-0.201917
-0.16521
-0.13074
-0.0986315
-0.0689414
-0.0416732
-0.0167957
0.00576407
0.0260938
0.0442864
0.0604486
0.0747057
0.0871698
0.0979591
0.107178
0.11494
0.12134
0.126485
0.130464
0.133364
0.135261
0.13623
0.136349
0.135681
0.134293
0.13223
0.129547
0.126297
0.122523
0.11827
0.113574
0.108474
0.103003
0.0971953
0.0910865
0.0846871
0.0780371
0.0711584
0.0640639
0.0567725
0.0493093
0.0416236
0.0337653
0.0255754
0.0169832
0.00825415
0.00267318
1.32289
1.17834
1.14045
1.09684
1.05082
1.00897
0.965282
0.919966
0.871661
0.819778
0.763959
0.703924
0.639468
0.570454
0.49694
0.419052
0.337115
0.251647
0.16336
0.0731874
-0.017634
-0.107694
-0.195406
-0.278806
-0.356467
-0.425824
-0.485222
-0.534411
-0.572137
-0.597483
-0.610869
-0.612809
-0.604269
-0.586557
-0.561104
-0.529438
-0.493062
-0.453364
-0.411609
-0.368898
-0.326143
-0.284102
-0.243353
-0.204335
-0.167366
-0.132658
-0.100332
-0.0704465
-0.0430038
-0.0179608
0.00474115
0.0251932
0.0434924
0.0597515
0.0740926
0.0866308
0.0974821
0.106761
0.114577
0.121023
0.126207
0.130217
0.133146
0.135067
0.136064
0.136206
0.135559
0.134182
0.132137
0.129469
0.126225
0.122461
0.118211
0.113523
0.108427
0.102965
0.0971637
0.0910533
0.0846634
0.0780176
0.0711462
0.064058
0.0567678
0.0493107
0.0416165
0.0337618
0.0255393
0.0169025
0.00826524
0.00272615
1.32289
1.17834
1.14045
1.09684
1.05082
1.00897
0.965282
0.919958
0.871658
0.819769
0.763954
0.703929
0.639463
0.570474
0.496952
0.419065
0.337138
0.251653
0.163369
0.0731936
-0.0176305
-0.107686
-0.195405
-0.278791
-0.356452
-0.425804
-0.485198
-0.534393
-0.572113
-0.597466
-0.610848
-0.612784
-0.604248
-0.586537
-0.561085
-0.529416
-0.49304
-0.453343
-0.411593
-0.368883
-0.32613
-0.284091
-0.243342
-0.204329
-0.16736
-0.132652
-0.100327
-0.0704383
-0.0429972
-0.0179622
0.00473545
0.0251856
0.0434882
0.0597468
0.0740903
0.0866279
0.097483
0.106764
0.114578
0.121022
0.126209
0.130223
0.133151
0.135074
0.136067
0.136206
0.135553
0.134177
0.132131
0.129462
0.126221
0.122456
0.118211
0.11352
0.108427
0.102961
0.0971575
0.0910492
0.0846565
0.0780131
0.071137
0.0640476
0.0567623
0.0492977
0.0416077
0.0337488
0.0255157
0.0169045
0.00828108
0.0027354
1.32376
1.17923
1.14136
1.09779
1.05183
1.01005
0.966453
0.921212
0.873028
0.821288
0.765673
0.705836
0.641631
0.572898
0.499694
0.422163
0.340605
0.255551
0.167695
0.0779865
-0.0123848
-0.101979
-0.189278
-0.272234
-0.349589
-0.418589
-0.478039
-0.527205
-0.564837
-0.590309
-0.60387
-0.606055
-0.597828
-0.580464
-0.555386
-0.524112
-0.488136
-0.448841
-0.407478
-0.365146
-0.322756
-0.28105
-0.240617
-0.201893
-0.165191
-0.130726
-0.0986172
-0.0689285
-0.041664
-0.0167834
0.00577988
0.0261135
0.044303
0.0604578
0.0747104
0.087171
0.0979553
0.107173
0.114935
0.121337
0.126481
0.130458
0.133354
0.135248
0.136222
0.136342
0.135677
0.134282
0.132221
0.12954
0.126286
0.122513
0.118255
0.113559
0.108458
0.102988
0.0971842
0.091068
0.0846745
0.0780257
0.0711499
0.0640596
0.0567674
0.0493119
0.0416175
0.0337636
0.0255388
0.0168995
0.00825823
0.00272344
1.3255
1.181
1.1432
1.09967
1.05381
1.01216
0.968753
0.923697
0.875737
0.824316
0.76904
0.709643
0.645896
0.577725
0.505138
0.428282
0.347492
0.263229
0.176249
0.0874173
-0.00203872
-0.0907514
-0.177189
-0.259394
-0.335986
-0.404494
-0.463917
-0.512897
-0.550463
-0.57614
-0.590037
-0.592722
-0.585086
-0.568411
-0.544082
-0.513591
-0.478413
-0.439911
-0.399326
-0.35774
-0.31606
-0.27503
-0.235219
-0.19707
-0.160892
-0.126905
-0.0952335
-0.0659357
-0.0390222
-0.0144567
0.00782265
0.0279058
0.0458778
0.0618412
0.0759246
0.0882372
0.0988913
0.107994
0.115654
0.121964
0.12703
0.13094
0.133775
0.135618
0.136546
0.136624
0.135918
0.134493
0.132401
0.129695
0.126424
0.12263
0.118359
0.113645
0.108532
0.10305
0.0972324
0.0911131
0.0847112
0.0780577
0.0711762
0.0640755
0.0567837
0.0493156
0.0416319
0.0337722
0.0255719
0.0169695
0.00826103
0.00269758
1.3281
1.18364
1.1459
1.10247
1.05676
1.0153
0.972143
0.927369
0.879788
0.828782
0.774049
0.715232
0.652205
0.584827
0.513138
0.437299
0.357591
0.274546
0.18881
0.101299
0.0131705
-0.0742519
-0.159411
-0.240556
-0.316055
-0.383981
-0.442936
-0.491654
-0.529226
-0.555189
-0.569615
-0.573005
-0.56627
-0.550602
-0.527372
-0.498037
-0.464032
-0.426706
-0.387271
-0.346788
-0.306164
-0.266119
-0.227232
-0.189932
-0.154537
-0.12126
-0.0902221
-0.0615044
-0.0351082
-0.0110044
0.0108628
0.0305826
0.0482313
0.0639065
0.0777348
0.0898224
0.100279
0.109209
0.116715
0.122892
0.127838
0.131645
0.134392
0.136155
0.137012
0.137029
0.136277
0.134803
0.13267
0.129932
0.126625
0.122804
0.118504
0.113772
0.108645
0.103149
0.0973186
0.091181
0.0847694
0.0781032
0.0712109
0.0641081
0.0568077
0.0493422
0.0416382
0.033785
0.0255483
0.016916
0.00826906
0.00272662
1.33154
1.18712
1.14949
1.10616
1.06064
1.01942
0.976594
0.932188
0.885045
0.834635
0.780555
0.722535
0.660399
0.594054
0.523538
0.448979
0.370718
0.289182
0.205093
0.119273
0.0328599
-0.0528552
-0.136417
-0.21609
-0.290324
-0.357288
-0.415597
-0.463978
-0.501542
-0.527863
-0.542926
-0.547256
-0.54165
-0.527299
-0.505504
-0.477675
-0.445212
-0.409421
-0.37149
-0.332464
-0.293214
-0.25447
-0.216786
-0.180599
-0.146223
-0.11387
-0.083679
-0.0557157
-0.029997
-0.00649753
0.0148308
0.0340623
0.0512814
0.0665865
0.0800873
0.0918882
0.102088
0.110795
0.118107
0.124113
0.128906
0.132576
0.135203
0.136868
0.137637
0.137575
0.136747
0.135213
0.133026
0.130237
0.126894
0.123036
0.118707
0.113946
0.108791
0.10327
0.0974206
0.0912696
0.0848432
0.0781676
0.0712628
0.064149
0.0568415
0.0493644
0.0416659
0.0337974
0.0255782
0.0169703
0.00827683
0.00269999
1.3358
1.19144
1.15392
1.11072
1.06541
1.02449
0.982025
0.938094
0.89149
0.841741
0.788476
0.731381
0.670335
0.605229
0.536096
0.463106
0.38653
0.306861
0.224718
0.140941
0.0566041
-0.027091
-0.108671
-0.186615
-0.259263
-0.325046
-0.382501
-0.430438
-0.467983
-0.494677
-0.51052
-0.515925
-0.511705
-0.498933
-0.478873
-0.452876
-0.422279
-0.388357
-0.352259
-0.314996
-0.277433
-0.240263
-0.204052
-0.169221
-0.136087
-0.104866
-0.0756944
-0.0486538
-0.0237601
-0.000998831
0.0196715
0.0383246
0.0550297
0.0698792
0.0829749
0.0944191
0.104307
0.112737
0.119804
0.125594
0.1302
0.133705
0.136193
0.137727
0.138384
0.138226
0.137319
0.13571
0.133457
0.130611
0.127215
0.123313
0.118943
0.114151
0.108969
0.103428
0.0975551
0.091382
0.0849365
0.0782423
0.0713244
0.0642055
0.0568833
0.0493967
0.0416739
0.0338006
0.0255284
0.0168941
0.00830607
0.0027617
1.34087
1.19655
1.15913
1.11612
1.07104
1.03042
0.988355
0.944989
0.899041
0.850038
0.797657
0.741632
0.681805
0.6181
0.55057
0.479331
0.404723
0.327143
0.247244
0.165803
0.0838128
0.00249158
-0.0768741
-0.152723
-0.223609
-0.287939
-0.344379
-0.391756
-0.429204
-0.4563
-0.472965
-0.479609
-0.476938
-0.465983
-0.447922
-0.424039
-0.395615
-0.363864
-0.329893
-0.294691
-0.259076
-0.223748
-0.189243
-0.155988
-0.124294
-0.0943856
-0.0664066
-0.040434
-0.0164994
0.00540716
0.0253127
0.0432789
0.0593814
0.0736999
0.0863257
0.0973548
0.106875
0.114989
0.121776
0.127321
0.131711
0.135028
0.137344
0.138735
0.139267
0.138997
0.137985
0.136292
0.133962
0.131046
0.127591
0.123639
0.119228
0.114395
0.109178
0.1036
0.0977018
0.0915053
0.0850416
0.0783317
0.0713978
0.0642626
0.0569316
0.0494342
0.0417055
0.0338232
0.0255394
0.0168982
0.0083092
0.00277003
1.34672
1.20244
1.16513
1.12232
1.07748
1.03722
0.995614
0.952847
0.907504
0.859321
0.807948
0.753072
0.694602
0.632436
0.566642
0.497362
0.424881
0.34962
0.272184
0.193291
0.113946
0.0351837
-0.0416489
-0.115241
-0.18408
-0.246797
-0.302043
-0.348732
-0.386041
-0.413502
-0.431058
-0.43902
-0.438059
-0.429096
-0.413245
-0.391712
-0.365699
-0.336372
-0.304787
-0.271879
-0.238458
-0.205182
-0.172596
-0.141109
-0.111042
-0.082607
-0.055962
-0.0311929
-0.0083369
0.012599
0.0316428
0.0488465
0.064275
0.0780002
0.0901033
0.100671
0.109784
0.11753
0.123997
0.129261
0.133409
0.13651
0.138643
0.139866
0.140252
0.139856
0.138737
0.136941
0.13453
0.131542
0.128018
0.124008
0.119543
0.114666
0.109409
0.103803
0.0978711
0.0916491
0.0851608
0.0784349
0.0714828
0.064332
0.0569861
0.0494766
0.0417458
0.0338541
0.0256161
0.0170067
0.00830718
0.0027087
1.35328
1.2091
1.17194
1.12924
1.08468
1.04478
1.00364
0.961454
0.91685
0.869528
0.819162
0.765539
0.708477
0.647953
0.584023
0.516802
0.44661
0.373816
0.298992
0.222866
0.146285
0.070336
-0.00383558
-0.074924
-0.141585
-0.202495
-0.25641
-0.302306
-0.339369
-0.367175
-0.385609
-0.394948
-0.395775
-0.388943
-0.375464
-0.356461
-0.333069
-0.306374
-0.277372
-0.246969
-0.215928
-0.184905
-0.154406
-0.124851
-0.0965471
-0.0697261
-0.0445395
-0.021079
0.000596684
0.0204798
0.0385861
0.0549553
0.0696373
0.082708
0.0942345
0.104292
0.112954
0.120306
0.126427
0.131394
0.135273
0.13814
0.14007
0.141113
0.141338
0.140805
0.139561
0.13766
0.13515
0.132075
0.128481
0.124411
0.119891
0.114964
0.109659
0.104012
0.0980518
0.0918018
0.0852905
0.0785374
0.0715673
0.0644009
0.0570403
0.0495197
0.041777
0.0338756
0.025609
0.0169387
0.00830341
0.0027504
1.36062
1.21646
1.17941
1.13689
1.0926
1.05304
1.01238
0.97072
0.926848
0.88042
0.831147
0.778778
0.723207
0.664384
0.602368
0.537311
0.469474
0.399238
0.327174
0.253866
0.180248
0.107172
0.035837
-0.0326471
-0.0969762
-0.155961
-0.208423
-0.25341
-0.290169
-0.318254
-0.33756
-0.348287
-0.350961
-0.346326
-0.335325
-0.31898
-0.298337
-0.274414
-0.248151
-0.220398
-0.19189
-0.163246
-0.134974
-0.107467
-0.0810536
-0.0559491
-0.0323186
-0.0102662
0.0101532
0.0289075
0.0460097
0.0614848
0.075381
0.0877563
0.0986646
0.108174
0.116361
0.12329
0.129037
0.133672
0.137266
0.139881
0.141589
0.142443
0.1425
0.141813
0.140442
0.138425