/*--------------------------------*- C++ -*----------------------------------*\
  =========                 |
  \\      /  F ield         | OpenFOAM: The Open Source CFD Toolbox
   \\    /   O peration     | Website:  https://openfoam.org
    \\  /    A nd           | Version:  11
     \\/     M anipulation  |
\*---------------------------------------------------------------------------*/
FoamFile
{
    format      ascii;
    class       volScalarField;
    location    "0.086";
    object      k;
}
// * * * * * * * * * * * * * * * * * * * * * * * * * * * * * * * * * * * * * //

dimensions      [0 2 -2 0 0 0 0];

internalField   nonuniform List<scalar> 
287084
(
0.381538
0.393937
0.407114
0.419865
0.430096
0.436715
0.439814
0.440473
0.440477
0.440509
0.440472
0.440362
0.440416
0.440602
0.440553
0.440602
0.440667
0.440659
0.440679
0.440661
0.440619
0.440486
0.440494
0.440812
0.440857
0.440837
0.44083
0.440695
0.440664
0.440743
0.440863
0.440827
0.440676
0.440729
0.440752
0.440692
0.440689
0.440673
0.440663
0.440606
0.440477
0.440425
0.440322
0.440275
0.440196
0.440152
0.440114
0.440053
0.440011
0.439949
0.439764
0.439774
0.439983
0.439981
0.440007
0.439964
0.439941
0.439925
0.439848
0.439752
0.439835
0.439927
0.439891
0.439769
0.439818
0.440147
0.440164
0.440115
0.439952
0.43998
0.440074
0.440082
0.440084
0.439902
0.43995
0.440112
0.440011
0.440101
0.440161
0.440161
0.440161
0.440015
0.439971
0.440137
0.440275
0.440248
0.440251
0.440259
0.440227
0.439942
0.381554
0.393934
0.406939
0.419612
0.429891
0.436694
0.439987
0.440696
0.440635
0.440768
0.441038
0.440908
0.440995
0.441073
0.441074
0.441075
0.441004
0.440858
0.440842
0.440866
0.440805
0.440758
0.440922
0.44126
0.441185
0.441276
0.441325
0.441256
0.441249
0.441262
0.441243
0.441031
0.440932
0.44091
0.440788
0.440857
0.440898
0.440868
0.440854
0.440664
0.440704
0.440759
0.440739
0.440735
0.440662
0.440629
0.440432
0.440433
0.440602
0.440619
0.440628
0.440583
0.44055
0.440519
0.440507
0.44044
0.440336
0.440283
0.440251
0.440217
0.440174
0.440107
0.440266
0.44041
0.440405
0.440403
0.44025
0.440344
0.440485
0.440463
0.440429
0.440356
0.440444
0.440464
0.440515
0.44058
0.440534
0.440544
0.440526
0.440348
0.440385
0.440468
0.440404
0.440398
0.440346
0.440348
0.440336
0.44036
0.440358
0.440221
0.381557
0.393931
0.406899
0.419638
0.429831
0.436535
0.440031
0.440981
0.441
0.441025
0.441023
0.440897
0.440942
0.441015
0.440969
0.440962
0.440843
0.440965
0.441174
0.4412
0.441165
0.44109
0.441018
0.44115
0.441319
0.44131
0.441286
0.441268
0.441272
0.441184
0.441196
0.441191
0.441206
0.441151
0.441121
0.441109
0.441112
0.441091
0.44099
0.440915
0.44083
0.440565
0.440548
0.440661
0.440659
0.440625
0.440559
0.440448
0.440517
0.440637
0.440546
0.440538
0.440544
0.440546
0.440537
0.440524
0.44047
0.440355
0.440318
0.440272
0.440123
0.440195
0.440331
0.44031
0.440307
0.440178
0.440316
0.440553
0.440459
0.440521
0.440544
0.440499
0.440499
0.440511
0.440515
0.440462
0.440431
0.44025
0.440274
0.440326
0.440289
0.440207
0.440214
0.440371
0.440268
0.440367
0.44047
0.440474
0.440472
0.440225
0.381542
0.393912
0.406945
0.419602
0.429744
0.436474
0.440019
0.441082
0.441133
0.441017
0.441002
0.441171
0.441222
0.44119
0.441147
0.441046
0.441019
0.440939
0.441034
0.441185
0.441085
0.441094
0.441083
0.440946
0.44099
0.441084
0.441088
0.441087
0.440924
0.44086
0.44105
0.441183
0.441069
0.441142
0.441173
0.441161
0.441161
0.441129
0.441118
0.441041
0.441035
0.440988
0.440946
0.440896
0.440808
0.440565
0.440509
0.44052
0.440547
0.440546
0.440352
0.440388
0.440453
0.440374
0.440372
0.440405
0.44042
0.440379
0.440234
0.440275
0.44046
0.440424
0.440418
0.440389
0.440384
0.440337
0.440343
0.440326
0.440239
0.44035
0.440533
0.440474
0.440483
0.440492
0.440481
0.440313
0.440309
0.440488
0.44045
0.440537
0.440627
0.440589
0.440455
0.440458
0.440533
0.440517
0.440517
0.440495
0.440469
0.440243
0.381537
0.393909
0.406971
0.419515
0.429765
0.436578
0.439782
0.441014
0.441123
0.441115
0.44111
0.440938
0.441013
0.441087
0.441011
0.441032
0.440994
0.440839
0.440879
0.440976
0.440985
0.440986
0.440823
0.440934
0.441126
0.441058
0.441065
0.441065
0.440984
0.441039
0.44113
0.440998
0.441053
0.441092
0.441077
0.441068
0.440949
0.440806
0.440875
0.440954
0.440884
0.440929
0.440934
0.440898
0.440904
0.440864
0.440847
0.440851
0.440854
0.440808
0.440708
0.440638
0.440596
0.44051
0.440458
0.44042
0.440348
0.440106
0.440077
0.440248
0.440305
0.440266
0.440171
0.44017
0.440123
0.440091
0.440003
0.440073
0.440253
0.440259
0.44026
0.440125
0.440234
0.440536
0.440441
0.440544
0.440632
0.440481
0.440532
0.440605
0.440509
0.440569
0.440588
0.44054
0.440446
0.440327
0.440406
0.440457
0.440409
0.440248
0.381541
0.393912
0.406912
0.419555
0.429875
0.436474
0.439611
0.440569
0.44106
0.441054
0.440929
0.440981
0.441012
0.440987
0.440977
0.44079
0.440769
0.440953
0.440988
0.441037
0.441048
0.441001
0.440894
0.440834
0.440947
0.440983
0.440869
0.440887
0.441135
0.441176
0.441083
0.441145
0.441168
0.441135
0.441129
0.441048
0.440977
0.440719
0.440693
0.440775
0.44066
0.440712
0.44077
0.440732
0.440731
0.440697
0.440651
0.440462
0.440392
0.440439
0.440513
0.440483
0.44042
0.440349
0.440388
0.440476
0.440476
0.440477
0.440414
0.440389
0.440361
0.440315
0.440354
0.440375
0.440334
0.440206
0.44024
0.440449
0.440377
0.44048
0.440556
0.440553
0.440553
0.440467
0.440449
0.440292
0.440327
0.440491
0.440397
0.440482
0.440532
0.4405
0.440467
0.440347
0.440339
0.440333
0.440452
0.440518
0.440471
0.440309
0.381531
0.393899
0.406929
0.419528
0.429927
0.436352
0.43971
0.440835
0.440905
0.440896
0.440893
0.440812
0.440732
0.440898
0.441025
0.440958
0.441152
0.441459
0.441451
0.441435
0.441495
0.441551
0.441518
0.441469
0.441365
0.441355
0.441314
0.441347
0.441361
0.441334
0.441341
0.441308
0.441246
0.441076
0.441035
0.441064
0.441066
0.441028
0.44083
0.440795
0.440856
0.440874
0.44084
0.440736
0.44074
0.440709
0.440654
0.440637
0.440627
0.440588
0.440539
0.440379
0.440331
0.440374
0.440432
0.440401
0.440364
0.440356
0.440187
0.440264
0.440405
0.44037
0.440368
0.440374
0.44037
0.440175
0.440217
0.440348
0.440341
0.440339
0.4402
0.440257
0.440355
0.440333
0.440265
0.4403
0.440438
0.440378
0.440395
0.440389
0.44033
0.440271
0.440406
0.440494
0.440486
0.440484
0.440318
0.440373
0.440447
0.440269
0.381552
0.393857
0.406991
0.419608
0.429617
0.43635
0.439984
0.441426
0.44164
0.441608
0.441471
0.441506
0.44161
0.441522
0.441514
0.441482
0.441566
0.441607
0.441559
0.441439
0.441384
0.441433
0.441371
0.44146
0.441564
0.441488
0.441546
0.441565
0.44152
0.441516
0.441497
0.441503
0.441472
0.441455
0.441427
0.441391
0.441355
0.441255
0.440939
0.440918
0.440985
0.44094
0.440937
0.440951
0.440937
0.440785
0.440731
0.440712
0.440647
0.440636
0.440633
0.440594
0.440471
0.440549
0.440643
0.440604
0.440469
0.440476
0.440579
0.440496
0.440572
0.440654
0.440622
0.44063
0.440641
0.440643
0.440569
0.440427
0.440373
0.440224
0.440221
0.440484
0.440562
0.440546
0.440532
0.440369
0.440395
0.4406
0.440648
0.440621
0.440602
0.440592
0.440402
0.44037
0.440476
0.440546
0.440514
0.440498
0.44049
0.44027
0.381541
0.393895
0.406911
0.419607
0.429764
0.436407
0.439809
0.440873
0.440937
0.440907
0.44089
0.440743
0.44089
0.441233
0.441115
0.441207
0.441294
0.44113
0.441173
0.441421
0.441361
0.441473
0.441577
0.441375
0.441403
0.441538
0.441421
0.441495
0.441596
0.441481
0.441552
0.441584
0.44156
0.441553
0.441469
0.441439
0.441341
0.441282
0.441208
0.441055
0.440872
0.440795
0.440745
0.440598
0.440651
0.440759
0.440586
0.44065
0.440779
0.440738
0.440738
0.440699
0.440669
0.440649
0.440646
0.440599
0.440402
0.440305
0.440366
0.440437
0.440396
0.440221
0.440286
0.440447
0.440367
0.440373
0.440383
0.440366
0.440243
0.440217
0.440489
0.440621
0.440578
0.440587
0.440562
0.440534
0.440353
0.440344
0.440527
0.440485
0.440598
0.440704
0.440704
0.440705
0.440632
0.440625
0.440566
0.440552
0.440486
0.440263
0.381597
0.3938
0.406933
0.419633
0.429763
0.43642
0.439756
0.440603
0.440621
0.440593
0.440725
0.44103
0.441025
0.441013
0.440853
0.44089
0.441021
0.44111
0.441169
0.441141
0.441138
0.441048
0.441046
0.440983
0.441087
0.441188
0.441164
0.44113
0.441092
0.441177
0.441153
0.441191
0.441196
0.441159
0.441154
0.441122
0.441075
0.440989
0.440941
0.440895
0.440759
0.440809
0.440829
0.440811
0.440807
0.440743
0.440623
0.440521
0.440477
0.440407
0.440243
0.440147
0.44016
0.440218
0.440186
0.440028
0.440068
0.440093
0.439928
0.439911
0.44021
0.440395
0.440335
0.440356
0.440369
0.440342
0.440271
0.440139
0.440215
0.440406
0.440401
0.440409
0.440372
0.440217
0.44021
0.440234
0.44009
0.440088
0.440389
0.4405
0.440493
0.44049
0.440307
0.440374
0.44057
0.440482
0.440544
0.440575
0.440522
0.440328
0.381559
0.393874
0.406936
0.419561
0.429751
0.436475
0.439833
0.440681
0.440615
0.440694
0.440879
0.440844
0.440841
0.440783
0.440824
0.440858
0.440822
0.440928
0.441123
0.441138
0.441417
0.441503
0.441473
0.441427
0.441302
0.441266
0.441155
0.441189
0.441361
0.44136
0.441317
0.441148
0.441115
0.441174
0.441089
0.441172
0.441204
0.441064
0.441108
0.441165
0.441149
0.441142
0.441043
0.440984
0.440907
0.440772
0.440442
0.440278
0.440346
0.440371
0.440239
0.440289
0.440385
0.44035
0.440355
0.44035
0.440352
0.440323
0.440278
0.440133
0.44022
0.440342
0.440313
0.44026
0.440183
0.440298
0.440365
0.44033
0.440271
0.440169
0.440245
0.440296
0.44016
0.440213
0.44041
0.440418
0.440426
0.4404
0.440266
0.440313
0.440422
0.440271
0.440316
0.440561
0.440605
0.440581
0.440558
0.440522
0.440468
0.440305
0.381529
0.393906
0.406926
0.419566
0.429788
0.436375
0.43983
0.441033
0.441117
0.441102
0.441097
0.441001
0.44096
0.441212
0.441372
0.441259
0.441331
0.441369
0.441346
0.441281
0.441273
0.441513
0.441552
0.441513
0.44139
0.44137
0.441548
0.441595
0.441586
0.441565
0.441544
0.441523
0.441501
0.4415
0.441497
0.441439
0.441433
0.441429
0.441414
0.441306
0.441178
0.441063
0.440962
0.440754
0.440545
0.440413
0.440384
0.440354
0.440344
0.440299
0.440172
0.44012
0.440235
0.440261
0.440365
0.440438
0.440318
0.44038
0.440462
0.440393
0.440389
0.44039
0.440362
0.440154
0.440207
0.440438
0.440453
0.440453
0.440322
0.440276
0.440441
0.440528
0.440484
0.440367
0.440315
0.440443
0.440484
0.440441
0.440336
0.440281
0.440406
0.440495
0.440461
0.440348
0.440409
0.440558
0.440534
0.440531
0.440502
0.440301
0.381562
0.393833
0.407023
0.419575
0.429605
0.436381
0.440042
0.44111
0.441076
0.441091
0.44124
0.441248
0.441288
0.4413
0.441256
0.441212
0.441377
0.441637
0.441664
0.441631
0.441465
0.441544
0.441644
0.441495
0.441563
0.441752
0.441593
0.441666
0.441763
0.441621
0.441674
0.441711
0.441685
0.441678
0.441608
0.441455
0.44134
0.441277
0.441231
0.44117
0.441038
0.440969
0.440925
0.440883
0.440816
0.440684
0.440619
0.440438
0.440476
0.440581
0.440558
0.440534
0.440535
0.440538
0.440495
0.440411
0.440351
0.440327
0.440325
0.440293
0.440245
0.440304
0.440275
0.440394
0.440498
0.440497
0.440498
0.440436
0.440418
0.440261
0.440225
0.440419
0.440495
0.44048
0.440474
0.440306
0.440371
0.440587
0.440577
0.440546
0.440417
0.440385
0.440472
0.440553
0.440519
0.440453
0.440418
0.440391
0.440351
0.440248
0.381556
0.393888
0.406884
0.419565
0.429915
0.436348
0.439695
0.44064
0.440557
0.440575
0.440684
0.440563
0.440628
0.440789
0.440778
0.440714
0.440718
0.440902
0.441031
0.441212
0.441198
0.441168
0.4411
0.441182
0.441559
0.441619
0.44141
0.441453
0.441578
0.441467
0.441514
0.441574
0.441516
0.441508
0.441499
0.44145
0.441358
0.441134
0.440992
0.440912
0.440738
0.440659
0.440668
0.440666
0.440694
0.440691
0.440646
0.440518
0.44057
0.440636
0.440631
0.44063
0.440572
0.440439
0.440385
0.44032
0.440323
0.440333
0.440219
0.440321
0.440395
0.440355
0.44027
0.440203
0.440262
0.440331
0.440299
0.440244
0.440218
0.440122
0.440205
0.440461
0.440482
0.44049
0.44047
0.440461
0.440401
0.440294
0.440273
0.440222
0.440206
0.440438
0.440708
0.440676
0.440674
0.440668
0.440544
0.440546
0.440566
0.44039
0.381552
0.393861
0.406979
0.419624
0.429597
0.436318
0.440077
0.441246
0.441234
0.441283
0.44142
0.441298
0.441293
0.441398
0.441357
0.441412
0.441433
0.441429
0.441463
0.441432
0.441353
0.441397
0.441634
0.441649
0.441609
0.441737
0.441844
0.441665
0.441734
0.441777
0.441612
0.441669
0.441682
0.441573
0.441596
0.441594
0.441559
0.441533
0.441444
0.441315
0.44121
0.441083
0.440795
0.440577
0.440427
0.440373
0.44034
0.4403
0.440306
0.440354
0.440352
0.440299
0.440171
0.440122
0.440222
0.440191
0.440283
0.440424
0.440443
0.440409
0.440248
0.440207
0.440369
0.440483
0.440458
0.440375
0.440462
0.440575
0.440573
0.440569
0.440363
0.440395
0.44046
0.440449
0.440445
0.440268
0.440368
0.440548
0.440536
0.440533
0.44046
0.440446
0.440317
0.440397
0.440509
0.440498
0.440497
0.440426
0.440391
0.440204
0.38153
0.393944
0.406944
0.419478
0.429852
0.43633
0.439803
0.440997
0.441125
0.441087
0.44095
0.440967
0.441049
0.441027
0.440931
0.440953
0.441196
0.441261
0.441239
0.441152
0.441179
0.441212
0.441165
0.441293
0.441435
0.441274
0.441346
0.44153
0.441515
0.441511
0.441472
0.441441
0.441192
0.441179
0.44119
0.441083
0.441068
0.441055
0.441057
0.441038
0.441035
0.440997
0.440958
0.44091
0.4409
0.440866
0.440807
0.440667
0.440596
0.440444
0.44016
0.440195
0.440311
0.44029
0.440269
0.440146
0.440162
0.440163
0.440269
0.440758
0.440841
0.440796
0.440672
0.440636
0.440648
0.440498
0.440562
0.440713
0.440633
0.440684
0.440706
0.44068
0.440661
0.440634
0.44061
0.440567
0.440361
0.440381
0.440447
0.44043
0.440428
0.440314
0.440479
0.440596
0.440557
0.440412
0.440426
0.440487
0.440456
0.440336
0.381544
0.393881
0.406969
0.419643
0.429611
0.436216
0.440027
0.441539
0.441711
0.441676
0.441535
0.441514
0.441626
0.441561
0.441585
0.441708
0.441753
0.441733
0.441696
0.44158
0.441627
0.441749
0.44174
0.44174
0.441613
0.441625
0.441629
0.441687
0.441747
0.44167
0.441718
0.441722
0.441685
0.441686
0.441643
0.441612
0.441569
0.441519
0.441436
0.44136
0.441295
0.441187
0.440943
0.440738
0.4406
0.440528
0.440476
0.440444
0.440386
0.440269
0.440015
0.44003
0.440135
0.440133
0.440133
0.440022
0.440221
0.440469
0.440463
0.440493
0.44047
0.440436
0.440304
0.440382
0.440461
0.440347
0.440366
0.440511
0.440521
0.440503
0.440502
0.440438
0.440332
0.440419
0.440556
0.440559
0.44056
0.440522
0.44051
0.440331
0.440336
0.440543
0.440601
0.44057
0.440538
0.440502
0.440442
0.440418
0.440402
0.440239
0.381544
0.393886
0.406934
0.419679
0.429586
0.436245
0.440112
0.441406
0.441429
0.441548
0.441731
0.44175
0.441715
0.441551
0.441498
0.441549
0.441579
0.44152
0.441595
0.4417
0.441571
0.441661
0.441866
0.441708
0.44175
0.441991
0.442
0.441975
0.441929
0.441907
0.441884
0.441883
0.441802
0.441771
0.441762
0.441751
0.441688
0.441606
0.441454
0.441264
0.441138
0.441028
0.440874
0.440763
0.440684
0.440617
0.440496
0.440171
0.440075
0.440252
0.440339
0.440355
0.440325
0.440282
0.440157
0.44023
0.44043
0.440285
0.44025
0.440327
0.440275
0.440323
0.440603
0.440653
0.440635
0.440658
0.440649
0.440629
0.440568
0.440414
0.440334
0.44052
0.44071
0.440679
0.440686
0.44065
0.440679
0.440688
0.440599
0.440591
0.440587
0.440555
0.440364
0.44042
0.440537
0.440528
0.440527
0.440459
0.440421
0.440218
0.38155
0.393862
0.407001
0.419611
0.429596
0.436317
0.439978
0.441407
0.44155
0.441458
0.441415
0.441408
0.441402
0.441433
0.441561
0.441564
0.441498
0.441493
0.44144
0.44158
0.441771
0.441756
0.441733
0.441676
0.441698
0.441683
0.441689
0.44164
0.441686
0.441693
0.441641
0.441624
0.441588
0.441578
0.441539
0.441398
0.441113
0.440893
0.440863
0.440889
0.44088
0.440874
0.440848
0.440806
0.440787
0.440786
0.440779
0.440689
0.440496
0.440105
0.44007
0.44019
0.440237
0.440204
0.440121
0.440044
0.440193
0.440431
0.44028
0.440281
0.440401
0.440318
0.44034
0.44062
0.44068
0.440631
0.440457
0.440426
0.440478
0.44032
0.44033
0.440443
0.440362
0.440319
0.44047
0.440558
0.440537
0.440527
0.440383
0.440471
0.440611
0.440543
0.440559
0.440564
0.440552
0.440435
0.440397
0.440385
0.440342
0.440182
0.381497
0.39395
0.406964
0.419563
0.429658
0.436401
0.439963
0.441094
0.44116
0.441035
0.441026
0.441096
0.441083
0.441118
0.441174
0.441155
0.441024
0.441089
0.441348
0.441344
0.441351
0.441289
0.44136
0.441787
0.441971
0.44185
0.441936
0.441976
0.44188
0.441859
0.441828
0.441826
0.441816
0.44179
0.441738
0.441687
0.441595
0.441508
0.441402
0.441314
0.441165
0.441053
0.440946
0.440795
0.440691
0.440478
0.440322
0.440196
0.440151
0.440091
0.439951
0.439869
0.440182
0.440587
0.440512
0.440501
0.440717
0.440953
0.440941
0.44091
0.440829
0.440812
0.440791
0.440615
0.440623
0.440713
0.440695
0.440694
0.440688
0.440686
0.440547
0.440632
0.440738
0.440726
0.440724
0.440646
0.440638
0.440585
0.440523
0.4405
0.440445
0.440489
0.440512
0.440388
0.440412
0.440421
0.440384
0.44039
0.44034
0.440144
0.38155
0.393894
0.406929
0.419553
0.42978
0.436513
0.439713
0.440424
0.440405
0.440556
0.440933
0.440926
0.440927
0.440916
0.440801
0.440876
0.441087
0.441051
0.441058
0.441018
0.441205
0.441765
0.441724
0.441848
0.442015
0.441965
0.441979
0.441959
0.441925
0.441906
0.441913
0.441878
0.44185
0.441821
0.441763
0.441603
0.441336
0.441181
0.44109
0.441017
0.440955
0.440906
0.440859
0.440813
0.440721
0.440508
0.44036
0.440285
0.440074
0.440091
0.440196
0.4401
0.440161
0.440198
0.44017
0.440157
0.440005
0.439992
0.440068
0.440054
0.439939
0.439988
0.440091
0.440065
0.440062
0.439924
0.440015
0.440127
0.440126
0.44011
0.440115
0.440332
0.440505
0.440598
0.440561
0.440562
0.440554
0.440544
0.440497
0.440341
0.440398
0.440531
0.440499
0.440502
0.440496
0.440476
0.440336
0.4402
0.440164
0.440097
0.381565
0.393826
0.407035
0.419565
0.429612
0.436388
0.440039
0.441277
0.441369
0.441352
0.441347
0.441213
0.441249
0.441492
0.441525
0.441454
0.441511
0.441543
0.441513
0.441467
0.441426
0.441636
0.441775
0.441862
0.441984
0.441879
0.441876
0.441838
0.441907
0.441917
0.441882
0.441873
0.441815
0.441725
0.44162
0.441548
0.441419
0.441323
0.441237
0.441175
0.441086
0.441017
0.440934
0.440868
0.440822
0.440752
0.440612
0.440367
0.44009
0.440064
0.440075
0.440054
0.439954
0.440005
0.440469
0.44054
0.440452
0.440467
0.440603
0.44059
0.440699
0.440752
0.440585
0.440634
0.440796
0.440799
0.440799
0.44081
0.440813
0.440737
0.440719
0.440604
0.440512
0.44053
0.440508
0.440634
0.440824
0.440656
0.440694
0.440868
0.440856
0.440891
0.440897
0.440873
0.440866
0.440821
0.440717
0.440679
0.440594
0.440304
0.381549
0.393869
0.406961
0.419657
0.429561
0.436359
0.44007
0.441247
0.441597
0.441623
0.441416
0.441469
0.441566
0.441542
0.441541
0.441426
0.441543
0.441681
0.441554
0.441614
0.441861
0.441872
0.441831
0.441907
0.442116
0.44198
0.442062
0.442135
0.442051
0.442045
0.442019
0.442005
0.441997
0.441952
0.441879
0.44174
0.441566
0.441433
0.441283
0.440948
0.440722
0.440643
0.440511
0.440456
0.440425
0.440399
0.440354
0.440158
0.440179
0.440317
0.440307
0.440276
0.440093
0.440086
0.440439
0.440825
0.440814
0.440708
0.440784
0.440911
0.440911
0.440911
0.440815
0.440804
0.440712
0.440748
0.440765
0.440715
0.440714
0.440704
0.440582
0.440641
0.440822
0.440653
0.440675
0.44089
0.440908
0.44087
0.440678
0.440667
0.440729
0.440573
0.440635
0.440742
0.440748
0.440749
0.440647
0.440636
0.440569
0.440341
0.38156
0.393902
0.406853
0.419659
0.429755
0.43641
0.439789
0.440771
0.44081
0.4407
0.440748
0.440864
0.440843
0.44086
0.440799
0.440976
0.44117
0.441195
0.44152
0.441842
0.441979
0.441955
0.44186
0.441895
0.441909
0.44187
0.441747
0.441798
0.44189
0.44181
0.441822
0.441813
0.441767
0.441669
0.441645
0.441594
0.441549
0.44147
0.441283
0.441035
0.440897
0.440626
0.440458
0.440399
0.440359
0.440303
0.440124
0.440156
0.440198
0.440095
0.440121
0.440126
0.44001
0.440062
0.440096
0.440034
0.44001
0.439984
0.439929
0.440041
0.440188
0.440138
0.440134
0.440106
0.440298
0.440536
0.440545
0.440526
0.440517
0.440407
0.440324
0.440366
0.440388
0.440419
0.440538
0.440517
0.440496
0.44048
0.440346
0.440417
0.440535
0.440508
0.440475
0.44041
0.440318
0.440375
0.44056
0.440553
0.440534
0.440323
0.381522
0.393903
0.406994
0.41952
0.429723
0.436382
0.439964
0.44116
0.44128
0.441267
0.441292
0.44126
0.441161
0.441261
0.441392
0.441382
0.441384
0.441229
0.441291
0.441516
0.441475
0.441478
0.441451
0.441602
0.441758
0.441602
0.441646
0.441951
0.441998
0.441965
0.441957
0.441901
0.44179
0.441723
0.441626
0.441522
0.441431
0.441339
0.441258
0.441192
0.441062
0.440941
0.44085
0.44078
0.440644
0.440479
0.440313
0.440227
0.440189
0.440112
0.439892
0.43984
0.440087
0.440185
0.440144
0.440154
0.440161
0.440132
0.439939
0.439867
0.439979
0.440209
0.440214
0.440027
0.440032
0.44028
0.440356
0.440346
0.440341
0.44021
0.440165
0.440183
0.440078
0.440135
0.440305
0.440293
0.440203
0.440218
0.440354
0.440377
0.440378
0.440231
0.440275
0.440315
0.440279
0.440443
0.440554
0.440544
0.440538
0.440275
0.381559
0.393841
0.407013
0.419589
0.429598
0.436392
0.440061
0.441134
0.441113
0.441166
0.44135
0.441367
0.441345
0.441465
0.441628
0.441499
0.441601
0.441778
0.44162
0.441708
0.44186
0.441687
0.441669
0.441815
0.441819
0.441952
0.442105
0.441975
0.442027
0.442089
0.442065
0.442059
0.442011
0.441985
0.441885
0.441671
0.441447
0.441306
0.441166
0.441049
0.440962
0.440883
0.440831
0.440791
0.440756
0.440714
0.440632
0.440461
0.44017
0.439996
0.440021
0.440035
0.440013
0.439949
0.440052
0.440165
0.440146
0.440129
0.439962
0.440002
0.440116
0.440094
0.440061
0.440056
0.440017
0.440138
0.440337
0.440305
0.440319
0.440279
0.440283
0.440281
0.440234
0.440148
0.440321
0.440497
0.440468
0.440348
0.440355
0.440472
0.440475
0.440472
0.440403
0.440281
0.440351
0.440448
0.440405
0.440406
0.440358
0.440196
0.381544
0.393886
0.406933
0.419683
0.429583
0.436266
0.440077
0.441534
0.441683
0.441644
0.441639
0.441617
0.441456
0.44144
0.441596
0.441622
0.441581
0.441645
0.44177
0.441645
0.441744
0.441948
0.441784
0.441786
0.441947
0.441924
0.442032
0.442077
0.441972
0.441992
0.442026
0.441991
0.441965
0.441956
0.441897
0.441777
0.441627
0.441451
0.441316
0.441213
0.441128
0.441064
0.440984
0.440936
0.440863
0.440697
0.440622
0.440465
0.440388
0.440361
0.440324
0.440254
0.440063
0.4402
0.440653
0.440823
0.440923
0.440867
0.440919
0.440936
0.440888
0.440727
0.44077
0.440874
0.440734
0.440779
0.440837
0.440819
0.44081
0.440788
0.440768
0.440728
0.440566
0.440597
0.440627
0.440555
0.440537
0.440509
0.440452
0.440534
0.440681
0.440657
0.440625
0.440438
0.440463
0.440588
0.440591
0.440593
0.44055
0.440369
0.381549
0.393869
0.406961
0.419657
0.42956
0.436358
0.440071
0.44125
0.4416
0.441627
0.441413
0.441419
0.44157
0.441619
0.44159
0.441454
0.441542
0.441687
0.441623
0.441621
0.441565
0.441646
0.441898
0.441816
0.441848
0.442141
0.442199
0.442149
0.442147
0.442129
0.442115
0.44207
0.441998
0.441926
0.441845
0.441686
0.441543
0.44143
0.441286
0.440953
0.440742
0.440562
0.440504
0.440472
0.440476
0.440473
0.440387
0.440184
0.440197
0.440291
0.440299
0.440299
0.440098
0.440151
0.440468
0.440434
0.440429
0.440666
0.440822
0.4408
0.440799
0.440799
0.440794
0.440674
0.440536
0.440565
0.440629
0.440689
0.440694
0.440654
0.44059
0.440509
0.440544
0.440492
0.440603
0.440739
0.440589
0.440659
0.440705
0.440671
0.44067
0.440638
0.440601
0.440494
0.440442
0.440293
0.44036
0.44052
0.440484
0.440335
0.381566
0.393823
0.407038
0.419563
0.429606
0.436424
0.439965
0.441293
0.44141
0.441268
0.441335
0.441439
0.441416
0.44134
0.44133
0.441507
0.441478
0.441571
0.441623
0.441484
0.441496
0.441782
0.441925
0.441894
0.441909
0.441924
0.44194
0.441888
0.441713
0.44175
0.441782
0.441723
0.441738
0.441693
0.441667
0.44166
0.441653
0.441608
0.441525
0.441352
0.441131
0.440985
0.440874
0.440785
0.440735
0.440668
0.440533
0.440197
0.440055
0.440118
0.44021
0.440174
0.440007
0.440078
0.440546
0.440644
0.440619
0.440543
0.440648
0.440883
0.440882
0.440868
0.440673
0.440709
0.440812
0.440744
0.440752
0.440802
0.44081
0.440764
0.440617
0.44064
0.440752
0.44073
0.440733
0.440742
0.440742
0.440668
0.440529
0.440577
0.440749
0.440691
0.440745
0.440795
0.440778
0.440775
0.440695
0.44066
0.440583
0.440325
0.381557
0.393884
0.406929
0.419572
0.42977
0.436438
0.439797
0.440697
0.440726
0.440666
0.440732
0.440952
0.440912
0.440968
0.440986
0.440945
0.440927
0.44108
0.441207
0.441101
0.441119
0.441489
0.44181
0.441795
0.441706
0.441752
0.441841
0.441621
0.441644
0.441737
0.44171
0.441709
0.441643
0.441631
0.441631
0.441608
0.441473
0.44142
0.44132
0.441097
0.440892
0.440794
0.440706
0.440504
0.440424
0.440373
0.440193
0.440239
0.440333
0.440222
0.440159
0.440225
0.440302
0.440292
0.440252
0.440308
0.440355
0.440336
0.440321
0.440073
0.44007
0.440315
0.440366
0.44032
0.440148
0.440176
0.440379
0.440307
0.44041
0.440477
0.44047
0.440469
0.440279
0.440271
0.44044
0.44037
0.440429
0.440578
0.440413
0.440404
0.440594
0.44068
0.440666
0.440657
0.440516
0.440486
0.440622
0.440649
0.440603
0.440397
0.381538
0.393938
0.406935
0.419487
0.429862
0.43633
0.439788
0.440994
0.441083
0.440983
0.441068
0.441114
0.441089
0.441085
0.440953
0.441052
0.44111
0.441219
0.44134
0.441311
0.441332
0.441276
0.441527
0.441862
0.44189
0.441853
0.441835
0.441824
0.441596
0.441616
0.441621
0.441586
0.441579
0.441526
0.44151
0.441453
0.441345
0.441247
0.441168
0.441088
0.440984
0.440907
0.440836
0.440779
0.440739
0.440667
0.440496
0.440452
0.440352
0.44036
0.440368
0.44032
0.440239
0.44017
0.440141
0.44011
0.440063
0.440016
0.440271
0.440542
0.440534
0.440528
0.440351
0.440384
0.440489
0.440477
0.440478
0.440424
0.440441
0.440412
0.440312
0.440372
0.440593
0.440587
0.440565
0.440383
0.44037
0.440557
0.440573
0.440518
0.440517
0.440514
0.440348
0.440391
0.440492
0.440453
0.440449
0.440418
0.440387
0.44017
0.381531
0.393943
0.406943
0.41948
0.429854
0.436332
0.439824
0.440925
0.440969
0.440897
0.440938
0.441028
0.441009
0.440975
0.440855
0.441054
0.441376
0.441416
0.441388
0.44124
0.441366
0.441524
0.441525
0.441509
0.441574
0.441749
0.441668
0.441744
0.44176
0.441728
0.441718
0.441632
0.441537
0.441458
0.441308
0.44119
0.441101
0.441021
0.440961
0.440937
0.44094
0.440946
0.440914
0.44086
0.440725
0.44056
0.440453
0.44041
0.440326
0.440122
0.439969
0.439988
0.439965
0.440024
0.440429
0.440631
0.440587
0.440623
0.440638
0.440603
0.440442
0.44048
0.440581
0.440503
0.440562
0.440595
0.440552
0.440431
0.440382
0.440542
0.440603
0.440523
0.440525
0.440527
0.440512
0.440455
0.440432
0.440371
0.440458
0.440516
0.440435
0.440432
0.440367
0.440434
0.440466
0.440419
0.440264
0.44026
0.440346
0.440181
0.381548
0.393874
0.406954
0.419657
0.429582
0.436298
0.440071
0.441425
0.441543
0.44153
0.441548
0.44151
0.441385
0.44145
0.441657
0.441624
0.441625
0.441603
0.441609
0.441556
0.441651
0.441704
0.441563
0.441634
0.441854
0.441701
0.441766
0.441885
0.441721
0.441784
0.441802
0.441761
0.441747
0.441645
0.441554
0.441444
0.441374
0.441247
0.441164
0.441093
0.441028
0.440978
0.440908
0.440821
0.440647
0.440367
0.440271
0.440235
0.440165
0.44028
0.440494
0.440389
0.440465
0.440504
0.440482
0.440473
0.440362
0.440295
0.44038
0.440409
0.440386
0.440371
0.440429
0.440459
0.440426
0.440379
0.44031
0.440375
0.440402
0.440338
0.440329
0.440503
0.440635
0.440724
0.440703
0.440689
0.440686
0.440578
0.440587
0.440528
0.44051
0.440491
0.44032
0.440347
0.440542
0.440584
0.440558
0.440543
0.440527
0.44028
0.381539
0.393893
0.406945
0.419688
0.429544
0.436274
0.440041
0.441421
0.441662
0.441634
0.441553
0.441487
0.441517
0.441503
0.441524
0.441591
0.441594
0.441514
0.441622
0.441904
0.441853
0.44194
0.441976
0.441796
0.441827
0.441931
0.44184
0.441879
0.441884
0.441854
0.44185
0.441817
0.441804
0.441761
0.441689
0.441637
0.441541
0.441458
0.441382
0.441227
0.441131
0.441078
0.441007
0.440852
0.440755
0.440701
0.440621
0.440578
0.440494
0.44043
0.440234
0.440236
0.440436
0.440475
0.440434
0.440283
0.440337
0.440496
0.440423
0.440471
0.440485
0.44046
0.440479
0.440442
0.440305
0.44031
0.440479
0.440428
0.440534
0.440762
0.440763
0.440758
0.440653
0.440562
0.440687
0.440785
0.44068
0.440736
0.440754
0.440705
0.440735
0.440698
0.440665
0.440664
0.440632
0.440461
0.440362
0.440328
0.440323
0.440209
0.38151
0.393918
0.407003
0.41954
0.429628
0.436461
0.439932
0.44103
0.441147
0.441132
0.441119
0.440937
0.440961
0.44101
0.440824
0.440829
0.441134
0.441251
0.441225
0.441134
0.441172
0.441436
0.441663
0.441648
0.441464
0.44154
0.441612
0.441594
0.441581
0.441355
0.441372
0.4414
0.441348
0.441248
0.44119
0.441138
0.441036
0.440939
0.440942
0.44094
0.440906
0.4409
0.44085
0.440768
0.440624
0.44045
0.440379
0.440299
0.440109
0.439999
0.440138
0.440271
0.440359
0.440337
0.440327
0.440324
0.440151
0.440115
0.440318
0.440349
0.440456
0.440599
0.440487
0.440484
0.44048
0.440397
0.440357
0.440402
0.440377
0.440408
0.440413
0.44038
0.440351
0.440393
0.44042
0.440321
0.440387
0.440532
0.440504
0.440428
0.440399
0.440466
0.440377
0.440466
0.440536
0.440506
0.440413
0.440414
0.440459
0.440265
0.381551
0.393863
0.406978
0.419615
0.429623
0.436293
0.440019
0.441455
0.441664
0.441629
0.441472
0.441484
0.441603
0.441535
0.441531
0.441517
0.44138
0.441362
0.441513
0.441535
0.441557
0.441569
0.441518
0.44163
0.441883
0.441846
0.441863
0.441919
0.441902
0.44184
0.441719
0.441627
0.441577
0.441489
0.441452
0.441401
0.441357
0.441344
0.441302
0.441243
0.441181
0.441093
0.441009
0.440834
0.440685
0.440618
0.440523
0.440467
0.44038
0.440102
0.440095
0.440335
0.440348
0.440353
0.440353
0.440262
0.440306
0.440375
0.44028
0.440303
0.440264
0.440235
0.44016
0.440242
0.440342
0.440161
0.440222
0.44035
0.440321
0.440251
0.440276
0.440535
0.44051
0.4406
0.440635
0.440534
0.440563
0.440618
0.440603
0.44058
0.440389
0.440359
0.44046
0.440439
0.440472
0.440437
0.440284
0.440288
0.440357
0.440194
0.381551
0.393883
0.406907
0.419593
0.429796
0.436469
0.439719
0.440518
0.44046
0.440489
0.440839
0.440949
0.440943
0.440942
0.440772
0.44085
0.441118
0.441129
0.441104
0.441199
0.441445
0.441307
0.44131
0.441501
0.441507
0.441623
0.441888
0.441893
0.441891
0.441858
0.441853
0.441835
0.441824
0.441752
0.441595
0.441463
0.441378
0.441309
0.441184
0.441098
0.441045
0.440999
0.440919
0.440878
0.440834
0.440745
0.440477
0.440438
0.4405
0.440391
0.440464
0.440507
0.440484
0.440467
0.440268
0.440224
0.440268
0.440273
0.44025
0.44015