/*--------------------------------*- C++ -*----------------------------------*\
  =========                 |
  \\      /  F ield         | OpenFOAM: The Open Source CFD Toolbox
   \\    /   O peration     | Website:  https://openfoam.org
    \\  /    A nd           | Version:  11
     \\/     M anipulation  |
\*---------------------------------------------------------------------------*/
FoamFile
{
    format      ascii;
    class       volScalarField;
    location    "0.086";
    object      nut;
}
// * * * * * * * * * * * * * * * * * * * * * * * * * * * * * * * * * * * * * //

dimensions      [0 2 -1 0 0 0 0];

internalField   nonuniform List<scalar> 
287084
(
0.000836454
0.000864396
0.000894657
0.000924436
0.000948838
0.000965211
0.000973408
0.000975779
0.000976358
0.000976761
0.000976838
0.00097664
0.000976743
0.00097713
0.000976991
0.000977051
0.000977134
0.00097704
0.000977005
0.000976889
0.000976728
0.000976376
0.000976352
0.000977019
0.000977109
0.000977068
0.000977067
0.000976786
0.000976743
0.00097697
0.000977333
0.000977384
0.000977256
0.000977632
0.000977945
0.000978059
0.000978286
0.000978476
0.000978672
0.000978758
0.000978671
0.000978744
0.000978694
0.000978754
0.000978726
0.000978763
0.000978796
0.000978762
0.000978756
0.000978689
0.00097835
0.000978398
0.000978873
0.000978882
0.000978939
0.000978837
0.000978771
0.000978719
0.00097852
0.000978281
0.000978448
0.000978629
0.000978524
0.000978228
0.000978305
0.000979007
0.00097902
0.000978873
0.000978467
0.000978491
0.000978681
0.000978667
0.000978626
0.000978194
0.000978276
0.000978624
0.000978383
0.000978557
0.000978674
0.000978658
0.000978635
0.000978298
0.000978182
0.000978532
0.000978826
0.000978743
0.00097872
0.000978707
0.000978619
0.000977922
0.0011823
0.00122066
0.00126133
0.00130104
0.00133349
0.00135522
0.00136594
0.00136849
0.00136852
0.00136906
0.00136996
0.00136956
0.00136978
0.00136996
0.00136989
0.00136978
0.00136945
0.00136887
0.00136871
0.00136867
0.00136838
0.00136816
0.0013686
0.00136961
0.00136937
0.00136967
0.00136985
0.0013697
0.00136981
0.00137001
0.00137012
0.00136968
0.00136961
0.00136981
0.00136972
0.00137022
0.00137065
0.00137086
0.00137111
0.00137082
0.00137122
0.00137166
0.00137185
0.00137207
0.00137205
0.00137213
0.00137168
0.00137184
0.00137248
0.00137264
0.00137275
0.00137268
0.00137263
0.00137257
0.00137256
0.00137237
0.00137204
0.00137186
0.00137174
0.0013716
0.00137143
0.0013712
0.00137165
0.00137207
0.00137202
0.00137196
0.00137144
0.0013717
0.0013721
0.00137199
0.00137185
0.00137159
0.00137183
0.00137186
0.00137199
0.00137217
0.00137201
0.00137201
0.00137192
0.00137135
0.00137143
0.00137167
0.00137144
0.00137139
0.0013712
0.00137119
0.00137114
0.0013712
0.00137119
0.00137075
0.00118235
0.00122085
0.00126144
0.00130139
0.00133359
0.00135498
0.00136626
0.0013695
0.00136973
0.0013699
0.00136992
0.00136952
0.00136961
0.00136976
0.00136952
0.00136938
0.00136889
0.00136914
0.00136967
0.00136963
0.00136942
0.0013691
0.0013688
0.00136917
0.00136968
0.00136967
0.00136966
0.0013697
0.00136983
0.00136971
0.00136994
0.00137014
0.00137043
0.00137052
0.00137071
0.00137097
0.00137128
0.00137152
0.00137152
0.00137158
0.00137161
0.00137105
0.00137125
0.00137184
0.00137204
0.00137212
0.00137208
0.00137188
0.00137222
0.00137269
0.00137249
0.00137253
0.0013726
0.00137265
0.00137264
0.00137261
0.00137245
0.00137209
0.00137196
0.00137179
0.00137129
0.00137148
0.00137188
0.00137177
0.00137173
0.00137129
0.00137168
0.00137237
0.00137205
0.0013722
0.00137224
0.00137207
0.00137205
0.00137205
0.00137203
0.00137184
0.00137171
0.00137113
0.00137117
0.00137131
0.00137117
0.00137089
0.00137089
0.00137136
0.00137102
0.00137132
0.00137162
0.00137162
0.00137161
0.0013708
0.00118233
0.00122091
0.0012618
0.00130161
0.00133376
0.00135525
0.00136667
0.00137019
0.00137044
0.00137009
0.00137001
0.00137046
0.00137054
0.00137033
0.00137008
0.00136963
0.00136941
0.00136902
0.00136919
0.00136953
0.00136911
0.00136905
0.00136894
0.00136847
0.00136859
0.00136889
0.00136897
0.00136906
0.00136868
0.00136864
0.00136943
0.00137007
0.00136997
0.00137048
0.00137087
0.00137114
0.00137146
0.00137168
0.00137196
0.00137202
0.0013723
0.00137243
0.00137256
0.00137264
0.00137258
0.00137201
0.001372
0.00137217
0.00137238
0.00137247
0.00137195
0.00137212
0.00137237
0.00137216
0.00137217
0.00137228
0.00137233
0.00137219
0.00137173
0.00137183
0.00137238
0.00137224
0.00137219
0.00137206
0.00137201
0.00137182
0.0013718
0.00137171
0.0013714
0.00137171
0.00137224
0.00137202
0.00137201
0.00137201
0.00137194
0.00137138
0.00137134
0.00137187
0.00137173
0.00137197
0.00137223
0.00137209
0.00137165
0.00137164
0.00137186
0.0013718
0.00137179
0.00137171
0.00137161
0.00137086
0.00118233
0.001221
0.00126201
0.00130151
0.00133401
0.00135577
0.0013661
0.00137012
0.00137052
0.00137048
0.00137041
0.00136978
0.00136991
0.00137001
0.00136964
0.00136956
0.00136929
0.00136867
0.00136865
0.00136881
0.00136872
0.00136862
0.00136804
0.00136833
0.00136891
0.00136872
0.00136879
0.00136889
0.00136877
0.00136912
0.00136961
0.00136944
0.00136988
0.0013703
0.00137057
0.00137087
0.00137083
0.00137072
0.00137127
0.00137183
0.00137191
0.00137234
0.00137262
0.00137274
0.00137297
0.00137304
0.00137315
0.0013733
0.00137342
0.00137337
0.00137314
0.00137298
0.00137289
0.00137265
0.0013725
0.00137239
0.00137216
0.00137139
0.00137128
0.00137179
0.00137193
0.00137178
0.00137144
0.0013714
0.00137122
0.00137107
0.00137076
0.00137094
0.00137146
0.00137144
0.0013714
0.00137094
0.00137124
0.00137215
0.00137182
0.00137211
0.00137235
0.00137185
0.00137198
0.00137219
0.00137186
0.00137203
0.00137207
0.0013719
0.00137159
0.0013712
0.00137144
0.00137159
0.00137143
0.00137088
0.00118235
0.00122103
0.00126187
0.00130171
0.00133448
0.00135561
0.00136575
0.00136891
0.00137047
0.00137041
0.00136992
0.00136997
0.00136993
0.0013697
0.00136951
0.00136877
0.00136854
0.00136895
0.00136891
0.00136891
0.00136881
0.00136856
0.00136814
0.0013679
0.00136823
0.00136836
0.00136806
0.00136821
0.00136912
0.00136944
0.00136938
0.00136983
0.00137019
0.00137041
0.00137072
0.00137082
0.00137095
0.0013705
0.00137077
0.00137136
0.00137131
0.00137177
0.00137221
0.00137234
0.00137255
0.00137263
0.00137265
0.0013722
0.00137209
0.00137233
0.00137263
0.00137259
0.00137243
0.00137223
0.00137235
0.00137263
0.00137262
0.0013726
0.00137238
0.00137227
0.00137215
0.00137197
0.00137205
0.00137207
0.0013719
0.00137145
0.00137152
0.00137213
0.00137186
0.00137214
0.00137234
0.00137229
0.00137225
0.00137194
0.00137185
0.00137133
0.00137141
0.00137189
0.00137157
0.00137181
0.00137194
0.00137182
0.00137169
0.0013713
0.00137126
0.00137123
0.00137159
0.00137178
0.00137162
0.00137107
0.00118231
0.00122102
0.00126197
0.0013017
0.00133473
0.00135532
0.00136615
0.00136982
0.00137006
0.00136997
0.00136985
0.00136946
0.00136905
0.00136941
0.00136963
0.00136924
0.00136967
0.00137044
0.00137025
0.00137004
0.00137008
0.00137013
0.00136994
0.00136972
0.00136937
0.00136936
0.00136929
0.0013695
0.0013697
0.00136981
0.00137008
0.00137026
0.00137038
0.00137019
0.00137043
0.00137089
0.00137128
0.00137154
0.00137128
0.00137152
0.00137204
0.0013724
0.00137257
0.00137249
0.00137272
0.00137281
0.0013728
0.00137288
0.00137295
0.00137292
0.00137283
0.00137237
0.00137225
0.0013724
0.00137258
0.00137247
0.00137234
0.00137229
0.00137173
0.00137193
0.00137233
0.00137218
0.00137213
0.0013721
0.00137204
0.00137139
0.00137147
0.00137183
0.00137177
0.00137172
0.00137124
0.00137138
0.00137165
0.00137154
0.00137129
0.00137136
0.00137176
0.00137155
0.00137157
0.00137153
0.00137131
0.00137111
0.00137151
0.00137176
0.00137172
0.0013717
0.00137117
0.00137133
0.00137155
0.00137094
0.00118238
0.00122089
0.00126218
0.00130197
0.00133382
0.00135537
0.00136708
0.00137173
0.00137241
0.00137224
0.00137168
0.00137163
0.00137178
0.00137132
0.0013711
0.00137081
0.00137087
0.0013708
0.00137046
0.00136992
0.00136958
0.00136961
0.00136931
0.00136952
0.00136981
0.00136959
0.00136983
0.00137001
0.00137003
0.00137024
0.00137045
0.00137077
0.00137102
0.00137134
0.00137165
0.00137194
0.00137224
0.00137233
0.00137173
0.00137203
0.00137258
0.00137276
0.00137303
0.00137332
0.0013735
0.00137321
0.0013732
0.00137327
0.00137316
0.00137321
0.00137325
0.00137317
0.0013728
0.00137305
0.00137333
0.0013732
0.00137275
0.00137274
0.00137302
0.00137272
0.00137291
0.00137311
0.00137296
0.00137294
0.00137292
0.00137288
0.0013726
0.0013721
0.00137189
0.00137138
0.00137132
0.0013721
0.0013723
0.00137221
0.00137213
0.00137159
0.00137163
0.00137224
0.00137237
0.00137225
0.00137217
0.00137211
0.0013715
0.00137138
0.00137169
0.0013719
0.00137179
0.00137172
0.00137169
0.00137094
0.00118235
0.00122102
0.00126194
0.001302
0.00133431
0.0013556
0.00136658
0.00137005
0.00137026
0.00137008
0.00136988
0.00136925
0.00136952
0.00137038
0.00136981
0.00136987
0.00136992
0.0013692
0.00136913
0.00136971
0.00136935
0.00136955
0.00136976
0.00136906
0.00136911
0.00136955
0.00136925
0.00136961
0.0013701
0.00136998
0.00137049
0.00137093
0.00137123
0.00137162
0.00137178
0.00137212
0.00137226
0.0013725
0.00137269
0.0013726
0.00137239
0.00137248
0.00137261
0.00137241
0.00137279
0.00137331
0.00137293
0.00137325
0.00137374
0.00137368
0.00137373
0.00137363
0.00137354
0.00137347
0.00137345
0.00137328
0.00137262
0.00137228
0.00137242
0.0013726
0.00137242
0.00137181
0.00137196
0.00137241
0.0013721
0.00137207
0.00137204
0.00137194
0.0013715
0.00137137
0.00137217
0.00137254
0.00137237
0.00137235
0.00137224
0.00137211
0.00137151
0.00137145
0.001372
0.00137184
0.00137216
0.00137247
0.00137245
0.00137243
0.00137218
0.00137214
0.00137195
0.00137189
0.00137167
0.00137092
0.00118252
0.00122073
0.00126202
0.00130209
0.00133432
0.00135566
0.00136644
0.00136924
0.0013693
0.0013691
0.00136936
0.00137013
0.0013699
0.00136964
0.00136891
0.0013688
0.00136896
0.00136901
0.00136897
0.00136867
0.00136847
0.00136803
0.0013679
0.00136762
0.0013679
0.00136823
0.00136823
0.00136826
0.00136834
0.00136887
0.00136911
0.0013696
0.00137002
0.00137035
0.00137081
0.00137118
0.00137151
0.0013717
0.00137199
0.00137226
0.00137221
0.00137271
0.00137307
0.00137327
0.00137348
0.00137346
0.00137323
0.00137303
0.00137298
0.00137282
0.00137234
0.00137206
0.00137209
0.00137226
0.00137213
0.0013716
0.00137168
0.00137171
0.00137113
0.00137102
0.0013719
0.00137241
0.00137217
0.00137217
0.00137215
0.00137201
0.00137173
0.00137126
0.00137144
0.00137199
0.00137192
0.0013719
0.00137174
0.00137121
0.00137115
0.00137119
0.0013707
0.00137066
0.00137157
0.00137189
0.00137184
0.00137181
0.00137121
0.0013714
0.001372
0.0013717
0.00137188
0.00137197
0.00137179
0.00137113
0.0011824
0.00122096
0.00126204
0.00130188
0.00133429
0.00135585
0.00136669
0.00136949
0.00136928
0.00136941
0.00136982
0.00136951
0.00136928
0.00136886
0.00136874
0.00136859
0.00136822
0.0013683
0.00136866
0.00136848
0.00136914
0.00136923
0.00136899
0.00136875
0.00136832
0.00136823
0.00136796
0.00136821
0.00136897
0.00136926
0.00136947
0.00136935
0.0013697
0.00137037
0.00137061
0.00137139
0.001372
0.00137206
0.00137266
0.00137328
0.00137362
0.00137395
0.00137396
0.00137403
0.00137401
0.00137377
0.00137288
0.00137248
0.00137276
0.00137289
0.0013725
0.00137266
0.00137294
0.00137281
0.00137278
0.00137272
0.00137267
0.00137252
0.00137231
0.00137179
0.00137199
0.00137231
0.00137215
0.00137192
0.00137161
0.00137191
0.00137205
0.00137189
0.00137164
0.00137127
0.00137146
0.00137157
0.00137109
0.00137121
0.00137179
0.00137177
0.00137176
0.00137165
0.0013712
0.00137131
0.00137163
0.00137113
0.00137125
0.00137199
0.00137211
0.00137201
0.00137193
0.0013718
0.00137163
0.00137106
0.00118231
0.00122106
0.00126201
0.00130189
0.00133442
0.00135554
0.00136668
0.00137058
0.00137083
0.00137067
0.00137047
0.00136996
0.00136959
0.00137012
0.00137035
0.00136972
0.00136966
0.00136951
0.00136917
0.00136872
0.00136847
0.00136902
0.00136899
0.00136876
0.00136833
0.00136829
0.00136893
0.00136924
0.00136945
0.0013697
0.00137002
0.0013704
0.00137083
0.00137136
0.0013719
0.00137228
0.00137281
0.00137333
0.00137378
0.00137391
0.00137393
0.00137393
0.00137394
0.00137355
0.00137312
0.00137288
0.00137293
0.00137293
0.00137296
0.00137285
0.00137247
0.0013723
0.00137263
0.00137267
0.00137294
0.00137311
0.00137267
0.00137279
0.00137297
0.00137268
0.00137259
0.00137252
0.00137236
0.00137163
0.00137173
0.00137238
0.00137236
0.0013723
0.00137183
0.00137163
0.00137209
0.00137231
0.00137212
0.00137171
0.0013715
0.00137186
0.00137195
0.00137178
0.00137142
0.00137122
0.00137158
0.00137184
0.0013717
0.00137133
0.0013715
0.00137195
0.00137186
0.00137183
0.00137173
0.00137105
0.00118241
0.00122084
0.00126231
0.00130193
0.00133384
0.00135556
0.00136734
0.00137082
0.00137069
0.0013706
0.00137088
0.00137068
0.00137054
0.00137031
0.00136988
0.00136944
0.00136966
0.00137017
0.00136997
0.00136959
0.00136883
0.00136886
0.00136901
0.00136843
0.00136859
0.00136919
0.0013688
0.0013692
0.00136977
0.00136968
0.00137026
0.00137087
0.00137132
0.00137189
0.00137227
0.0013724
0.00137263
0.00137301
0.0013734
0.00137369
0.00137372
0.00137388
0.00137406
0.00137421
0.00137421
0.00137397
0.00137389
0.00137342
0.00137358
0.00137393
0.00137386
0.00137376
0.00137372
0.00137368
0.00137348
0.00137314
0.00137288
0.00137273
0.00137263
0.00137245
0.00137221
0.00137232
0.00137214
0.00137244
0.00137268
0.00137261
0.00137254
0.00137228
0.00137216
0.00137161
0.00137144
0.00137199
0.00137217
0.00137208
0.00137201
0.00137145
0.00137161
0.00137225
0.00137219
0.00137205
0.00137162
0.0013715
0.00137174
0.00137197
0.00137185
0.00137162
0.0013715
0.0013714
0.00137127
0.00137089
0.00118239
0.00122101
0.00126188
0.00130189
0.00133481
0.00135545
0.00136625
0.00136934
0.00136905
0.00136897
0.0013691
0.00136848
0.00136841
0.00136862
0.00136828
0.00136777
0.00136745
0.00136771
0.0013678
0.00136807
0.00136776
0.00136743
0.00136704
0.00136717
0.00136829
0.00136849
0.00136795
0.00136828
0.00136896
0.001369
0.00136961
0.00137032
0.00137074
0.00137134
0.00137197
0.00137246
0.00137281
0.00137272
0.00137284
0.0013731
0.00137301
0.00137316
0.00137352
0.00137378
0.00137409
0.00137424
0.00137422
0.00137389
0.00137409
0.00137431
0.00137427
0.00137423
0.001374
0.00137351
0.00137327
0.00137298
0.0013729
0.00137284
0.00137239
0.00137261
0.00137275
0.00137254
0.00137219
0.00137189
0.00137199
0.00137213
0.00137195
0.00137171
0.00137156
0.0013712
0.0013714
0.00137214
0.00137215
0.00137213
0.00137201
0.00137194
0.00137171
0.00137134
0.00137124
0.00137105
0.00137097
0.00137167
0.00137248
0.00137236
0.00137234
0.0013723
0.00137189
0.00137189
0.00137194
0.00137133
0.00118238
0.00122092
0.00126217
0.00130207
0.00133381
0.00135534
0.00136742
0.0013712
0.00137112
0.00137113
0.00137134
0.0013707
0.0013704
0.00137041
0.00136996
0.0013698
0.00136952
0.00136917
0.00136894
0.00136853
0.00136799
0.00136788
0.00136842
0.00136833
0.00136814
0.00136857
0.00136902
0.00136868
0.00136921
0.00136976
0.00136975
0.00137051
0.00137119
0.00137153
0.0013723
0.001373
0.00137357
0.00137413
0.00137445
0.00137458
0.00137472
0.00137473
0.00137417
0.00137376
0.00137351
0.0013735
0.0013735
0.00137344
0.00137348
0.00137362
0.00137359
0.00137337
0.0013729
0.00137267
0.00137289
0.0013727
0.00137288
0.00137322
0.00137318
0.00137297
0.00137236
0.00137214
0.00137255
0.00137281
0.00137265
0.00137231
0.0013725
0.00137277
0.0013727
0.00137262
0.00137191
0.00137195
0.0013721
0.00137201
0.00137195
0.00137135
0.00137162
0.00137215
0.00137207
0.00137203
0.00137177
0.0013717
0.00137127
0.0013715
0.00137183
0.00137177
0.00137175
0.00137151
0.00137139
0.00137075
0.00118231
0.00122118
0.00126206
0.00130162
0.0013346
0.00135537
0.00136655
0.0013704
0.00137075
0.00137047
0.00136982
0.0013696
0.00136956
0.00136916
0.00136852
0.00136823
0.00136862
0.00136845
0.00136803
0.00136742
0.0013672
0.00136704
0.00136668
0.00136693
0.00136731
0.00136684
0.00136719
0.001368
0.0013683
0.00136873
0.00136916
0.00136969
0.00136961
0.0013703
0.00137109
0.0013715
0.00137218
0.00137281
0.00137344
0.00137394
0.00137442
0.00137472
0.00137494
0.00137506
0.00137523
0.00137528
0.00137519
0.0013748
0.0013746
0.0013741
0.00137317
0.00137321
0.0013735
0.00137334
0.00137317
0.00137267
0.00137261
0.0013725
0.00137272
0.00137414
0.00137429
0.00137404
0.00137355
0.00137334
0.00137329
0.00137273
0.00137284
0.00137324
0.00137291
0.001373
0.001373
0.00137286
0.00137274
0.0013726
0.00137248
0.0013723
0.00137161
0.00137163
0.0013718
0.00137172
0.00137168
0.00137129
0.00137178
0.00137212
0.00137198
0.0013715
0.00137154
0.00137171
0.0013716
0.00137117
0.00118236
0.00122098
0.00126213
0.00130212
0.00133384
0.001355
0.00136723
0.00137206
0.00137254
0.00137226
0.00137159
0.00137124
0.00137127
0.00137072
0.00137043
0.00137044
0.00137019
0.00136974
0.00136925
0.00136853
0.00136835
0.00136845
0.00136819
0.00136804
0.00136758
0.00136764
0.00136779
0.00136823
0.00136879
0.00136904
0.00136978
0.00137047
0.00137109
0.00137188
0.00137254
0.00137324
0.00137387
0.00137443
0.00137482
0.00137516
0.00137547
0.00137556
0.00137514
0.00137477
0.00137454
0.00137446
0.00137439
0.00137433
0.00137414
0.00137375
0.00137289
0.00137286
0.0013731
0.00137298
0.00137286
0.0013724
0.0013729
0.00137355
0.00137341
0.00137338
0.00137319
0.00137297
0.00137246
0.0013726
0.00137274
0.0013723
0.00137226
0.00137263
0.00137259
0.00137246
0.00137238
0.00137212
0.00137173
0.00137194
0.00137232
0.00137228
0.00137224
0.00137208
0.001372
0.00137141
0.0013714
0.00137201
0.00137217
0.00137204
0.00137192
0.00137179
0.00137159
0.0013715
0.00137144
0.00137087
0.00118236
0.001221
0.00126202
0.00130223
0.00133375
0.00135508
0.00136747
0.00137162
0.00137163
0.00137182
0.00137214
0.0013719
0.00137146
0.00137059
0.00137004
0.00136981
0.0013695
0.00136891
0.00136874
0.00136869
0.00136795
0.00136792
0.00136832
0.00136766
0.00136772
0.0013685
0.00136869
0.00136889
0.00136915
0.0013696
0.00137016
0.00137088
0.00137142
0.00137215
0.00137297
0.00137377
0.00137438
0.00137487
0.00137507
0.00137508
0.0013752
0.00137529
0.00137516
0.00137508
0.00137504
0.00137496
0.00137466
0.00137367
0.00137336
0.00137387
0.00137407
0.00137403
0.00137383
0.00137357
0.00137305
0.00137315
0.00137364
0.00137306
0.00137282
0.00137293
0.00137265
0.00137268
0.00137344
0.00137348
0.00137333
0.0013733
0.00137318
0.00137303
0.00137276
0.0013722
0.00137188
0.00137239
0.00137292
0.00137277
0.00137274
0.00137258
0.00137262
0.0013726
0.00137229
0.00137223
0.00137219
0.00137205
0.00137143
0.00137158
0.00137192
0.00137187
0.00137185
0.00137162
0.00137149
0.0013708
0.00118237
0.00122092
0.00126223
0.00130201
0.00133377
0.00135529
0.00136704
0.0013716
0.00137197
0.0013715
0.0013711
0.00137077
0.00137041
0.00137013
0.00137013
0.00136973
0.0013691
0.00136866
0.00136808
0.00136811
0.00136834
0.00136798
0.00136765
0.0013673
0.0013673
0.00136729
0.00136748
0.00136763
0.0013682
0.00136878
0.00136929
0.00137
0.00137072
0.00137157
0.00137233
0.00137276
0.00137271
0.0013728
0.00137341
0.00137411
0.00137461
0.00137503
0.0013753
0.00137544
0.00137557
0.00137569
0.00137574
0.00137548
0.00137485
0.00137358
0.00137338
0.00137365
0.00137368
0.00137345
0.00137305
0.00137267
0.00137299
0.00137359
0.00137299
0.00137285
0.0013731
0.00137271
0.00137266
0.00137342
0.0013735
0.00137325
0.00137261
0.00137242
0.0013725
0.00137193
0.00137188
0.00137217
0.00137185
0.00137166
0.00137207
0.0013723
0.00137219
0.00137211
0.00137162
0.00137186
0.00137226
0.00137202
0.00137204
0.00137203
0.00137197
0.00137158
0.00137145
0.0013714
0.00137125
0.00137069
0.00118221
0.0012212
0.00126211
0.00130186
0.00133396
0.00135554
0.00136698
0.0013706
0.00137072
0.00137014
0.00136984
0.00136974
0.00136934
0.00136907
0.00136883
0.00136834
0.00136749
0.00136725
0.00136762
0.00136719
0.00136683
0.00136631
0.00136627
0.00136741
0.00136792
0.00136759
0.00136804
0.00136848
0.00136864
0.00136916
0.00136977
0.00137057
0.00137141
0.00137224
0.001373
0.00137375
0.00137433
0.00137486
0.00137525
0.00137561
0.00137569
0.00137578
0.0013758
0.0013756
0.00137546
0.00137492
0.00137449
0.00137411
0.00137394
0.00137368
0.00137314
0.00137277
0.00137362
0.00137475
0.00137437
0.00137418
0.00137471
0.00137529
0.00137511
0.00137487
0.00137448
0.0013743
0.00137411
0.00137344
0.00137335
0.00137353
0.00137337
0.00137328
0.00137317
0.00137309
0.00137258
0.00137277
0.00137304
0.00137294
0.00137288
0.00137258
0.00137251
0.0013723
0.00137206
0.00137195
0.00137175
0.00137185
0.0013719
0.00137149
0.00137154
0.00137154
0.00137141
0.00137142
0.00137125
0.00137058
0.00118237
0.00122103
0.001262
0.00130183
0.00133433
0.00135588
0.00136618
0.00136849
0.00136834
0.00136861
0.00136951
0.00136916
0.0013688
0.00136836
0.00136758
0.00136737
0.00136757
0.00136701
0.00136657
0.00136602
0.0013662
0.0013676
0.00136721
0.00136741
0.00136785
0.00136775
0.00136798
0.00136825
0.00136863
0.00136918
0.00136994
0.00137067
0.00137149
0.00137235
0.00137313
0.00137357
0.00137363
0.00137397
0.00137442
0.00137484
0.0013752
0.00137549
0.0013757
0.00137583
0.00137573
0.00137517
0.00137476
0.00137453
0.00137383
0.0013738
0.00137403
0.00137361
0.00137366
0.00137362
0.00137338
0.00137318
0.00137255
0.00137235
0.00137244
0.00137225
0.00137174
0.00137176
0.00137196
0.00137175
0.00137163
0.00137109
0.00137127
0.00137153
0.00137143
0.0013713
0.00137124
0.00137185
0.00137232
0.00137255
0.00137237
0.00137233
0.00137225
0.00137217
0.00137199
0.00137147
0.00137161
0.00137199
0.00137186
0.00137184
0.0013718
0.00137172
0.00137127
0.00137083
0.0013707
0.00137043
0.00118242
0.00122081
0.00126233
0.00130186
0.0013338
0.00135548
0.00136718
0.00137113
0.00137132
0.00137106
0.00137076
0.00137001
0.00136975
0.00137009
0.00136976
0.00136908
0.00136879
0.00136842
0.00136786
0.00136728
0.00136674
0.00136705
0.0013672
0.00136728
0.00136759
0.00136732
0.00136751
0.00136774
0.00136846
0.00136913
0.00136978
0.00137062
0.00137137
0.00137207
0.00137273
0.00137347
0.00137397
0.00137452
0.001375
0.00137546
0.00137574
0.00137598
0.00137608
0.00137613
0.00137617
0.00137607
0.00137568
0.0013749
0.00137399
0.00137382
0.00137375
0.00137355
0.00137309
0.00137309
0.00137438
0.00137444
0.001374
0.00137389
0.00137416
0.00137396
0.00137416
0.00137418
0.00137353
0.00137356
0.00137394
0.00137384
0.00137374
0.00137367
0.00137359
0.00137327
0.00137314
0.0013727
0.00137235
0.00137235
0.00137222
0.00137256
0.0013731
0.00137253
0.00137261
0.00137311
0.00137304
0.00137312
0.00137311
0.001373
0.00137296
0.00137279
0.00137245
0.00137232
0.00137204
0.00137108
0.00118237
0.00122095
0.0012621
0.00130215
0.00133363
0.00135538
0.00136727
0.00137102
0.00137201
0.00137188
0.00137095
0.00137077
0.00137069
0.0013702
0.00136975
0.00136893
0.00136882
0.00136876
0.00136789
0.00136763
0.00136798
0.00136766
0.00136724
0.00136729
0.00136787
0.00136751
0.00136797
0.00136856
0.00136882
0.00136946
0.00137016
0.001371
0.00137194
0.00137279
0.00137357
0.00137412
0.0013745
0.00137494
0.00137523
0.00137485
0.00137471
0.00137492
0.00137486
0.00137496
0.00137504
0.00137507
0.00137497
0.00137434
0.00137435
0.0013747
0.00137455
0.00137431
0.00137359
0.0013734
0.00137434
0.00137538
0.00137517
0.00137468
0.00137475
0.00137499
0.00137484
0.0013747
0.00137427
0.00137411
0.0013737
0.0013737
0.00137365
0.00137339
0.0013733
0.00137318
0.00137272
0.00137283
0.00137333
0.00137273
0.00137274
0.00137336
0.00137337
0.0013732
0.00137256
0.00137249
0.00137265
0.00137213
0.00137229
0.0013726
0.00137259
0.00137257
0.00137224
0.00137219
0.00137197
0.00137119
0.0011824
0.00122105
0.00126176
0.00130215
0.00133424
0.00135553
0.00136638
0.00136953
0.00136955
0.00136899
0.00136885
0.00136887
0.00136842
0.00136804
0.0013674
0.00136748
0.0013676
0.00136719
0.00136772
0.00136826
0.00136827
0.00136783
0.00136725
0.00136717
0.00136713
0.00136708
0.00136691
0.00136744
0.00136825
0.00136867
0.00136951
0.00137038
0.00137121
0.00137192
0.00137287
0.0013737
0.00137449
0.00137511
0.0013753
0.00137519
0.00137532
0.00137494
0.00137477
0.00137485
0.0013749
0.00137483
0.00137431
0.0013744
0.00137447
0.00137405
0.00137402
0.00137389
0.00137337
0.00137337
0.0013733
0.00137294
0.00137269
0.00137244
0.0013721
0.0013723
0.00137261
0.00137231
0.00137215
0.00137194
0.00137242
0.00137305
0.00137297
0.00137281
0.00137269
0.00137226
0.00137192
0.00137198
0.00137198
0.00137201
0.00137232
0.0013722
0.00137208
0.00137199
0.00137153
0.00137171
0.00137204
0.00137192
0.00137179
0.00137156
0.00137125
0.00137141
0.00137197
0.00137193
0.00137186
0.00137114
0.00118229
0.00122105
0.0012622
0.00130171
0.00133414
0.00135544
0.00136692
0.00137073
0.00137101
0.00137075
0.00137053
0.00137009
0.00136939
0.00136927
0.00136923
0.00136872
0.00136824
0.00136727
0.00136698
0.00136721
0.00136667
0.00136631
0.00136594
0.00136621
0.00136662
0.00136621
0.00136655
0.00136787
0.00136855
0.00136912
0.00136991
0.00137064
0.00137128
0.0013721
0.00137282
0.00137349
0.00137415
0.00137473
0.00137525
0.00137572
0.00137588
0.00137595
0.00137603
0.00137608
0.00137583
0.00137541
0.00137493
0.00137465
0.00137447
0.00137413
0.00137332
0.00137302
0.00137363
0.00137377
0.00137347
0.00137332
0.00137318
0.00137291
0.00137214
0.00137176
0.00137196
0.00137253
0.00137241
0.0013717
0.00137159
0.00137225
0.00137238
0.00137225
0.00137214
0.00137164
0.00137142
0.00137141
0.00137101
0.00137112
0.00137159
0.0013715
0.00137117
0.00137117
0.00137155
0.00137159
0.00137155
0.00137106
0.00137117
0.00137127
0.00137113
0.00137162
0.00137195
0.0013719
0.00137187
0.00137099
0.0011824
0.00122086
0.00126226
0.00130193
0.00133375
0.00135547
0.00136723
0.00137066
0.00137049
0.00137043
0.00137071
0.00137042
0.00136996
0.00136991
0.00136996
0.00136909
0.00136892
0.00136897
0.001368
0.00136781
0.00136786
0.00136696
0.00136661
0.00136687
0.00136681
0.0013673
0.00136798
0.00136795
0.00136864
0.00136951
0.00137024
0.00137114
0.00137197
0.00137291
0.00137363
0.00137395
0.0013742
0.00137462
0.00137496
0.00137527
0.00137556
0.00137577
0.00137597
0.00137611
0.00137618
0.00137615
0.00137593
0.00137538
0.00137441
0.00137377
0.00137373
0.00137363
0.0013734
0.00137303
0.00137318
0.00137336
0.00137313
0.0013729
0.00137222
0.00137219
0.00137239
0.00137218
0.00137193
0.00137179
0.00137155
0.00137181
0.00137232
0.00137212
0.00137207
0.00137186
0.00137179
0.00137171
0.00137149
0.00137116
0.00137164
0.00137214
0.001372
0.00137158
0.00137155
0.00137188
0.00137185
0.00137181
0.00137157
0.00137116
0.00137135
0.00137163
0.00137149
0.00137147
0.00137131
0.00137074
0.00118236
0.001221
0.00126201
0.00130222
0.0013337
0.00135508
0.00136728
0.0013719
0.00137227
0.00137193
0.00137162
0.00137121
0.00137032
0.00136985
0.00136988
0.00136949
0.00136888
0.00136859
0.0013685
0.00136765
0.00136754
0.00136781
0.00136702
0.00136683
0.00136726
0.00136725
0.0013678
0.00136831
0.00136851
0.00136924
0.00137014
0.00137094
0.00137183
0.00137282
0.00137365
0.00137426
0.00137473
0.00137505
0.0013754
0.00137575
0.00137605
0.0013763
0.00137641
0.00137652
0.00137648
0.00137606
0.00137587
0.00137536
0.00137506
0.00137489
0.00137465
0.00137429
0.00137353
0.0013738
0.00137504
0.0013754
0.00137554
0.0013752
0.0013752
0.00137509
0.00137479
0.00137414
0.00137414
0.00137434
0.00137378
0.0013738
0.00137388
0.00137372
0.0013736
0.00137345
0.00137331
0.0013731
0.00137253
0.00137256
0.0013726
0.00137232
0.00137221
0.00137208
0.00137186
0.00137207
0.0013725
0.00137239
0.00137226
0.00137165
0.0013717
0.00137207
0.00137207
0.00137206
0.00137191
0.00137128
0.00118237
0.00122095
0.0012621
0.00130215
0.00133363
0.00135538
0.00136727
0.00137103
0.00137202
0.00137189
0.00137095
0.00137062
0.0013707
0.00137044
0.0013699
0.00136902
0.00136881
0.00136878
0.00136811
0.00136765
0.00136706
0.00136695
0.00136745
0.00136701
0.00136704
0.001368
0.0013684
0.0013686
0.00136911
0.00136971
0.00137046
0.00137121
0.00137194
0.00137271
0.00137346
0.00137394
0.00137443
0.00137493
0.00137524
0.00137487
0.00137477
0.00137466
0.00137484
0.00137501
0.0013752
0.0013753
0.00137507
0.00137442
0.00137441
0.00137461
0.00137452
0.00137439
0.0013736
0.0013736
0.00137443
0.00137416
0.00137397
0.00137454
0.00137487
0.00137465
0.0013745
0.00137435
0.0013742
0.0013737
0.00137315
0.00137313
0.00137322
0.00137331
0.00137323
0.00137302
0.00137274
0.00137242
0.00137246
0.00137223
0.00137252
0.00137289
0.00137237
0.00137254
0.00137264
0.0013725
0.00137246
0.00137233
0.00137218
0.00137182
0.00137164
0.00137115
0.00137134
0.00137183
0.0013717
0.00137118
0.00118242
0.0012208
0.00126234
0.00130185
0.00133378
0.00135559
0.00136695
0.00137118
0.00137145
0.0013708
0.00137072
0.00137071
0.00137026
0.00136962
0.00136915
0.00136925
0.00136869
0.00136851
0.0013682
0.00136733
0.00136696
0.0013675
0.00136766
0.00136738
0.00136735
0.00136746
0.00136771
0.0013679
0.00136785
0.00136861
0.00136947
0.00137015
0.00137114
0.00137197
0.00137288
0.00137382
0.0013747
0.0013754
0.0013759
0.00137602
0.00137588
0.00137588
0.00137589
0.00137587
0.0013759
0.0013758
0.00137543
0.00137437
0.00137388
0.00137399
0.00137417
0.00137392
0.00137325
0.00137332
0.00137462
0.00137476
0.00137452
0.00137412
0.00137429
0.00137488
0.00137473
0.00137455
0.0013738
0.00137379
0.00137399
0.00137367
0.00137359
0.00137365
0.00137358
0.00137336
0.00137282
0.00137282
0.0013731
0.00137297
0.00137292
0.00137289
0.00137284
0.00137257
0.00137209
0.0013722
0.00137271
0.00137249
0.00137263
0.00137276
0.00137269
0.00137265
0.00137239
0.00137226
0.00137201
0.00137114
0.0011824
0.00122099
0.001262
0.00130189
0.0013343
0.00135564
0.00136644
0.00136934
0.00136935
0.00136895
0.00136888
0.00136924
0.00136875
0.00136852
0.00136815
0.00136759
0.00136707
0.00136709
0.00136704
0.00136628
0.00136594
0.00136674
0.00136747
0.00136724
0.00136689
0.00136709
0.00136756
0.00136721
0.00136776
0.00136866
0.00136932
0.00137015
0.00137086
0.00137176
0.00137272
0.00137359
0.00137405
0.00137471
0.00137514
0.00137509
0.001375
0.00137514
0.00137522
0.00137486
0.0013748
0.00137475
0.00137424
0.00137439
0.00137464
0.00137422
0.00137392
0.001374
0.0013741
0.00137392
0.00137364
0.00137365
0.00137364
0.00137343
0.00137323
0.0013723
0.00137215
0.00137278
0.00137282
0.00137255
0.0013719
0.00137188
0.00137241
0.00137209
0.00137232
0.00137245
0.00137235
0.00137227
0.00137161
0.00137153
0.001372
0.00137173
0.00137186
0.00137228