/*--------------------------------*- C++ -*----------------------------------*\
  =========                 |
  \\      /  F ield         | OpenFOAM: The Open Source CFD Toolbox
   \\    /   O peration     | Website:  https://openfoam.org
    \\  /    A nd           | Version:  11
     \\/     M anipulation  |
\*---------------------------------------------------------------------------*/
FoamFile
{
    format      ascii;
    class       volScalarField;
    location    "0.086";
    object      omega;
}
// * * * * * * * * * * * * * * * * * * * * * * * * * * * * * * * * * * * * * //

dimensions      [0 0 -1 0 0 0 0];

internalField   nonuniform List<scalar> 
287084
(
55.0086
55.9012
56.8369
57.7127
58.3888
58.8078
58.9914
59.0249
59.0229
59.0227
59.0225
59.0167
59.0209
59.0336
59.0303
59.0324
59.0363
59.0355
59.0342
59.0335
59.0314
59.0238
59.0263
59.0477
59.0488
59.0471
59.0462
59.036
59.0354
59.0421
59.0496
59.0477
59.0371
59.041
59.0422
59.0401
59.0405
59.037
59.0339
59.03
59.0212
59.0178
59.0109
59.008
59.0027
59.0001
58.9975
58.9934
58.9906
58.9861
58.9762
58.9794
58.9945
58.9917
58.9914
58.9906
58.9909
58.9881
58.9799
58.9756
58.9828
58.9882
58.9857
58.9773
58.9827
59.0037
59.0038
59.0005
58.9893
58.9921
58.9983
58.9982
58.9982
58.9866
58.9907
59.0016
58.9947
59.0003
59.0036
59.0033
59.0032
58.9919
58.9902
59.0038
59.0116
59.0112
59.0117
59.0098
59.006
58.9877
55.01
55.9008
56.8241
57.6956
58.3758
58.8075
59.0028
59.0384
59.0333
59.0429
59.0601
59.0516
59.0574
59.0619
59.0617
59.0616
59.0556
59.0464
59.0469
59.0487
59.0426
59.0399
59.0542
59.0755
59.0707
59.0762
59.0787
59.0756
59.0757
59.0743
59.0719
59.0559
59.0517
59.0529
59.0439
59.0482
59.0504
59.048
59.0466
59.0351
59.0383
59.0417
59.04
59.0396
59.0341
59.0312
59.0197
59.0218
59.0342
59.0334
59.0312
59.0273
59.027
59.0248
59.0225
59.0175
59.0103
59.007
59.0049
59.0044
59.0011
58.9976
59.0107
59.019
59.0179
59.0176
59.0083
59.0153
59.0239
59.0218
59.0168
59.0142
59.0213
59.0216
59.0256
59.0299
59.0285
59.0296
59.0267
59.014
59.017
59.0223
59.0194
59.0195
59.0156
59.0162
59.0152
59.0171
59.0163
59.0061
55.0103
55.9005
56.8216
57.6974
58.371
58.7973
59.008
59.0588
59.0587
59.0605
59.0598
59.0506
59.0534
59.058
59.0541
59.0536
59.0471
59.0562
59.0668
59.0674
59.0675
59.0615
59.0573
59.0685
59.0788
59.0772
59.0756
59.0757
59.0762
59.0706
59.0723
59.0696
59.0679
59.0667
59.0673
59.0667
59.0671
59.0634
59.0539
59.0485
59.0434
59.0276
59.0288
59.0348
59.0349
59.0348
59.0271
59.0204
59.0268
59.0343
59.0293
59.0293
59.0298
59.0293
59.0262
59.0261
59.0223
59.0121
59.0094
59.0075
58.9993
59.0051
59.0137
59.0114
59.0112
59.0037
59.0143
59.029
59.0232
59.0264
59.0274
59.0263
59.0266
59.0251
59.0247
59.0206
59.0172
59.007
59.0093
59.0127
59.0091
59.0039
59.0065
59.0178
59.0099
59.0164
59.0225
59.0224
59.0222
59.0056
55.009
55.8994
56.8248
57.6944
58.365
58.7936
59.0082
59.0642
59.0654
59.0588
59.0588
59.0698
59.0718
59.069
59.0633
59.0566
59.0554
59.0524
59.0604
59.0697
59.0638
59.0653
59.0627
59.0529
59.0565
59.0624
59.0623
59.0621
59.0495
59.0467
59.0622
59.0696
59.0628
59.0672
59.0687
59.0678
59.0676
59.0653
59.0647
59.0591
59.0572
59.054
59.0512
59.0477
59.0425
59.0254
59.0247
59.0283
59.0279
59.0274
59.0151
59.0176
59.0217
59.0178
59.0178
59.0184
59.0196
59.0167
59.0067
59.011
59.0237
59.0191
59.019
59.0191
59.0183
59.0124
59.0113
59.0097
59.0064
59.016
59.0274
59.0244
59.0256
59.0238
59.021
59.0116
59.0132
59.0266
59.0229
59.0279
59.0331
59.0305
59.0213
59.0227
59.0281
59.0275
59.0276
59.0235
59.0203
59.0064
55.0086
55.8995
56.8263
57.6884
58.3675
58.7996
58.9913
59.0606
59.0651
59.064
59.0637
59.0532
59.0585
59.0629
59.0568
59.0561
59.0559
59.0467
59.0494
59.0557
59.0554
59.0554
59.0453
59.0537
59.0657
59.062
59.0632
59.0619
59.0561
59.06
59.0657
59.0577
59.0609
59.0631
59.0619
59.0608
59.0515
59.0434
59.0499
59.0547
59.0515
59.0534
59.0535
59.0507
59.0489
59.0488
59.0501
59.0483
59.0458
59.0422
59.0354
59.0309
59.0281
59.0222
59.0189
59.0162
59.0118
58.9974
58.9979
59.0091
59.0116
59.0093
59.0003
58.9994
58.9988
58.9989
58.9924
58.9972
59.0091
59.0081
59.008
59.0001
59.0087
59.0286
59.0219
59.0286
59.0336
59.024
59.0271
59.0316
59.0263
59.0295
59.0302
59.0266
59.0174
59.0119
59.0187
59.0214
59.0182
59.0071
55.009
55.8993
56.8224
57.692
58.3744
58.7913
58.9782
59.0311
59.0626
59.0622
59.0528
59.0559
59.0576
59.0555
59.0543
59.0429
59.0431
59.055
59.0554
59.0589
59.0597
59.0566
59.0466
59.0447
59.0538
59.0552
59.0488
59.0508
59.0669
59.0683
59.0636
59.0669
59.068
59.0655
59.0636
59.0577
59.0527
59.0375
59.0383
59.0447
59.036
59.039
59.0426
59.0395
59.0392
59.0365
59.0324
59.0189
59.0169
59.0212
59.0232
59.0234
59.0184
59.0142
59.0178
59.0234
59.0231
59.023
59.0181
59.0144
59.0123
59.0119
59.0151
59.0162
59.0137
59.0048
59.0088
59.0234
59.0179
59.0243
59.0285
59.0279
59.0278
59.0211
59.0199
59.0107
59.0142
59.0256
59.0188
59.024
59.0265
59.0237
59.0187
59.0133
59.0155
59.0152
59.0222
59.0256
59.0223
59.0112
55.0081
55.8986
56.8235
57.6903
58.3775
58.7832
58.9868
59.048
59.0502
59.0493
59.0489
59.0425
59.0381
59.0518
59.0589
59.0556
59.07
59.0889
59.0868
59.0857
59.0906
59.0938
59.0907
59.0846
59.0777
59.0773
59.0772
59.0799
59.0806
59.0786
59.0766
59.076
59.0727
59.0591
59.0589
59.0614
59.0615
59.0609
59.0438
59.0435
59.0485
59.0493
59.0489
59.039
59.0379
59.0368
59.033
59.0311
59.0304
59.0304
59.0283
59.0143
59.013
59.0168
59.0177
59.0178
59.0151
59.0145
59.0042
59.01
59.0188
59.0179
59.018
59.016
59.0152
59.003
59.0066
59.0153
59.0135
59.0133
59.0051
59.0088
59.015
59.0134
59.0087
59.0121
59.0215
59.0178
59.0196
59.0172
59.0103
59.0084
59.0194
59.0241
59.0231
59.0228
59.0127
59.0163
59.0209
59.0093
55.0096
55.8957
56.8284
57.6941
58.356
58.7859
59.0082
59.0902
59.1006
59.0982
59.0887
59.0918
59.0986
59.0936
59.0937
59.0913
59.0958
59.0977
59.0945
59.0835
59.0819
59.0883
59.0831
59.0885
59.0946
59.0907
59.0935
59.0943
59.0932
59.0934
59.0896
59.0891
59.0869
59.0844
59.0837
59.0814
59.0778
59.0712
59.0521
59.0532
59.0584
59.0557
59.056
59.0548
59.0527
59.0414
59.0373
59.0365
59.0347
59.0362
59.0353
59.0296
59.0223
59.0292
59.0348
59.0321
59.0228
59.0246
59.0319
59.026
59.0306
59.0354
59.0349
59.0358
59.0342
59.0314
59.0257
59.016
59.0131
59.0055
59.0076
59.0251
59.0289
59.0272
59.0242
59.0153
59.0189
59.031
59.0318
59.0323
59.0308
59.0299
59.0154
59.0152
59.0237
59.0249
59.0249
59.0238
59.0231
59.0088
55.0089
55.8982
56.8226
57.6951
58.3663
58.7883
58.9935
59.0503
59.0524
59.0498
59.0458
59.0386
59.0521
59.0739
59.0658
59.0717
59.0768
59.0662
59.0703
59.0877
59.0825
59.0896
59.0955
59.082
59.0848
59.0941
59.0857
59.0905
59.0966
59.0898
59.0941
59.0957
59.0938
59.0932
59.087
59.0833
59.0768
59.0731
59.068
59.0573
59.0453
59.0408
59.0384
59.0308
59.0355
59.0425
59.0312
59.0359
59.0442
59.0428
59.0432
59.0378
59.0361
59.037
59.037
59.0311
59.0147
59.0111
59.0165
59.0208
59.0186
59.006
59.0115
59.0217
59.0172
59.0173
59.018
59.0172
59.0055
59.0051
59.0266
59.0331
59.0292
59.0287
59.0267
59.026
59.0149
59.0158
59.0296
59.0252
59.0323
59.0384
59.038
59.0379
59.0323
59.0316
59.0273
59.0262
59.0219
59.0076
55.0127
55.8912
56.8248
57.6968
58.3661
58.7889
58.9886
59.0332
59.033
59.0308
59.0405
59.0601
59.0596
59.0574
59.0469
59.05
59.0563
59.0619
59.068
59.0654
59.0653
59.0608
59.0615
59.0565
59.063
59.0689
59.0673
59.0624
59.0617
59.0709
59.0684
59.0693
59.0694
59.0668
59.0643
59.0637
59.061
59.0538
59.0505
59.0486
59.0417
59.0455
59.0465
59.0452
59.0448
59.0395
59.0293
59.0229
59.0201
59.0156
59.0041
59.0005
59.0022
59.0033
59.0034
58.9938
58.9961
58.9973
58.9869
58.9871
59.0085
59.0184
59.0153
59.0156
59.0162
59.0156
59.0075
58.9995
59.0067
59.0189
59.0181
59.016
59.0142
59.0055
59.0059
59.0077
58.9976
58.9986
59.0195
59.0247
59.0236
59.0232
59.0117
59.0173
59.0302
59.0245
59.0278
59.0293
59.0259
59.0124
55.0102
55.8967
56.8243
57.6918
58.3659
58.7931
58.9939
59.0385
59.0322
59.0375
59.0496
59.0482
59.0483
59.0439
59.0452
59.047
59.0465
59.0533
59.0629
59.0652
59.0863
59.0903
59.0874
59.0812
59.0755
59.0757
59.0675
59.0701
59.0797
59.08
59.0787
59.064
59.0638
59.0711
59.0643
59.0693
59.071
59.0628
59.0654
59.0691
59.0677
59.067
59.0595
59.054
59.0486
59.0391
59.0161
59.009
59.015
59.0162
59.0084
59.0115
59.0176
59.0168
59.0175
59.0147
59.0122
59.01
59.0078
59.0001
59.0071
59.0145
59.012
59.0057
59.0028
59.0122
59.0157
59.0129
59.0061
59.0016
59.0081
59.0108
59.0025
59.0068
59.0203
59.0196
59.0175
59.0146
59.008
59.0124
59.0194
59.0097
59.0138
59.0287
59.0314
59.0293
59.0252
59.025
59.0216
59.0108
55.008
55.8991
56.8235
57.6923
58.368
58.7861
58.9958
59.0619
59.0647
59.0632
59.0628
59.0554
59.0538
59.0739
59.0824
59.0754
59.0796
59.0813
59.0797
59.0753
59.0765
59.0922
59.0931
59.0903
59.0819
59.0824
59.0939
59.0958
59.0948
59.0937
59.0948
59.091
59.0899
59.0902
59.0902
59.0885
59.0887
59.0863
59.0825
59.0749
59.0663
59.0588
59.0519
59.0374
59.0236
59.0155
59.0141
59.0122
59.0115
59.0102
59.0008
58.999
59.0082
59.0086
59.0167
59.021
59.0138
59.0176
59.0226
59.0193
59.0195
59.0188
59.0146
59.0008
59.0066
59.0223
59.0221
59.0217
59.0109
59.0091
59.0223
59.0267
59.0237
59.0129
59.0115
59.0217
59.0233
59.0209
59.0109
59.0091
59.0194
59.0242
59.0218
59.0141
59.0192
59.0287
59.0286
59.0286
59.0245
59.0104
55.0102
55.8942
56.8307
57.6916
58.3554
58.7884
59.0106
59.0685
59.0637
59.0647
59.0734
59.0734
59.0764
59.0769
59.0732
59.0705
59.0845
59.0979
59.0983
59.0984
59.0882
59.0935
59.0994
59.09
59.095
59.1074
59.0963
59.1013
59.1074
59.0986
59.1019
59.1041
59.1021
59.1016
59.0965
59.0842
59.0767
59.0731
59.0702
59.0661
59.0573
59.0531
59.0503
59.0475
59.0427
59.0338
59.0302
59.0203
59.0241
59.0309
59.0286
59.0272
59.0274
59.0276
59.0248
59.0164
59.0146
59.0154
59.0145
59.0095
59.0073
59.0144
59.0116
59.0191
59.0249
59.0244
59.0244
59.0195
59.0182
59.0063
59.0056
59.021
59.0243
59.0228
59.022
59.0118
59.0172
59.0288
59.0294
59.0294
59.0172
59.0163
59.0234
59.0281
59.0259
59.0188
59.0158
59.0139
59.0136
59.0083
55.01
55.8975
56.8206
57.6931
58.3765
58.783
58.985
59.0362
59.0281
59.0295
59.0375
59.0284
59.0329
59.0433
59.0415
59.0371
59.039
59.0505
59.0569
59.0683
59.0689
59.0685
59.0636
59.0702
59.0942
59.0971
59.0833
59.0869
59.0953
59.0884
59.0911
59.0949
59.0929
59.0931
59.0901
59.0842
59.0783
59.0627
59.0536
59.0492
59.0371
59.0348
59.0384
59.0383
59.0406
59.0381
59.032
59.0256
59.0305
59.0345
59.0338
59.0337
59.0296
59.0181
59.0141
59.0125
59.0131
59.0137
59.0072
59.014
59.018
59.0149
59.0065
59.0042
59.0094
59.0134
59.0113
59.0051
59.0043
58.9997
59.0066
59.0235
59.0233
59.0232
59.0215
59.021
59.0161
59.0072
59.006
59.0051
59.0063
59.0228
59.0394
59.0381
59.0383
59.0371
59.0279
59.0283
59.0298
59.0175
55.0096
55.896
56.8276
57.6952
58.3544
58.7843
59.0138
59.0781
59.0745
59.0773
59.0868
59.0781
59.0786
59.0864
59.0826
59.0848
59.0855
59.0851
59.0845
59.0842
59.0807
59.0843
59.0984
59.0989
59.0981
59.1063
59.1125
59.1009
59.1055
59.1081
59.0979
59.1016
59.1022
59.0966
59.0971
59.0971
59.0971
59.0933
59.0846
59.0757
59.0688
59.0601
59.04
59.0258
59.0165
59.0162
59.0163
59.0135
59.0137
59.0147
59.015
59.0116
59.0002
58.9992
59.0095
59.0062
59.0117
59.0181
59.0185
59.0186
59.0061
59.0047
59.0178
59.024
59.0222
59.0165
59.0233
59.0301
59.0294
59.0288
59.0156
59.0179
59.022
59.0208
59.0204
59.0093
59.017
59.0283
59.0283
59.0281
59.0206
59.0194
59.0124
59.0184
59.0253
59.0239
59.0234
59.0179
59.0144
59.0038
55.0083
55.9018
56.8241
57.6865
58.3726
58.7826
58.994
59.0595
59.0653
59.0626
59.0533
59.0554
59.0609
59.0588
59.052
59.0552
59.0703
59.0711
59.0718
59.0675
59.0682
59.07
59.0681
59.0763
59.0848
59.0743
59.0798
59.0919
59.0897
59.0895
59.0866
59.0843
59.0689
59.0693
59.0705
59.064
59.0642
59.0636
59.0641
59.0605
59.058
59.0554
59.055
59.0517
59.0494
59.0469
59.0434
59.0336
59.0287
59.0172
59.0008
59.0053
59.0129
59.0106
59.0063
59.0005
59.0046
59.0046
59.0125
59.0449
59.0483
59.0451
59.034
59.0337
59.0372
59.0256
59.0302
59.0398
59.0352
59.0374
59.0385
59.0363
59.0325
59.0321
59.0304
59.0267
59.0145
59.0167
59.021
59.0193
59.0184
59.0124
59.0247
59.0312
59.0284
59.0183
59.02
59.0241
59.0214
59.0131
55.009
55.8974
56.8269
57.6966
58.3547
58.777
59.0122
59.0979
59.1052
59.1025
59.0928
59.0933
59.1019
59.0962
59.0977
59.1039
59.1045
59.1053
59.1038
59.0954
59.0988
59.1065
59.1047
59.1014
59.0954
59.097
59.0971
59.1019
59.1057
59.1022
59.1044
59.1046
59.102
59.1011
59.0982
59.0956
59.0928
59.0896
59.0842
59.0794
59.0751
59.0676
59.0505
59.0371
59.0284
59.024
59.0207
59.0186
59.0144
59.0055
58.9913
58.9943
59.0014
59.0003
59.0002
58.9941
59.0091
59.0241
59.0226
59.0225
59.0222
59.0208
59.0122
59.0178
59.0224
59.0157
59.0173
59.0254
59.026
59.0245
59.0243
59.019
59.0125
59.0202
59.0288
59.0283
59.0283
59.0253
59.0241
59.0132
59.0151
59.0282
59.0286
59.0288
59.0266
59.0216
59.0199
59.0207
59.0187
59.0068
55.0091
55.8976
56.8246
57.6992
58.353
58.7795
59.0172
59.0895
59.0879
59.0953
59.1042
59.1046
59.1046
59.0919
59.0897
59.0938
59.0952
59.0928
59.0969
59.1031
59.095
59.1013
59.1141
59.1034
59.1073
59.1218
59.1222
59.1201
59.1174
59.1187
59.1149
59.1123
59.1098
59.1106
59.1081
59.105
59.1008
59.0951
59.0846
59.0722
59.0643
59.0568
59.0466
59.0396
59.0346
59.0299
59.0216
58.9989
58.9962
59.0105
59.0124
59.0129
59.0132
59.0109
59.0023
59.0085
59.0213
59.0091
59.0079
59.0163
59.0116
59.0152
59.033
59.0354
59.0338
59.0335
59.0326
59.0313
59.0275
59.0157
59.0129
59.0283
59.0395
59.0386
59.0394
59.0365
59.0367
59.037
59.0325
59.0327
59.03
59.0244
59.0141
59.0197
59.0272
59.0259
59.0255
59.0202
59.0163
59.0046
55.0094
55.8962
56.8292
57.6941
58.3543
58.7837
59.0078
59.0884
59.0941
59.0863
59.0843
59.0864
59.086
59.0875
59.0939
59.0942
59.0914
59.0914
59.0872
59.0965
59.1079
59.1062
59.1016
59.0998
59.1042
59.1029
59.1035
59.0998
59.1016
59.1019
59.0981
59.0978
59.0978
59.0964
59.0912
59.0797
59.0602
59.0495
59.05
59.0525
59.0504
59.0477
59.0458
59.0458
59.0469
59.0447
59.0418
59.0351
59.0202
58.9969
58.9978
59.0049
59.0051
59.0051
58.9985
58.9939
59.0067
59.0215
59.0112
59.0122
59.021
59.0142
59.0163
59.0349
59.0371
59.0337
59.0216
59.0217
59.0259
59.0133
59.0148
59.023
59.0141
59.0119
59.0241
59.0286
59.0265
59.0234
59.016
59.0237
59.0323
59.0289
59.0307
59.0284
59.0253
59.017
59.0144
59.014
59.013
59.0032
55.0057
55.9026
56.8259
57.6913
58.3592
58.789
59.005
59.0655
59.0674
59.06
59.0603
59.0657
59.0643
59.0655
59.069
59.0683
59.0585
59.0638
59.0814
59.0808
59.081
59.076
59.0816
59.1104
59.1207
59.1132
59.1186
59.1207
59.1132
59.1129
59.1134
59.1127
59.1097
59.1068
59.1036
59.1004
59.0944
59.0889
59.082
59.0761
59.0661
59.059
59.0517
59.0416
59.0345
59.0198
59.0096
59.0016
58.9989
58.9951
58.9852
58.9823
59.0085
59.033
59.0254
59.0252
59.0429
59.0543
59.0548
59.0526
59.0472
59.0482
59.0453
59.0327
59.0344
59.0407
59.04
59.0401
59.0372
59.0366
59.0286
59.0346
59.041
59.0395
59.0388
59.0329
59.0308
59.027
59.0229
59.0213
59.0203
59.0239
59.0251
59.0179
59.0185
59.0188
59.0159
59.0139
59.0121
59.0002
55.0095
55.8981
56.8237
57.6914
58.3681
58.7949
58.9844
59.0204
59.0182
59.0294
59.0539
59.0538
59.0539
59.0503
59.0423
59.0492
59.0626
59.0611
59.0617
59.0583
59.0727
59.1097
59.1054
59.1134
59.1235
59.119
59.1185
59.117
59.117
59.116
59.1142
59.112
59.1115
59.1098
59.1063
59.0942
59.0758
59.0665
59.061
59.0565
59.0527
59.0496
59.0466
59.0435
59.0371
59.0221
59.0125
59.0082
58.9962
58.9989
59.0061
58.9999
59.0031
59.005
59.0026
58.9987
58.991
58.9922
58.9978
58.9956
58.9874
58.9912
58.9976
58.9975
58.9975
58.9869
58.9931
58.9998
58.9991
58.9981
59.0004
59.0147
59.0234
59.0314
59.0305
59.0309
59.0278
59.0244
59.0217
59.0134
59.0184
59.0269
59.0262
59.0267
59.0237
59.0204
59.0099
59.0032
59.0035
58.9986
55.0104
55.8937
56.8315
57.6909
58.3559
58.7887
59.011
59.0785
59.0816
59.0799
59.0797
59.072
59.0754
59.0902
59.0918
59.0884
59.0909
59.0923
59.0903
59.0842
59.0832
59.0998
59.105
59.1107
59.1211
59.1151
59.1159
59.1132
59.1166
59.1169
59.1145
59.1144
59.11
59.1019
59.0953
59.0908
59.0824
59.0765
59.0711
59.0672
59.0614
59.0569
59.0516
59.0473
59.0443
59.0393
59.029
59.0117
58.9966
58.9969
58.9979
58.9955
58.9886
58.9946
59.026
59.0283
59.0235
59.0249
59.0348
59.0334
59.0397
59.0422
59.0315
59.0355
59.0463
59.045
59.0449
59.0457
59.0457
59.0398
59.038
59.0292
59.0248
59.029
59.0271
59.0354
59.0471
59.0357
59.0392
59.0513
59.0506
59.0509
59.0511
59.0492
59.0462
59.0429
59.0358
59.0334
59.0281
59.01
55.0094
55.8965
56.8265
57.6974
58.3519
58.7871
59.0131
59.0773
59.0958
59.0985
59.0852
59.089
59.0951
59.0926
59.0926
59.0861
59.0941
59.1021
59.0939
59.0985
59.1126
59.1133
59.1124
59.1174
59.1314
59.1216
59.127
59.1314
59.1248
59.1227
59.1212
59.1208
59.1205
59.1199
59.1146
59.1034
59.0919
59.0834
59.0732
59.0501
59.0361
59.0314
59.0228
59.0196
59.0177
59.0174
59.0159
59.0029
59.0053
59.0123
59.0124
59.0124
58.9987
58.9996
59.0258
59.049
59.048
59.0402
59.0456
59.0535
59.0528
59.0525
59.0452
59.0446
59.0402
59.0419
59.0427
59.0411
59.0414
59.0389
59.0303
59.0355
59.0474
59.0356
59.0382
59.0514
59.052
59.0509
59.0368
59.0373
59.042
59.0301
59.0344
59.041
59.041
59.0409
59.0331
59.0323
59.0279
59.0129
55.0103
55.8983
56.8188
57.699
58.3654
58.7884
58.9916
59.0428
59.0435
59.0374
59.0406
59.0481
59.048
59.0493
59.0443
59.0567
59.0655
59.0684
59.0937
59.1112
59.1185
59.1187
59.1139
59.1149
59.1155
59.1139
59.1053
59.1091
59.1151
59.1089
59.1081
59.1078
59.1071
59.1002
59.0976
59.0944
59.0916
59.0873
59.0736
59.0567
59.0476
59.0292
59.019
59.0157
59.0132
59.01
59
59.0029
59.0054
58.9996
59.0002
59.0002
58.9936
58.9964
58.9981
58.9931
58.9894
58.9873
58.9862
58.9957
59.0045
59.0024
59.0024
59.0003
59.0139
59.0258
59.0277
59.0261
59.0247
59.0162
59.0122
59.0159
59.0163
59.0191
59.025
59.025
59.0259
59.0241
59.0144
59.0197
59.0245
59.0246
59.0246
59.0171
59.0114
59.0171
59.0292
59.0276
59.0251
59.0121
55.0074
55.8992
56.828
57.6885
58.3637
58.7874
59.0054
59.0705
59.0757
59.0743
59.0735
59.0725
59.0678
59.0753
59.0832
59.0816
59.0816
59.0719
59.0768
59.0919
59.0886
59.089
59.0868
59.0967
59.1059
59.0958
59.1001
59.1198
59.1222
59.1197
59.1195
59.1159
59.1065
59.1019
59.0956
59.0891
59.0834
59.0776
59.0726
59.0682
59.0594
59.0516
59.0459
59.0411
59.0315
59.0202
59.0094
59.0042
59.0016
58.9969
58.9813
58.9806
59.0002
59.0045
59.0032
59.0043
59.0025
58.9984
58.9841
58.9819
58.9918
59.0038
59.0055
58.9936
58.9952
59.0117
59.0152
59.0141
59.0134
59.0033
59.0016
59.0055
58.9973
59.0014
59.0128
59.0112
59.0048
59.0069
59.0167
59.0161
59.0156
59.0069
59.0095
59.0118
59.0113
59.0223
59.0283
59.027
59.0265
59.0089
55.01
55.8947
56.83
57.6926
58.3549
58.7891
59.0118
59.07
59.0662
59.0695
59.0824
59.0813
59.0796
59.0895
59.0992
59.0909
59.0979
59.1087
59.098
59.1041
59.1132
59.1016
59.1016
59.1129
59.1119
59.1203
59.1295
59.1215
59.1247
59.1287
59.1269
59.1266
59.1233
59.12
59.113
59.0981
59.0837
59.0749
59.0659
59.0585
59.053
59.048
59.0449
59.0424
59.0401
59.0372
59.0312
59.0185
58.9987
58.9907
58.9934
58.9941
58.992
58.9878
58.9964
59.0031
59.001
58.9976
58.9884
58.9922
58.9995
58.9981
58.9934
58.992
58.9919
59.0022
59.0145
59.0112
59.011
59.0105
59.0122
59.0114
59.005
59.0001
59.0146
59.0249
59.0227
59.0144
59.0161
59.0246
59.0246
59.0239
59.016
59.0088
59.0151
59.021
59.0173
59.0169
59.0144
59.0037
55.0091
55.8976
56.8246
57.6994
58.3528
58.7807
59.0153
59.0971
59.1031
59.1019
59.1019
59.0984
59.0871
59.088
59.0997
59.098
59.0947
59.1001
59.1077
59.0998
59.1066
59.1192
59.1082
59.1093
59.1213
59.1188
59.1251
59.1273
59.1218
59.1222
59.1223
59.1227
59.1209
59.1181
59.1144
59.1061
59.096
59.0846
59.0761
59.0697
59.0644
59.0603
59.0551
59.052
59.047
59.0356
59.0305
59.0198
59.0151
59.0134
59.0107
59.0052
58.995
59.0084
59.0363
59.0459
59.0543
59.0519
59.054
59.0546
59.0513
59.0403
59.044
59.0506
59.0418
59.0442
59.0477
59.0465
59.0434
59.0413
59.0399
59.0393
59.0296
59.0314
59.0331
59.0273
59.0267
59.027
59.0229
59.0279
59.0345
59.0347
59.0347
59.0207
59.0232
59.032
59.0304
59.0303
59.0287
59.0156
55.0094
55.8965
56.8265
57.6974
58.3518
58.7871
59.0132
59.0775
59.096
59.0988
59.0849
59.0865
59.0953
59.0956
59.0958
59.0878
59.0937
59.1025
59.0967
59.0966
59.0946
59.1002
59.1172
59.111
59.1138
59.133
59.1355
59.1315
59.1313
59.1302
59.1298
59.1266
59.1202
59.1157
59.1102
59.0996
59.0906
59.0834
59.0735
59.0505
59.0371
59.0258
59.0253
59.0257
59.024
59.0231
59.0158
59.0033
59.006
59.0123
59.012
59.0118
58.9988
59.0041
59.0266
59.0205
59.0204
59.0392
59.0476
59.0475
59.0476
59.0451
59.0441
59.0345
59.0266
59.0296
59.0315
59.0352
59.0377
59.0347
59.0277
59.0247
59.03
59.0258
59.0329
59.0411
59.0314
59.0359
59.0383
59.0354
59.0352
59.0326
59.0278
59.0205
59.0174
59.0098
59.0159
59.0262
59.0236
59.0132
55.0104
55.8935
56.8317
57.6907
58.3558
58.7909
59.0059
59.0801
59.0845
59.0756
59.0801
59.0866
59.0845
59.0793
59.0805
59.0937
59.0902
59.0951
59.0975
59.0889
59.0905
59.1097
59.1174
59.1167
59.1181
59.1168
59.1149
59.1119
59.1026
59.106
59.1082
59.1039
59.1031
59.103
59.1041
59.1017
59.099
59.096
59.0903
59.0782
59.0635
59.0543
59.0472
59.0416
59.0384
59.0335
59.0239
59.0006
58.9948
59.0007
59.0063
59.0045
58.9924
58.9996
59.0311
59.0354
59.0337
59.0284
59.0371
59.052
59.0508
59.0486
59.0367
59.0398
59.0465
59.043
59.0433
59.0444
59.0456
59.0426
59.0324
59.0352
59.0428
59.0421
59.0425
59.0408
59.0397
59.0336
59.0256
59.0308
59.0421
59.039
59.0415
59.0443
59.0431
59.0404
59.0344
59.0326
59.0278
59.0116
55.01
55.8974
56.8238
57.6927
58.367
58.7902
58.9916
59.0374
59.0379
59.0356
59.0404
59.0554
59.0525
59.0547
59.0552
59.0518
59.0507
59.0628
59.0698
59.0633
59.0653
59.0916
59.1105
59.1092
59.1028
59.1058
59.1115
59.0969
59.0993
59.1059
59.103
59.1027
59.1007
59.1014
59.0993
59.0957
59.0865
59.0837
59.0766
59.0608
59.0475
59.0416
59.0361
59.0222
59.0172
59.016
59.0052
59.0088
59.0147
59.0054
59.0021
59.0078
59.0123
59.011
59.0084
59.0129
59.0156
59.0138
59.0122
58.996
58.9979
59.014
59.016
59.013
59.001
59.0047
59.019
59.0133
59.0197
59.0233
59.0224
59.0222
59.0101
59.011
59.0237
59.0173
59.0211
59.0309
59.0193
59.0199
59.0324
59.0368
59.0352
59.0341
59.0235
59.023
59.0337
59.0343
59.0321
59.0173
55.0089
55.9014
56.8235
57.6872
58.3732
58.7825
58.9929
59.0592
59.0623
59.0567
59.062
59.0644
59.0622
59.0593
59.0526
59.0606
59.0625
59.0705
59.0789
59.0783
59.0799
59.0751
59.0937
59.1116
59.1117
59.1118
59.1106
59.1097
59.0953
59.0968
59.0973
59.0948
59.0944
59.0908
59.0898
59.0857
59.0774
59.0712
59.0663
59.061
59.0542
59.0494
59.0448
59.0412
59.0386
59.0338
59.0221
59.0191
59.015
59.0161
59.0165
59.0124
59.0045
59
58.9993
58.997
58.9926
58.9921
59.0131
59.0291
59.029
59.0282
59.0153
59.0181
59.025
59.0231
59.0229
59.0188
59.018
59.0165
59.012
59.0176
59.0325
59.0324
59.0292
59.0164
59.0175
59.0293
59.0293
59.0273
59.0277
59.0273
59.0147
59.0177
59.0242
59.023
59.0231
59.0182
59.0142
59.0013
55.0083
55.9018
56.8241
57.6866
58.3727
58.7828
58.995
59.0538
59.0544
59.0512
59.0535
59.0594
59.0568
59.0514
59.0459
59.063
59.0804
59.0812
59.0815
59.0725
59.0815
59.0908
59.0902
59.089
59.0946
59.1058
59.1014
59.1056
59.1063
59.1039
59.103
59.0965
59.0889
59.0837
59.0738
59.0665
59.061
59.056
59.0552
59.0562
59.0546
59.0525
59.052
59.0493
59.0377
59.0257
59.0191
59.0163
59.0106
58.996
58.9887
58.9932
58.9912
58.9957
59.0236
59.035
59.033
59.0338
59.0344
59.0335
59.0217
59.0246
59.0311
59.0266
59.0296
59.0312
59.0289
59.0178
59.0164
59.0291
59.0317
59.0277
59.0285
59.028
59.0242
59.0184
59.0168
59.0153
59.0224
59.0256
59.019
59.0187
59.0163
59.0204
59.022
59.0188
59.0081
59.0094
59.0158
59.0035
55.0093
55.8969
56.826
57.6975
58.353
58.7829
59.0143
59.0892
59.0935
59.0921
59.0909
59.0891
59.0828
59.0886
59.1021
59.1004
59.1006
59.0963
59.0962
59.0944
59.1002
59.1027
59.0939
59.0993
59.1141
59.103
59.1074
59.115
59.1046
59.1087
59.1096
59.1067
59.1051
59.0978
59.0906
59.0837
59.0792
59.0709
59.0659
59.0615
59.0573
59.0542
59.0494
59.0433
59.0307
59.0121
59.0094
59.0095
59.0044
59.0125
59.0259
59.0192
59.0237
59.0256
59.0237
59.0224
59.0139
59.0109
59.0178
59.019
59.0169
59.0161
59.0207
59.0221
59.0195
59.0136
59.0115
59.0168
59.018
59.0129
59.0128
59.0268
59.032
59.0373
59.038
59.0369
59.0368
59.0285
59.0278
59.0262
59.0271
59.0245
59.0122
59.0155
59.027
59.0273
59.028
59.0273
59.0257
59.0091
55.0087
55.8982
56.8254
57.6996
58.3502
58.7813
59.0124
59.0896
59.1022
59.0997
59.0915
59.0892
59.0941
59.0927
59.0933
59.0952
59.0962
59.0923
59.1001
59.1183
59.1149
59.1194
59.1209
59.1093
59.1118
59.1188
59.1131
59.1146
59.1147
59.1126
59.1124
59.1102
59.1075
59.1047
59.1002
59.0975
59.0909
59.0854
59.0804
59.07
59.0641
59.0608
59.056
59.0454
59.0392
59.0357
59.0304
59.0275
59.0217
59.018
59.0069
59.0092
59.0216
59.0237
59.0214
59.0107
59.0154
59.0258
59.0215
59.0235
59.0239
59.022
59.0207
59.0202
59.0124
59.0138
59.0264
59.0216
59.0288
59.0433
59.0422
59.0408
59.0327
59.0282
59.0386
59.044
59.0379
59.0408
59.0415
59.0377
59.0375
59.0374
59.0374
59.0359
59.0315
59.0183
59.0143
59.0146
59.0143
59.0057
55.0066
55.9004
56.8287
57.6894
58.3576
58.7932
59.0023
59.0613
59.0668
59.0651
59.0635
59.0526
59.0543
59.0573
59.0453
59.0469
59.0678
59.0734
59.0715
59.065
59.0692
59.0862
59.0981
59.0985
59.0869
59.0922
59.0965
59.0948
59.0937
59.0795
59.0809
59.0829
59.0789
59.07
59.0664
59.0631
59.0563
59.053
59.0539
59.054
59.0516
59.0514
59.0475
59.0396
59.0294
59.0181
59.0138
59.0087
58.9952
58.9908
59.0025
59.0081
59.0134
59.014
59.0133
59.0131
58.9997
58.9988
59.0146
59.0148
59.0233
59.0322
59.0253
59.026
59.0253
59.0164
59.0147
59.0207
59.0183
59.0185
59.0186
59.0159
59.0141
59.0176
59.019
59.0137
59.018
59.0272
59.0254
59.0175
59.0172
59.0248
59.0174
59.0229
59.0269
59.0248
59.0185
59.0194
59.0226
59.0089
55.0095
55.8961
56.8276
57.6947
58.3561
58.7821
59.011
59.0921
59.1022
59.0995
59.0886
59.0908
59.0993
59.0945
59.0947
59.0918
59.082
59.0826
59.094
59.0939
59.0927
59.0924
59.091
59.0997
59.1157
59.1142
59.1145
59.1158
59.116
59.1114
59.1008
59.0949
59.0919
59.0863
59.0843
59.0811
59.0786
59.078
59.0777
59.0734
59.0672
59.0613
59.0556
59.0435
59.0339
59.0297
59.0234
59.0197
59.0141
58.9973
58.9997
59.0175
59.0173
59.0176
59.0172
59.0103
59.0126
59.0168
59.0093
59.0089
59.0087
59.009
59.0034
59.0084
59.0144
59.0025
59.0069
59.0149
59.0118
59.0073
59.0114
59.0299
59.0272
59.0321
59.0336
59.0281
59.0295
59.033
59.0317
59.0281
59.0164
59.0166
59.0246
59.0199
59.0199
59.0198
59.0105
59.0114
59.0165
59.0043
55.0096
55.8972
56.8223
57.6943
58.3688
58.7919
58.9854
59.0272
59.0218
59.0243
59.0484
59.0536
59.0526
59.0525
59.0419
59.0484
59.0664
59.0658
59.0637
59.0712
59.087
59.0774
59.0785
59.0927
59.0918
59.0995
59.1167
59.1155
59.1154
59.1156
59.1154
59.1118
59.1088
59.1037
59.0931
59.0847
59.0795
59.0749
59.0666
59.0614
59.0581
59.0551
59.0499
59.0474
59.0444
59.0382
59.0225
59.0227
59.0277
59.019
59.0235
59.0257
59.0236
59.022
59.007
59.0061
59.012
59.0113
59.0066
59.0007
59.0061
59.0123
59.01
59.0022
59.0081
59.02
59.0211
59.0188
59.0139
59.0128
59.001
59.0001
59.0168
59.0213
59.0194
59.0171
59.0095
59.0121
59.0143
59.0101
59.0073
59.0085
59.0081
59.0175
59.0275
59.0164
59.0217
59.0277
59.0243
59.0116
55.0099
55.8947
56.8301
57.692
58.355
58.791
59.0001
59.0886
59.1013
59.1004
59.0997
59.0928
59.0897
59.0863
59.0757
59.0785
59.0903
59.0799
59.0852
59.0949
59.0885
59.0881
59.0882
59.0832
59.0883
59.1008
59.0914
59.0969
59.1001
59.0983
59.0979
59.0951
59.0906
59.0879
59.0853
59.0831
59.079
59.0707
59.0571
59.0518
59.05
59.0459
59.0437
59.0437
59.0442
59.0403
59.0311
59.0228
59.0215
59.0194
59.0247
59.0277
59.0269
59.0254
59.0278
59.0295
59.0283
59.0275
59.0162
59.0108
59.0068
59.0056
59.004
59.0082
59.0103
59.0045
58.9994
59.0056
59.0136
59.0059
59.0044
59.0194
59.0284
59.0279
59.0276
59.0151
59.0198
59.0288
59.0284
59.0282
59.0212
59.0201
59.0128
59.0188
59.0255
59.0241
59.0236
59.0181
59.0147
59.0039
55.008
55.8991
56.8235
57.6923
58.368
58.7861
58.9958
59.0612
59.0667
59.0654
59.0649
59.0565
59.0545
59.073
59.0908
59.0839
59.0904
59.0947
59.0921
59.092
59.0918
59.0893
59.0823
59.0872
59.1014
59.0992
59.0872
59.0872
59.0978
59.0989
59.0984
59.0975
59.0953
59.0933
59.0951
59.0933
59.0899
59.0818
59.0773
59.0675
59.0446
59.0363
59.0343
59.0321
59.0257
59.0286
59.0382
59.0366
59.0343
59.0297
59.0296
59.0302
59.0306
59.0281
59.0264
59.0245
59.0217
59.0202
59.0185
59.0142
58.9994
59.0009
59.0058
58.9945
58.9953
59.0108
59.0128
59.01
59.0008
58.9996
59.0181
59.0257
59.0229
59.0119
59.0102
59.0222
59.024
59.021
59.0133
59.0078
59.0192
59.0361
59.0352
59.0319
59.0313
59.0307
59.0233
59.017
59.0146
59.0077
55.0105
55.8961
56.8222
57.6932
58.3709
58.7954
58.9777
59.0173
59.0196
59.0361
59.0507
59.0541
59.0608
59.0529
59.0564
59.0685
59.0611
59.0597
59.0649
59.0659
59.0671
59.0669
59.0617
59.068
59.0875
59.0869
59.0833
59.0708
59.0724
59.0812
59.0707
59.0751
59.0789
59.077
59.0749
59.0733
59.0712
59.0692
59.0676
59.0628
59.0624
59.0623
59.06
59.0574
59.0482
59.0397
59.0328
59.0179
59.0038
59.0046
59.0058
59.003
59.001
59.0105
59.0193
59.0194
59.0194
59.0072
59.0102
59.0191
59.013
59.013
59.0127
59.0077
59.0034
59.0052
59.0062
58.9987
58.9996
59.0131
59.0117
59.0195
59.0244
59.0184
59.0216
59.0227
59.0197
59.0094
59.0127
59.03
59.024
59.0308
59.0369
59.0332
59.0328
59.0259
59.0307
59.0334
59.0291
59.0133
55.0085
55.899
56.8248
57.6897
58.3722
58.7829
58.9897
59.0505
59.0526
59.0496
59.0399
59.0414
59.0542
59.0494
59.0561
59.0604
59.0546
59.0511
59.0618
59.0789
59.0808
59.0785
59.0666
59.0696
59.0752
59.0811
59.0845
59.0844
59.0842
59.0701
59.0724
59.0742
59.068
59.0675
59.0655
59.0627
59.0603
59.0595
59.0536
59.051
59.0484
59.046
59.0413
59.0384
59.0353
59.029
59.0083
59.0057
59.018
59.0125
59.0166
59.0268
59.025
59.0271
59.0248
59.0201
59.0192
59.017
59.0143
59.0087
59.0035
59.0095
59.0146
59.0189
59.0176
59.0077
59.0081
59.0279
59.0344
59.0267
59.0329
59.0393
59.0363
59.0371
59.0383
59.0377
59.0296
59.0211
59.0268
59.0339
59.0317
59.0239
59.0258
59.0313
59.0269
59.0271
59.0223
59.021
59.0205
59.0096
55.0103
55.8973
56.8232
57.6952
58.364
58.7859
58.9965
59.057
59.059
59.0572
59.0567
59.0477
59.0481
59.0747
59.0806
59.0794
59.0802
59.0781
59.0748
59.0703
59.0823
59.1002