/*--------------------------------*- C++ -*----------------------------------*\
  =========                 |
  \\      /  F ield         | OpenFOAM: The Open Source CFD Toolbox
   \\    /   O peration     | Website:  https://openfoam.org
    \\  /    A nd           | Version:  11
     \\/     M anipulation  |
\*---------------------------------------------------------------------------*/
FoamFile
{
    format      ascii;
    class       volScalarField;
    location    "0.086";
    object      p;
}
// * * * * * * * * * * * * * * * * * * * * * * * * * * * * * * * * * * * * * //

dimensions      [0 2 -2 0 0 0 0];

internalField   nonuniform List<scalar> 
287084
(
1.6864
1.39951
1.34331
1.27318
1.20388
1.15085
1.10003
1.05316
1.00801
0.963775
0.92
0.875224
0.831258
0.788449
0.743962
0.69835
0.652285
0.605844
0.559573
0.51371
0.468285
0.423854
0.380291
0.338177
0.298099
0.260243
0.225092
0.19335
0.166338
0.145032
0.12482
0.104264
0.0868437
0.0739056
0.0644472
0.0578862
0.054131
0.052813
0.0536051
0.0562079
0.0603181
0.0656472
0.0719147
0.0788698
0.0862839
0.0939351
0.101643
0.109277
0.116511
0.123574
0.1295
0.135548
0.142616
0.148001
0.152142
0.155736
0.159149
0.16166
0.163291
0.164395
0.164711
0.164516
0.163723
0.16239
0.160533
0.15811
0.155221
0.151785
0.148017
0.143742
0.139033
0.134039
0.12859
0.122819
0.116824
0.110443
0.103811
0.096952
0.0898209
0.0825026
0.0749423
0.0672178
0.0592829
0.0511767
0.0427643
0.0341184
0.0250886
0.0155223
0.00521601
0.000781453
1.55088
1.35834
1.31128
1.25304
1.19216
1.14265
1.0943
1.04886
1.00464
0.961042
0.917625
0.873559
0.829761
0.78602
0.740998
0.695222
0.649093
0.602709
0.556309
0.51024
0.464611
0.419992
0.376349
0.334442
0.294563
0.256804
0.221864
0.190117
0.162902
0.138315
0.116117
0.0969236
0.081139
0.0688289
0.0597489
0.0535854
0.0501583
0.0491565
0.0502542
0.0531549
0.0575511
0.0631528
0.0696764
0.0768752
0.084509
0.0923719
0.100275
0.10808
0.11559
0.122787
0.129509
0.135839
0.141887
0.14707
0.151479
0.155263
0.158466
0.160959
0.162743
0.163917
0.16441
0.164278
0.163544
0.162247
0.160399
0.158024
0.155116
0.151744
0.147934
0.143699
0.139027
0.133962
0.128535
0.122789
0.116788
0.110414
0.103787
0.0969385
0.0898095
0.0824931
0.0749422
0.0672266
0.0592998
0.0512424
0.0429281
0.0344769
0.0257032
0.0168252
0.00746229
0.00192195
1.52414
1.35222
1.30342
1.24685
1.18826
1.13943
1.09173
1.04647
1.00216
0.958385
0.914667
0.870585
0.826287
0.781604
0.736212
0.690143
0.643607
0.596796
0.54993
0.503341
0.457235
0.412063
0.368057
0.325703
0.285394
0.247344
0.21233
0.180234
0.151504
0.126861
0.105273
0.0866791
0.0713937
0.0594484
0.0508164
0.0451572
0.0422521
0.0417941
0.0434579
0.0469274
0.0518811
0.0580218
0.0650613
0.0727396
0.0808225
0.0890991
0.0973864
0.105533
0.113374
0.120865
0.127816
0.134281
0.140418
0.145785
0.15044
0.154399
0.157693
0.160315
0.162189
0.163418
0.163964
0.163905
0.163214
0.16196
0.160148
0.157784
0.154938
0.151578
0.147794
0.143548
0.13888
0.133884
0.128505
0.122753
0.116728
0.110382
0.103768
0.0969002
0.0898063
0.0824994
0.0749668
0.0672637
0.0593844
0.0512871
0.0430221
0.0345383
0.0257987
0.0167616
0.00762437
0.00236648
1.47633
1.31749
1.27415
1.22253
1.16969
1.12451
1.07974
1.03653
0.993726
0.950925
0.907831
0.864107
0.819778
0.774735
0.728921
0.682383
0.635293
0.587862
0.540322
0.49299
0.446144
0.400215
0.355497
0.312488
0.271562
0.233064
0.197517
0.165375
0.136595
0.111255
0.089397
0.071017
0.0562506
0.045016
0.0371322
0.0323158
0.0302784
0.0307102
0.0332655
0.0376138
0.0434207
0.0503805
0.0581923
0.0665961
0.0753497
0.0842457
0.093103
0.101763
0.110095
0.118004
0.12541
0.132248
0.13851
0.144074
0.148907
0.153051
0.156496
0.15924
0.161264
0.162609
0.163282
0.163301
0.162709
0.161526
0.159763
0.157478
0.154656
0.151349
0.147586
0.143377
0.138761
0.133743
0.12837
0.122649
0.116634
0.110302
0.103707
0.0968705
0.0897747
0.0824717
0.0749605
0.0672638
0.0593911
0.0513706
0.0431623
0.034736
0.0261673
0.0171455
0.00818699
0.00287984
1.45315
1.30306
1.2622
1.21266
1.16206
1.11784
1.07374
1.03074
0.987889
0.944848
0.901351
0.857172
0.812264
0.766517
0.719947
0.672591
0.624634
0.576257
0.527724
0.479359
0.431465
0.384487
0.338783
0.294836
0.253061
0.213868
0.177731
0.144885
0.115652
0.0902224
0.0686231
0.0508093
0.036767
0.0263507
0.0193841
0.015578
0.0146236
0.0161797
0.0198783
0.0253617
0.0322804
0.0403054
0.0491308
0.0584852
0.0681198
0.0778272
0.0874211
0.0967525
0.105687
0.114133
0.122004
0.12925
0.135857
0.141749
0.146896
0.151312
0.15497
0.157909
0.160111
0.161602
0.162403
0.162554
0.162056
0.160956
0.159279
0.157039
0.154285
0.151032
0.147307
0.143136
0.138548
0.133574
0.128238
0.122537
0.116531
0.110227
0.103649
0.0968097
0.0897441
0.0824662
0.0749721
0.0673085
0.0594684
0.0514292
0.043267
0.0348267
0.0262015
0.0172173
0.0083087
0.00298099
1.42843
1.27997
1.24077
1.19324
1.14502
1.10281
1.06047
1.01885
0.977014
0.934605
0.89143
0.847262
0.802074
0.755791
0.708498
0.660285
0.611316
0.561825
0.512088
0.462438
0.41326
0.364961
0.318013
0.272865
0.230028
0.189908
0.153005
0.119686
0.0901719
0.0646562
0.0432308
0.0258927
0.0125786
0.00313669
-0.00268529
-0.00519899
-0.00477626
-0.00179029
0.00335678
0.0102722
0.0185806
0.0279395
0.0380227
0.0485519
0.0592748
0.0699786
0.0804838
0.0906373
0.10032
0.109432
0.117907
0.125683
0.13273
0.139007
0.144494
0.149201
0.153131
0.156298
0.158705
0.160382
0.161349
0.161631
0.161262
0.160269
0.158676
0.156529
0.153842
0.150645
0.146974
0.142845
0.1383
0.133352
0.128038
0.122374
0.116393
0.110111
0.103553
0.0967416
0.0896869
0.082416
0.0749457
0.0672878
0.0594605
0.0514633
0.0433215
0.0348822
0.0263227
0.0173707
0.00850319
0.00317701
1.41023
1.26453
1.22709
1.18107
1.13435
1.09303
1.05129
1.00991
0.968044
0.925391
0.881757
0.836983
0.791023
0.743825
0.695483
0.646072
0.595815
0.544904
0.493668
0.442467
0.391686
0.341822
0.293325
0.24675
0.202607
0.161386
0.123596
0.0895922
0.0597267
0.0341803
0.013086
-0.00358496
-0.0159398
-0.0241842
-0.0286183
-0.0296026
-0.0275475
-0.0228756
-0.0160275
-0.00742596
0.00252087
0.013443
0.0250049
0.0369166
0.0489172
0.060792
0.0723594
0.083476
0.0940189
0.103901
0.113051
0.121427
0.129001
0.135744
0.141648
0.146726
0.150974
0.154415
0.157068
0.158959
0.160112
0.16056
0.160331
0.159458
0.157979
0.155915
0.153312
0.150188
0.146578
0.142509
0.138014
0.133112
0.127836
0.122203
0.116249
0.10999
0.103455
0.0966599
0.089629
0.0823829
0.0749298
0.0673016
0.0594954
0.0515064
0.0433803
0.0349651
0.0263858
0.0174131
0.0085591
0.00319119
1.39309
1.24767
1.21077
1.16565
1.11984
1.07942
1.03844
0.99765
0.956142
0.913585
0.869797
0.8246
0.777972
0.729873
0.680419
0.629724
0.577989
0.525484
0.472533
0.419522
0.366921
0.315202
0.264945
0.216687
0.171043
0.128535
0.08972
0.0550305
0.0248093
-0.000709378
-0.0214157
-0.037331
-0.0486001
-0.0554736
-0.0583026
-0.0575024
-0.0535436
-0.0469081
-0.0380812
-0.027529
-0.0156959
-0.00297462
0.0102822
0.0237697
0.037221
0.0504239
0.0632
0.075404
0.0869254
0.0976788
0.107607
0.116668
0.124846
0.132119
0.138487
0.143963
0.148565
0.15232
0.155246
0.157374
0.158737
0.159363
0.159291
0.158557
0.157194
0.155238
0.152722
0.149675
0.146134
0.142124
0.137681
0.132822
0.12758
0.121987
0.116064
0.109839
0.10333
0.0965612
0.0895504
0.0823228
0.0748923
0.0672771
0.059488
0.0515284
0.0434175
0.0350214
0.0264828
0.0174521
0.00857114
0.00322099
1.3782
1.23359
1.1975
1.15306
1.108
1.06807
1.0274
0.986661
0.944991
0.902052
0.857662
0.811683
0.764062
0.714779
0.663956
0.611698
0.558264
0.503893
0.448967
0.393905
0.339183
0.285387
0.233082
0.182931
0.135576
0.0916143
0.0516722
0.0161897
-0.0143885
-0.0398588
-0.0600669
-0.0750811
-0.0850726
-0.0903465
-0.0913278
-0.0884913
-0.0823774
-0.0735263
-0.062481
-0.0497501
-0.0358085
-0.0210808
-0.00594129
0.00929608
0.0243602
0.0390304
0.0531352
0.0665371
0.0791295
0.0908407
0.101615
0.111428
0.120262
0.128113
0.134992
0.140919
0.145916
0.150012
0.153236
0.155624
0.157215
0.158042
0.158149
0.157566
0.156335
0.154492
0.152076
0.149116
0.14565
0.141711
0.137325
0.132518
0.127324
0.121768
0.115878
0.109678
0.103197
0.0964553
0.0894675
0.08226
0.0748471
0.0672533
0.0594792
0.0515297
0.0434288
0.0350393
0.026509
0.0174959
0.00861996
0.00328038
1.36442
1.21991
1.18406
1.13996
1.09523
1.05558
1.01507
0.974378
0.932565
0.889275
0.844314
0.797511
0.748847
0.698292
0.645973
0.592029
0.536693
0.480277
0.423157
0.365801
0.308763
0.252622
0.198086
0.145816
0.0965753
0.0510164
0.00981875
-0.026478
-0.0574392
-0.082796
-0.102427
-0.1164
-0.124942
-0.128428
-0.127336
-0.122231
-0.11372
-0.102412
-0.0889106
-0.0737766
-0.0575241
-0.0406044
-0.0234135
-0.00627696
0.0105306
0.0267897
0.0423279
0.0570218
0.0707719
0.0835109
0.0952033
0.105824
0.115369
0.123846
0.131273
0.137676
0.143091
0.147552
0.151097
0.153768
0.155602
0.156638
0.156924
0.156504
0.155415
0.153694
0.151383
0.148518
0.145133
0.141258
0.13693
0.132176
0.127029
0.121518
0.115667
0.109502
0.10305
0.0963347
0.0893704
0.0821837
0.07479
0.0672135
0.0594563
0.051526
0.0434366
0.0350593
0.0265268
0.0174842
0.00861022
0.00326097
1.35179
1.20748
1.17188
1.12804
1.08352
1.04396
1.00343
0.96252
0.920307
0.876432
0.830649
0.782834
0.732921
0.680908
0.626911
0.571065
0.513655
0.454968
0.395447
0.33559
0.275981
0.217309
0.160292
0.105731
0.0544311
0.007137
-0.0353797
-0.0725626
-0.103875
-0.129079
-0.14801
-0.160801
-0.167713
-0.169198
-0.165822
-0.158222
-0.147094
-0.13312
-0.116966
-0.0992474
-0.0805156
-0.0612533
-0.0418721
-0.0227113
-0.00404882
0.0138941
0.0309576
0.0470185
0.0619861
0.0758074
0.0884558
0.0999251
0.110215
0.119347
0.127351
0.134261
0.14012
0.144967
0.148847
0.151808
0.153899
0.15516
0.155643
0.155391
0.15445
0.152856
0.150656
0.147886
0.144584
0.140788
0.136525
0.131828
0.126731
0.121264
0.115449
0.109316
0.102893
0.0962029
0.0892638
0.0821005
0.074724
0.0671675
0.0594266
0.0515067
0.0434217
0.0350695
0.0265141
0.0174484
0.00862726
0.00329954
1.34006
1.19575
1.1602
1.11646
1.07193
1.03231
0.991596
0.950372
0.907681
0.863127
0.816472
0.767537
0.716294
0.662703
0.606893
0.549024
0.489358
0.42825
0.366144
0.303597
0.241256
0.179843
0.120208
0.0631761
0.00968693
-0.0394398
-0.0833668
-0.121436
-0.153104
-0.178065
-0.196209
-0.20768
-0.212802
-0.212115
-0.206259
-0.195978
-0.182043
-0.165222
-0.146245
-0.125782
-0.104431
-0.0826991
-0.0610193
-0.0397415
-0.0191461
0.000556021
0.0192009
0.0366773
0.0529095
0.0678543
0.0814995
0.0938464
0.10491
0.114721
0.12332
0.130749
0.13706
0.142302
0.146528
0.14979
0.152144
0.153634
0.154315
0.154242
0.153455
0.151993
0.149907
0.147236
0.144021
0.1403
0.136105
0.131465
0.126416
0.120992
0.115218
0.109121
0.102727
0.0960627
0.0891492
0.0820105
0.074656
0.0671142
0.0593855
0.0514863
0.0434189
0.0350888
0.0265893
0.0174864
0.00859611
0.0032819
1.32915
1.18485
1.14931
1.10557
1.06097
1.02118
0.980173
0.938505
0.895189
0.849847
0.802167
0.75201
0.699296
0.644012
0.586272
0.526234
0.464199
0.400506
0.335674
0.270272
0.205026
0.140744
0.078313
0.0187067
-0.0370821
-0.0881261
-0.133488
-0.17246
-0.204417
-0.229082
-0.246315
-0.256333
-0.259519
-0.256491
-0.247996
-0.234868
-0.217977
-0.198171
-0.176249
-0.15294
-0.128873
-0.104593
-0.0805455
-0.0570909
-0.0345088
-0.0130103
0.00725104
0.0261739
0.0436949
0.0597804
0.0744315
0.0876677
0.0995138
0.110016
0.119217
0.127176
0.133951
0.139597
0.144177
0.147745
0.150368
0.152092
0.152978
0.153077
0.15244
0.151113
0.149144
0.146575
0.143447
0.139802
0.135675
0.131097
0.126101
0.120721
0.114985
0.108924
0.102562
0.095925
0.0890322
0.0819125
0.0745753
0.067054
0.0593408
0.051448
0.0433847
0.0350575
0.0265092
0.0174225
0.00861962
0.00331498
1.31899
1.17467
1.13907
1.09526
1.05046
1.01041
0.969017
0.92682
0.882814
0.836587
0.787837
0.736371
0.68213
0.625065
0.565306
0.50302
0.438497
0.372142
0.304459
0.236114
0.167856
0.100579
0.0352853
-0.0269965
-0.0851476
-0.138145
-0.18496
-0.224797
-0.257022
-0.281302
-0.297542
-0.305993
-0.307116
-0.301627
-0.290369
-0.274287
-0.254336
-0.231455
-0.206513
-0.180286
-0.153454
-0.126581
-0.100135
-0.0744808
-0.0498983
-0.0265933
-0.00471043
0.0156659
0.0344801
0.0517128
0.0673789
0.0815054
0.0941348
0.105323
0.11513
0.123618
0.130852
0.136901
0.141833
0.145707
0.148591
0.150546
0.151633
0.151913
0.15143
0.150237
0.148384
0.145916
0.142878
0.139308
0.135249
0.130726
0.12578
0.120445
0.114749
0.108721
0.102387
0.0957775
0.0889122
0.081814
0.0744992
0.0669944
0.0592909
0.0514168
0.0433592
0.0350606
0.0265301
0.0174216
0.00860044
0.00329212
1.30959
1.16521
1.12951
1.08558
1.04057
1.0002
0.958365
0.915569
0.870781
0.82363
0.773735
0.720909
0.665068
0.606177
0.544343
0.479739
0.412686
0.34358
0.273006
0.201626
0.130302
0.0599893
-0.00824222
-0.0732223
-0.13376
-0.188696
-0.236932
-0.277605
-0.310011
-0.333834
-0.348983
-0.355771
-0.354741
-0.346705
-0.332611
-0.313509
-0.290455
-0.26447
-0.236492
-0.207347
-0.17775
-0.1483
-0.119469
-0.0916284
-0.0650599
-0.0399624
-0.0164715
0.00533521
0.0254201
0.0437821
0.060442
0.075445
0.0888454
0.100713
0.111113
0.120119
0.127808
0.13425
0.139524
0.143697
0.146846
0.149034
0.150323
0.150772
0.150436
0.149375
0.147636
0.145267
0.142312
0.138817
0.134821
0.13036
0.125468
0.120177
0.114519
0.108527
0.102225
0.0956404
0.0887927
0.0817147
0.0744131
0.0669243
0.0592381
0.0513767
0.043338
0.035038
0.0265387
0.0174281
0.00858691
0.00329782
1.3009
1.15649
1.12067
1.07656
1.03127
0.990539
0.94821
0.904792
0.859207
0.811086
0.760024
0.705815
0.648367
0.587627
0.523713
0.456791
0.387183
0.315342
0.241838
0.167451
0.0930396
0.0196851
-0.0514567
-0.119127
-0.182014
-0.238851
-0.288456
-0.329892
-0.362426
-0.385712
-0.399709
-0.404777
-0.401547
-0.390932
-0.373991
-0.351875
-0.325733
-0.296672
-0.265692
-0.23367
-0.201359
-0.169376
-0.138214
-0.108244
-0.0797467
-0.0529123
-0.0278658
-0.00466786
0.0166545
0.0361088
0.0537388
0.0695923
0.0837403
0.0962601
0.107231
0.116741
0.124867
0.131692
0.137303
0.141768
0.145163
0.147565
0.149045
0.149663
0.149473
0.148538
0.146913
0.14464
0.141771
0.138349
0.134417
0.130007
0.125161
0.119914
0.114291
0.108329
0.102055
0.0954968
0.0886739
0.0816143
0.0743324
0.0668582
0.0591852
0.0513306
0.0432999
0.035011
0.0265001
0.0173889
0.00857588
0.00331293
1.29299
1.1485
1.11254
1.06825
1.02269
0.981558
0.938741
0.894657
0.848268
0.799167
0.746951
0.691355
0.632311
0.569749
0.503769
0.434555
0.362441
0.287883
0.211528
0.134152
0.0567334
-0.0196012
-0.0935981
-0.163873
-0.229029
-0.28767
-0.338561
-0.380664
-0.413238
-0.435922
-0.448715
-0.452036
-0.446608
-0.433441
-0.413701
-0.388641
-0.359498
-0.327462
-0.293583
-0.258793
-0.223875
-0.189469
-0.156074
-0.124065
-0.0937205
-0.0652245
-0.0386901
-0.014169
0.00832656
0.0288228
0.0473696
0.0640337
0.0788876
0.0920277
0.103544
0.113529
0.122072
0.129257
0.13518
0.139921
0.143561
0.146175
0.14784
0.148615
0.148563
0.147747
0.146223
0.144042
0.141252
0.137898
0.134025
0.129671
0.124874
0.119667
0.114081
0.108151
0.101903
0.0953677
0.0885618
0.0815241
0.0742571
0.0667968
0.0591336
0.0512967
0.04328
0.0350058
0.0265294
0.0173927
0.00855076
0.00329235
1.28583
1.14129
1.10518
1.0607
1.01482
0.973313
0.929958
0.885266
0.837993
0.788043
0.734712
0.677746
0.61716
0.552834
0.484876
0.413455
0.338922
0.261776
0.182651
0.102435
0.0221055
-0.0570658
-0.133787
-0.206534
-0.273815
-0.33415
-0.386205
-0.428893
-0.461433
-0.483474
-0.495052
-0.496651
-0.489083
-0.473457
-0.451038
-0.42317
-0.391177
-0.356322
-0.319703
-0.2823
-0.244927
-0.208241
-0.172748
-0.13883
-0.106759
-0.0767108
-0.0487891
-0.0230287
0.000572745
0.0220417
0.0414432
0.0588582
0.0743777
0.0880953
0.100115
0.110543
0.119467
0.126989
0.133211
0.138208
0.142071
0.144883
0.146712
0.147631
0.147708
0.147007
0.145581
0.143484
0.140767
0.137479
0.133667
0.129361
0.124603
0.119431
0.113877
0.107976
0.101753
0.0952378
0.0884522
0.0814295
0.0741757
0.0667281
0.0590797
0.0512536
0.0432462
0.0349823
0.0265515
0.0174343
0.00852437
0.0032635
1.27948
1.13488
1.0986
1.05394
1.00777
0.965873
0.922053
0.876718
0.828766
0.777855
0.723417
0.665236
0.603197
0.537216
0.467385
0.39389
0.317087
0.237489
0.155792
0.0728909
-0.0101329
-0.0919735
-0.171218
-0.246242
-0.31549
-0.377335
-0.430422
-0.473566
-0.506008
-0.527373
-0.53776
-0.537706
-0.528116
-0.510182
-0.485263
-0.454791
-0.420161
-0.382702
-0.343564
-0.303763
-0.26414
-0.225367
-0.187959
-0.152296
-0.118647
-0.0871791
-0.0579887
-0.0311024
-0.00650844
0.0158479
0.0360326
0.0541362
0.0702547
0.0844986
0.0969822
0.107815
0.117097
0.124926
0.131411
0.136645
0.140712
0.143698
0.145689
0.146743
0.146935
0.146333
0.144996
0.142978
0.140328
0.137098
0.133335
0.129073
0.124355
0.119221
0.113699
0.107822
0.10162
0.0951252
0.0883608
0.0813566
0.0741138
0.0666798
0.0590375
0.0512168
0.0432148
0.0349513
0.0264718
0.0173494
0.00854778
0.00331323
1.27396
1.1293
1.09289
1.04804
1.00159
0.959337
0.915048
0.869155
0.820469
0.768786
0.713426
0.654043
0.590668
0.523173
0.451642
0.376256
0.29739
0.215579
0.13152
0.0461989
-0.0392965
-0.123522
-0.205047
-0.28211
-0.353092
-0.416285
-0.470234
-0.513752
-0.546039
-0.566741
-0.576003
-0.574423
-0.562981
-0.542952
-0.515776
-0.482958
-0.445971
-0.406189
-0.364804
-0.322864
-0.281234
-0.240598
-0.201481
-0.164263
-0.129208
-0.0964795
-0.0661568
-0.038263
-0.012773
0.0103677
0.031246
0.0499624
0.0666201
0.0813299
0.0942186
0.105406
0.114995
0.123096
0.129819
0.135257
0.139504
0.142648
0.14477
0.145946
0.146245
0.145735
0.144475
0.142523
0.139935
0.136758
0.133041
0.128819
0.124136
0.119027
0.113531
0.10768
0.101498
0.0950205
0.0882683
0.0812744
0.0740457
0.0666208
0.0589872
0.0511758
0.0431757
0.034915
0.0264448
0.0173424
0.00855061
0.003312
1.26931
1.12458
1.08802
1.04305
0.996333
0.953764
0.909072
0.862677
0.813392
0.76101
0.704747
0.644361
0.579822
0.510994
0.437964
0.360926
0.280244
0.196474
0.110364
0.0229125
-0.0647119
-0.151042
-0.234549
-0.313363
-0.385847
-0.450142
-0.504809
-0.548579
-0.580692
-0.600768
-0.609011
-0.60607
-0.593002
-0.571144
-0.54201
-0.507167
-0.468135
-0.426347
-0.383024
-0.339245
-0.295891
-0.253658
-0.213075
-0.174524
-0.138265
-0.104451
-0.0731611
-0.0444067
-0.0181577
0.00565997
0.0271297
0.0463622
0.0634743
0.0785906
0.0918322
0.103323
0.113185
0.121522
0.128452
0.134068
0.138472
0.14175
0.14399
0.145268
0.145655
0.145223
0.144033
0.14214
0.139603
0.136471
0.132791
0.128604
0.12395
0.118871
0.113396
0.107562
0.101396
0.0949348
0.0881975
0.0812184
0.0739993
0.0665845
0.0589579
0.0511539
0.0431633
0.0348994
0.0264537
0.0173449
0.00853639
0.00330518
1.26553
1.12078
1.08411
1.03898
0.99207
0.949226
0.904205
0.85738
0.807626
0.754585
0.697579
0.636373
0.570857
0.500924
0.426651
0.348225
0.266033
0.180644
0.0928108
0.00359988
-0.0858272
-0.173876
-0.259023
-0.339285
-0.412981
-0.478192
-0.533363
-0.577322
-0.609256
-0.628783
-0.636162
-0.63208
-0.617653
-0.594278
-0.563526
-0.527012
-0.48631
-0.442876
-0.397968
-0.352681
-0.307911
-0.264366
-0.222579
-0.182931
-0.14568
-0.11098
-0.0788971
-0.0494364
-0.0225572
0.0018103
0.0237681
0.0434302
0.0609227
0.0763692
0.0898951
0.101633
0.111709
0.12024
0.127335
0.133096
0.137625
0.141013
0.143347
0.144713
0.145175
0.144804
0.143666
0.141822
0.139324
0.136226
0.132578
0.128417
0.123791
0.118732
0.113279
0.107465
0.101312
0.0948617
0.0881348
0.0811624
0.0739508
0.0665384
0.0589207
0.0511203
0.0431348
0.0348906
0.0264307
0.0173176
0.00852467
0.00331022
1.26267
1.11791
1.08115
1.03589
0.98882
0.945778
0.900486
0.85334
0.803152
0.749713
0.692154
0.630247
0.563974
0.493176
0.41793
0.338435
0.255069
0.168417
0.0792598
-0.0113204
-0.10212
-0.191504
-0.277917
-0.359261
-0.433946
-0.499758
-0.555305
-0.599361
-0.631167
-0.65025
-0.656944
-0.651975
-0.636497
-0.611956
-0.579961
-0.542169
-0.500184
-0.455493
-0.409372
-0.362934
-0.317083
-0.272538
-0.229832
-0.189349
-0.151346
-0.115964
-0.0832764
-0.0532748
-0.0259192
-0.00113041
0.0211982
0.0411858
0.0589601
0.0746591
0.0884086
0.10034
0.11058
0.119254
0.12648
0.132352
0.136978
0.140449
0.142858
0.144283
0.144801
0.144481
0.143387
0.14158
0.139116
0.136047
0.132422
0.128287
0.123675
0.118632
0.113195
0.107388
0.101247
0.0948051
0.0880858
0.0811246
0.0739181
0.066517
0.0589037
0.0511114
0.0431251
0.0348836
0.0264315
0.0173123
0.00851801
0.00329525
1.26076
1.11597
1.07915
1.03382
0.986641
0.943443
0.897972
0.850607
0.800106
0.746434
0.688475
0.626086
0.559296
0.487918
0.412019
0.331789
0.247624
0.160121
0.0700511
-0.0214535
-0.113215
-0.203485
-0.29079
-0.372855
-0.448305
-0.514488
-0.570108
-0.614202
-0.645979
-0.664761
-0.670995
-0.665418
-0.649227
-0.623892
-0.591056
-0.552398
-0.509549
-0.464012
-0.417073
-0.369857
-0.323279
-0.278058
-0.23473
-0.193683
-0.155166
-0.119329
-0.0862338
-0.0558669
-0.0281852
-0.00311127
0.0194655
0.0396702
0.05764
0.0735055
0.0874006
0.0994604
0.109818
0.118592
0.125902
0.131852
0.136543
0.140071
0.142528
0.144001
0.144559
0.14427
0.143201
0.141418
0.138973
0.135919
0.132313
0.128187
0.123592
0.118564
0.113134
0.107338
0.101203
0.0947675
0.0880552
0.0810954
0.0738938
0.0664904
0.0588809
0.0510892
0.0431144
0.0348771
0.0264407
0.0173318
0.00852291
0.00331501
1.25981
1.115
1.07814
1.03278
0.985553
0.942275
0.896734
0.849243
0.798707
0.744727
0.686518
0.62399
0.556935
0.485258
0.409016
0.328418
0.243844
0.155903
0.0653792
-0.026598
-0.118826
-0.209557
-0.297304
-0.379742
-0.455608
-0.522096
-0.577478
-0.621614
-0.653426
-0.672067
-0.678068
-0.672188
-0.655635
-0.629902
-0.596642
-0.55755
-0.514263
-0.468295
-0.420945
-0.373339
-0.326394
-0.280833
-0.237197
-0.195868
-0.157097
-0.12103
-0.0877414
-0.0571838
-0.0293173
-0.00410123
0.0185952
0.0389151
0.0569816
0.07293
0.0868989
0.0990258
0.109438
0.118257
0.12561
0.131598
0.136323
0.139879
0.14236
0.143849
0.144427
0.144156
0.143103
0.141331
0.1389
0.135862
0.132259
0.128142
0.123551
0.118527
0.113101
0.107306
0.101182
0.0947519
0.0880411
0.0810833
0.0738806
0.066485
0.0588769
0.051088
0.0431076
0.0348686
0.0264054
0.0172803
0.00851633
0.00332038
1.25981
1.11499
1.07814
1.03279
0.985553
0.942275
0.896729
0.849241
0.798707
0.744725
0.686511
0.623991
0.556933
0.485258
0.409023
0.328424
0.243857
0.155913
0.0653855
-0.0265854
-0.118822
-0.209547
-0.297297
-0.379734
-0.455618
-0.522082
-0.577455
-0.621621
-0.653415
-0.672059
-0.67806
-0.672176
-0.655626
-0.629893
-0.596634
-0.557542
-0.514256
-0.46829
-0.420938
-0.373332
-0.326386
-0.280826
-0.237186
-0.195857
-0.157087
-0.121021
-0.0877313
-0.0571813
-0.0293216
-0.00410379
0.0185946
0.0389093
0.056974
0.0729235
0.0868943
0.0990196
0.109433
0.118256
0.125609
0.131595
0.136319
0.139878
0.14236
0.143853
0.14443
0.144162
0.143108
0.141336
0.138904
0.13586
0.132259
0.128141
0.123551
0.118527
0.113102
0.107309
0.101179
0.0947486
0.0880397
0.0810805
0.0738815
0.06648
0.0588701
0.0510818
0.0431061
0.0348675
0.0264205
0.017315
0.00852013
0.00330908
1.26077
1.11597
1.07915
1.03383
0.986652
0.943452
0.897998
0.850619
0.80012
0.74643
0.688475
0.626089
0.559295
0.48792
0.412012
0.33179
0.247622
0.16012
0.0700517
-0.0214504
-0.113198
-0.203467
-0.290772
-0.372815
-0.448285
-0.514413
-0.570051
-0.614224
-0.645948
-0.664732
-0.670962
-0.665385
-0.649193
-0.623862
-0.591029
-0.552375
-0.509529
-0.46399
-0.417053
-0.369839
-0.323264
-0.278046
-0.234721
-0.193674
-0.155162
-0.119326
-0.0862294
-0.0558635
-0.0281824
-0.00310829
0.0194712
0.0396782
0.0576499
0.0735186
0.087413
0.0994729
0.109827
0.118597
0.125903
0.131849
0.136538
0.140065
0.142526
0.143993
0.144549
0.144262
0.143196
0.141413
0.13897
0.13592
0.13231
0.128185
0.123586
0.118557
0.113127
0.107329
0.101201
0.0947693
0.0880569
0.0810978
0.0738929
0.0664938
0.0588781
0.0510891
0.0431067
0.0348688
0.0264058
0.017286
0.00852081
0.00331361
1.26268
1.1179
1.08115
1.03589
0.988828
0.945782
0.900496
0.853351
0.803218
0.749677
0.692091
0.630246
0.563973
0.493179
0.417941
0.338444
0.255088
0.168438
0.0792782
-0.0112919
-0.102098
-0.191461
-0.277888
-0.359214
-0.433916
-0.49968
-0.555251
-0.599344
-0.631112
-0.650204
-0.656895
-0.651926
-0.636447
-0.611907
-0.579917
-0.542127
-0.500146
-0.455459
-0.409341
-0.362907
-0.317057
-0.272514
-0.22981
-0.18933
-0.151327
-0.115948
-0.0832637
-0.0532647
-0.0259091
-0.00112225
0.0212047
0.0411895
0.0589633
0.0746606
0.0884076
0.100336
0.110582
0.119256
0.126475
0.132348
0.136974
0.140447
0.142855
0.14428
0.1448
0.144484
0.143389
0.141581
0.139117
0.136045
0.132418
0.12828
0.123669
0.118628
0.11319
0.107383
0.101244
0.0948053
0.0880853
0.0811178
0.0739132
0.0665067
0.0588921
0.0510938
0.0431139
0.0348597
0.0263941
0.0173012
0.00854766
0.00334582
1.26553
1.12079
1.08412
1.03898
0.992079
0.949232
0.904228
0.857395
0.807668
0.754578
0.697553
0.636378
0.570858
0.500932
0.426657
0.348242
0.266047
0.180659
0.0928351
0.00362122
-0.0857837
-0.173837
-0.258972
-0.339233
-0.412925
-0.478115
-0.533303
-0.577259
-0.60918
-0.628709
-0.636087
-0.632008
-0.617583
-0.594213
-0.563464
-0.526955
-0.486257
-0.442827
-0.397925
-0.352644
-0.30788
-0.26434
-0.222555
-0.18291
-0.145661
-0.110962
-0.078881
-0.0494203
-0.0225428
0.00182231
0.0237777
0.0434368
0.0609264
0.0763743
0.0899033
0.101642
0.111717
0.120245
0.127338
0.133096
0.137624
0.141007
0.143343
0.144704
0.145166
0.144795
0.143659
0.141817
0.139321
0.136224
0.132574
0.128417
0.123787
0.118727
0.113271
0.107454
0.101308
0.0948588
0.0881327
0.0811641
0.0739487
0.066538
0.0589144
0.0511203
0.043131
0.0348853
0.0264471
0.0173224
0.00852308
0.00330129
1.2693
1.12459
1.08805
1.04303
0.996343
0.953768
0.909085
0.862688
0.813456
0.760987
0.704698
0.644364
0.579825
0.511001
0.437981
0.36094
0.280272
0.19651
0.110396
0.0229603
-0.0646695
-0.15098
-0.234489
-0.313299
-0.385771
-0.45006
-0.504717
-0.548502
-0.580598
-0.60068
-0.608923
-0.605986
-0.592915
-0.57106
-0.541931
-0.507093
-0.468069
-0.426287
-0.382973
-0.339203
-0.295851
-0.253623
-0.213043
-0.174494
-0.138235
-0.104424
-0.0731366
-0.0443825
-0.0181357
0.00567518
0.0271467
0.0463775
0.0634867
0.0786009
0.0918416
0.10333
0.113186
0.121521
0.128444
0.134061
0.138466
0.141746
0.143986
0.145262
0.145651
0.145223
0.14403
0.142138
0.139602
0.136466
0.132783
0.128594
0.123939
0.118861
0.113388
0.107555
0.101395
0.0949305
0.0881895
0.0812099
0.073991
0.066572
0.0589447
0.0511385
0.0431473
0.0348864
0.026418
0.0173184
0.0085532
0.00333728
1.27396
1.12931
1.09289
1.04804
1.0016
0.959339
0.915071
0.869164
0.820548
0.768786
0.71336
0.654046
0.590674
0.523187
0.451658
0.376283
0.297422
0.215604
0.131566
0.0462372
-0.0392293
-0.123468
-0.204973
-0.282041
-0.353006
-0.41619
-0.470137
-0.51365
-0.545934
-0.566634
-0.575899
-0.574319
-0.56288
-0.542857
-0.515687
-0.482875
-0.445892
-0.406114
-0.364738
-0.322805
-0.281181
-0.240551
-0.201439
-0.164226
-0.129174
-0.0964476
-0.0661275
-0.038235
-0.0127523
0.0103847
0.0312574
0.0499643
0.0666175
0.0813304
0.094221
0.105404
0.114995
0.123103
0.129826
0.135258
0.139503
0.142642
0.144764
0.14594
0.146239
0.145728
0.144469
0.142521
0.139933
0.136755
0.133035
0.128816
0.124131
0.119024
0.113523
0.107671
0.101494
0.0950187
0.0882656
0.0812734
0.0740405
0.0666137
0.0589784
0.0511745
0.0431735
0.0349174
0.0264632
0.0173499
0.00853482
0.00328297
1.27948
1.13489
1.09862
1.05394
1.00778
0.965878
0.922052
0.876723
0.828766
0.777853
0.723427
0.66525
0.60321
0.537229
0.467409
0.393919
0.317125
0.237537
0.155837
0.0729535
-0.0100691
-0.0918936
-0.171132
-0.246153
-0.315381
-0.377231
-0.430302
-0.473455
-0.505888
-0.527255
-0.537641
-0.537592
-0.528004
-0.510075
-0.485162
-0.454694
-0.42007
-0.382621
-0.34349
-0.3037
-0.264083
-0.225315
-0.187913
-0.152257
-0.118613
-0.0871484
-0.0579576
-0.0310698
-0.00647731
0.0158736
0.0360568
0.0541562
0.0702739
0.0845217
0.097
0.107821
0.117094
0.124924
0.131406
0.136634
0.140702
0.143691
0.145677
0.146733
0.146928
0.146331
0.144993
0.142974
0.140328
0.137098
0.133329
0.129066
0.124347
0.119209
0.113687
0.107811
0.101612
0.095118
0.088351
0.0813433
0.0740994
0.0666636
0.0590189
0.0512035
0.0431937
0.0349386
0.0264573
0.0173393
0.00854923
0.00329344
1.28584
1.1413
1.10516
1.06071
1.01483
0.973312
0.929986
0.885255
0.83806
0.788037
0.734671
0.677765
0.617178
0.55286
0.484905
0.413483
0.338968
0.261808
0.182714
0.102481
0.0221857
-0.0569992
-0.133695
-0.206438
-0.27371
-0.33404
-0.386084
-0.428763
-0.461304
-0.483338
-0.494919
-0.49652
-0.488961
-0.473343
-0.450928
-0.423065
-0.391078
-0.356225
-0.319616
-0.282221
-0.244857
-0.208177
-0.172693
-0.138784
-0.10672
-0.0766741
-0.0487492
-0.0229937
0.000598372
0.0220655
0.0414646
0.0588749
0.0743878
0.0881039
0.100122
0.11054
0.119466
0.126992
0.13321
0.138204
0.142067
0.144874
0.146704
0.147622
0.147701
0.146999
0.145574
0.14348
0.140764
0.137477
0.133661
0.129355
0.124597
0.119426
0.11387
0.107969
0.101745
0.0952316
0.0884458
0.0814239
0.0741685
0.0667186
0.0590662
0.0512366
0.043232
0.0349312
0.0264742
0.0173913
0.00856798
0.00332119
1.29298
1.14851
1.11256
1.06826
1.02268
0.981576
0.938738
0.894671
0.848272
0.799184
0.746945
0.691374
0.63233
0.569767
0.503797
0.434588
0.362481
0.287941
0.211589
0.134228
0.0568144
-0.0195145
-0.0934958
-0.163769
-0.228904
-0.287548
-0.338426
-0.38053
-0.413101
-0.435781
-0.448576
-0.451898
-0.446474
-0.433315
-0.413583
-0.388531
-0.359394
-0.327365
-0.293493
-0.258712
-0.223798
-0.189399
-0.156011
-0.124013
-0.093675
-0.0651845
-0.0386538
-0.0141335
0.00835963
0.0288538
0.0473984
0.0640603
0.0789138
0.0920497
0.103557
0.113534
0.12207
0.129252
0.135172
0.139912
0.143553
0.146166
0.147828
0.148604
0.148554
0.147743
0.14622
0.14404
0.141253
0.137899
0.134021
0.129664
0.124864
0.119658
0.114073
0.108139
0.10189
0.0953541
0.0885494
0.0815093
0.0742371
0.0667759
0.0591129
0.0512747
0.0432514
0.0349744
0.0264747
0.01734
0.00856335
0.00331983
1.30093
1.1565
1.12064
1.07659
1.03129
0.990551
0.948227
0.904793
0.859219
0.811099
0.760033
0.705836
0.64839
0.587653
0.523747
0.456824
0.387242
0.315379
0.241913
0.167508
0.0931298
0.0197708
-0.0513563
-0.119019
-0.181895
-0.238721
-0.288321
-0.329748
-0.36228
-0.385561
-0.399562
-0.404629
-0.401409
-0.390799
-0.373862
-0.351752
-0.325618
-0.296563
-0.265592
-0.233579
-0.201279
-0.169304
-0.138151
-0.10819
-0.0796994
-0.0528707
-0.0278229
-0.00463028
0.0166878
0.0361438
0.053769
0.0696179
0.08376
0.0962756
0.107243
0.116742
0.124864