/*--------------------------------*- C++ -*----------------------------------*\
  =========                 |
  \\      /  F ield         | OpenFOAM: The Open Source CFD Toolbox
   \\    /   O peration     | Website:  https://openfoam.org
    \\  /    A nd           | Version:  11
     \\/     M anipulation  |
\*---------------------------------------------------------------------------*/
FoamFile
{
    format      ascii;
    class       volScalarField;
    location    "0.074";
    object      k;
}
// * * * * * * * * * * * * * * * * * * * * * * * * * * * * * * * * * * * * * //

dimensions      [0 2 -2 0 0 0 0];

internalField   nonuniform List<scalar> 
287084
(
0.3813
0.394403
0.408062
0.419699
0.427579
0.4316
0.432727
0.432769
0.432737
0.432683
0.432688
0.432666
0.432802
0.432942
0.432903
0.432901
0.432914
0.432911
0.432767
0.432711
0.432792
0.432777
0.432898
0.433089
0.433081
0.433075
0.432898
0.432851
0.432925
0.432926
0.433029
0.433075
0.433018
0.433021
0.433023
0.43299
0.432815
0.432748
0.432706
0.432648
0.432518
0.432489
0.432429
0.432433
0.432435
0.432407
0.432395
0.432256
0.432229
0.432102
0.432082
0.432324
0.432445
0.432445
0.432445
0.432345
0.432321
0.432268
0.432097
0.432164
0.432307
0.432301
0.432302
0.432196
0.432375
0.432509
0.432491
0.432486
0.432345
0.432407
0.432464
0.432423
0.432333
0.432279
0.43242
0.432537
0.432498
0.432513
0.432519
0.432495
0.432455
0.432331
0.432419
0.432611
0.432615
0.432614
0.432513
0.432504
0.432438
0.432212
0.381339
0.39437
0.407849
0.419485
0.427463
0.431647
0.432847
0.432849
0.432837
0.433044
0.433206
0.433121
0.433172
0.433189
0.43316
0.433131
0.432924
0.432894
0.432964
0.432968
0.4329
0.432926
0.433321
0.433452
0.433444
0.433454
0.433443
0.433397
0.433294
0.433192
0.433143
0.433002
0.433069
0.433138
0.432998
0.433032
0.433039
0.432986
0.432798
0.432821
0.432976
0.432962
0.432924
0.432747
0.432703
0.43275
0.432678
0.432777
0.432846
0.432847
0.432845
0.432705
0.432706
0.432654
0.432481
0.432453
0.432471
0.432479
0.432485
0.432447
0.432323
0.432396
0.432682
0.432673
0.432634
0.432462
0.432474
0.4327
0.432727
0.432695
0.432566
0.432649
0.432842
0.432787
0.432774
0.432741
0.432742
0.432726
0.432709
0.43258
0.432632
0.432677
0.432651
0.432578
0.432616
0.432738
0.432659
0.432682
0.432639
0.432442
0.381343
0.394358
0.407829
0.419499
0.427346
0.43158
0.433096
0.433236
0.433223
0.433241
0.433195
0.433047
0.43309
0.433132
0.433106
0.433036
0.433009
0.433224
0.433282
0.43324
0.433142
0.433074
0.433138
0.433418
0.433448
0.43339
0.433387
0.433361
0.43336
0.43335
0.433359
0.433322
0.43329
0.43324
0.433223
0.433184
0.433152
0.433115
0.432869
0.432868
0.432942
0.43275
0.432813
0.432882
0.432882
0.432879
0.432649
0.43266
0.432876
0.432896
0.432868
0.432873
0.43284
0.432788
0.432613
0.432517
0.432499
0.432499
0.43253
0.432511
0.432428
0.432512
0.432585
0.432559
0.432526
0.432483
0.432739
0.432838
0.432793
0.432791
0.432787
0.43279
0.432728
0.432558
0.432507
0.43251
0.432521
0.432483
0.432505
0.432523
0.432374
0.432352
0.432534
0.43265
0.432579
0.432649
0.432681
0.432672
0.432666
0.432412
0.381318
0.394369
0.407865
0.419419
0.427278
0.431575
0.433147
0.433305
0.433278
0.433185
0.433235
0.433331
0.43333
0.433328
0.433111
0.433136
0.433279
0.433166
0.433249
0.433318
0.433233
0.433262
0.433223
0.433071
0.433128
0.433182
0.433144
0.433135
0.432969
0.433055
0.43332
0.433306
0.433298
0.433302
0.43331
0.433274
0.433271
0.433209
0.433068
0.432977
0.432943
0.432903
0.432865
0.432811
0.432771
0.432686
0.432762
0.432805
0.432754
0.432585
0.432563
0.432672
0.432698
0.432666
0.432659
0.432622
0.432572
0.432472
0.43243
0.432651
0.432766
0.43275
0.432758
0.432698
0.432472
0.432465
0.432637
0.432513
0.432531
0.432735
0.432792
0.432774
0.43279
0.43274
0.432589
0.432509
0.43267
0.432869
0.432805
0.432831
0.432804
0.432767
0.432668
0.432717
0.432779
0.432736
0.432594
0.432608
0.432666
0.43245
0.381312
0.394378
0.407861
0.419351
0.427367
0.431558
0.432852
0.433181
0.433209
0.433175
0.433081
0.433071
0.433196
0.433205
0.433172
0.433113
0.433103
0.43297
0.433034
0.433097
0.433075
0.433078
0.433001
0.433171
0.433254
0.433173
0.433152
0.433127
0.433116
0.433188
0.433239
0.433193
0.433181
0.433148
0.433143
0.43311
0.432916
0.432969
0.433193
0.433174
0.433174
0.433152
0.43315
0.433062
0.433031
0.433029
0.433046
0.433013
0.432966
0.432874
0.432654
0.432589
0.432554
0.432462
0.432458
0.43245
0.432454
0.432337
0.432414
0.43253
0.432472
0.432465
0.432412
0.43244
0.432388
0.432366
0.4323
0.432403
0.432532
0.432497
0.432511
0.432452
0.432658
0.432852
0.432782
0.432838
0.432853
0.432796
0.4328
0.432813
0.432835
0.432811
0.432754
0.432637
0.432464
0.432544
0.432667
0.432645
0.43264
0.432456
0.381316
0.394359
0.407834
0.419452
0.427392
0.431326
0.432566
0.43279
0.433107
0.433168
0.433113
0.433099
0.433069
0.433059
0.432867
0.432843
0.433008
0.433165
0.433139
0.433087
0.433102
0.433064
0.432943
0.433006
0.433143
0.433048
0.432975
0.433112
0.433292
0.433238
0.433234
0.433253
0.433261
0.433209
0.432974
0.432965
0.433031
0.432868
0.432929
0.43301
0.432956
0.432971
0.432939
0.432899
0.432863
0.432824
0.432613
0.432579
0.432674
0.432734
0.432699
0.432647
0.432551
0.432579
0.432685
0.432693
0.432694
0.432627
0.432558
0.432597
0.432694
0.432664
0.432669
0.432626
0.432521
0.432432
0.432617
0.432792
0.432737
0.43277
0.432781
0.432742
0.432654
0.432535
0.432541
0.432537
0.432656
0.432781
0.432732
0.432765
0.43273
0.432679
0.432531
0.432588
0.432748
0.432715
0.432718
0.432724
0.4327
0.43249
0.381296
0.39436
0.407847
0.419435
0.427413
0.431255
0.432821
0.433056
0.433044
0.43305
0.432987
0.432829
0.432909
0.433294
0.433199
0.433213
0.433538
0.433655
0.433611
0.433613
0.43363
0.433644
0.433589
0.433394
0.433437
0.433542
0.433515
0.433476
0.433398
0.433368
0.433285
0.433254
0.433246
0.43313
0.433173
0.43321
0.433173
0.433145
0.432952
0.433019
0.433096
0.433042
0.4329
0.432835
0.43288
0.432911
0.432879
0.43279
0.432734
0.432709
0.432705
0.43257
0.432618
0.432669
0.432608
0.432602
0.432525
0.43252
0.432492
0.432608
0.432673
0.432648
0.432637
0.432524
0.432501
0.432429
0.432521
0.432608
0.432571
0.432445
0.432433
0.432526
0.432541
0.432559
0.432513
0.432602
0.432697
0.432675
0.43265
0.432645
0.432509
0.432559
0.43271
0.432704
0.43269
0.432539
0.432505
0.432629
0.432653
0.432535
0.381312
0.39434
0.407932
0.419355
0.427132
0.431551
0.433343
0.433754
0.433746
0.433745
0.433633
0.433714
0.433774
0.433703
0.433697
0.433709
0.433737
0.43372
0.433678
0.433508
0.433567
0.43368
0.433582
0.433607
0.433658
0.433648
0.4336
0.433585
0.433569
0.433574
0.433528
0.433513
0.433476
0.433435
0.433407
0.433358
0.433275
0.433056
0.432999
0.433175
0.433212
0.433166
0.433067
0.433006
0.432993
0.432941
0.432961
0.432998
0.432967
0.432938
0.432914
0.432712
0.432742
0.432906
0.43291
0.432909
0.432733
0.432809
0.432888
0.43286
0.432858
0.432853
0.43282
0.432763
0.43273
0.432673
0.432487
0.432453
0.432573
0.432504
0.432588
0.432762
0.432736
0.432701
0.432584
0.432536
0.432743
0.432863
0.43284
0.432839
0.432798
0.432746
0.432566
0.432661
0.432798
0.432761
0.432682
0.432614
0.432607
0.432453
0.381308
0.394349
0.407855
0.419454
0.427267
0.431426
0.432894
0.43303
0.433018
0.433015
0.432845
0.43287
0.433321
0.433449
0.433337
0.433389
0.433407
0.433318
0.433448
0.433683
0.433578
0.433642
0.433666
0.433492
0.433565
0.433676
0.433591
0.433622
0.433677
0.433662
0.43365
0.43362
0.433557
0.433435
0.433314
0.43326
0.433179
0.433141
0.43308
0.432881
0.432853
0.432965
0.432895
0.432845
0.43296
0.433019
0.432906
0.432981
0.433019
0.433008
0.433005
0.432886
0.432879
0.432846
0.432789
0.432612
0.432469
0.432585
0.43267
0.432627
0.432535
0.432462
0.432637
0.432722
0.432682
0.432688
0.432652
0.432597
0.43245
0.432585
0.432824
0.432853
0.432817
0.432755
0.432742
0.432623
0.43253
0.432714
0.432917
0.432828
0.432899
0.432928
0.432879
0.43278
0.432655
0.432618
0.432581
0.432588
0.432585
0.432451
0.381345
0.394248
0.40793
0.419461
0.427257
0.431401
0.432744
0.432841
0.432731
0.432747
0.433066
0.433181
0.433137
0.433021
0.432958
0.43306
0.433058
0.433172
0.433279
0.433241
0.433103
0.433112
0.43323
0.433151
0.433213
0.433231
0.433205
0.433131
0.433226
0.433385
0.433285
0.433272
0.433259
0.43313
0.433102
0.433121
0.433076
0.4331
0.433051
0.433048
0.433049
0.433065
0.433066
0.433012
0.432918
0.432723
0.432548
0.432552
0.43256
0.432516
0.432386
0.432431
0.432506
0.432459
0.432344
0.432285
0.432315
0.43232
0.432256
0.432339
0.432636
0.432663
0.432633
0.432595
0.432554
0.432467
0.432325
0.432367
0.43256
0.432578
0.432564
0.432558
0.43242
0.43238
0.43244
0.432448
0.432389
0.432474
0.432697
0.432709
0.432703
0.432534
0.432489
0.432723
0.432835
0.432799
0.432791
0.432761
0.432738
0.432506
0.381326
0.394328
0.40787
0.419401
0.427306
0.431489
0.432829
0.432924
0.432814
0.432901
0.433044
0.433028
0.43298
0.432999
0.433125
0.432973
0.432988
0.433198
0.43317
0.433291
0.433594
0.433576
0.43352
0.433325
0.433369
0.433478
0.433254
0.433305
0.433398
0.433373
0.433365
0.433194
0.433269
0.433392
0.433328
0.433345
0.433349
0.433345
0.433334
0.433308
0.433271
0.433197
0.433005
0.432906
0.432812
0.432604
0.432453
0.432567
0.432696
0.432663
0.432546
0.432602
0.432668
0.432626
0.432487
0.43249
0.432528
0.432507
0.432416
0.432391
0.432578
0.432601
0.432557
0.432408
0.432475
0.432591
0.432587
0.432585
0.432394
0.432432
0.432566
0.432553
0.432474
0.432536
0.432627
0.432621
0.432619
0.432424
0.432417
0.432614
0.432643
0.432569
0.432652
0.432808
0.432772
0.432632
0.432618
0.43267
0.432658
0.43253
0.381296
0.394368
0.407849
0.41942
0.427298
0.431407
0.433007
0.433215
0.433224
0.433223
0.43309
0.433046
0.433198
0.433577
0.433564
0.433457
0.433442
0.433439
0.433363
0.433341
0.433458
0.43349
0.433545
0.433556
0.43343
0.433524
0.43369
0.433614
0.433612
0.433599
0.433599
0.433575
0.433572
0.433564
0.433566
0.433542
0.433498
0.433431
0.43332
0.433177
0.433054
0.432958
0.432857
0.432589
0.432508
0.432554
0.432628
0.432596
0.432461
0.432469
0.432396
0.432475
0.432715
0.432671
0.432696
0.432702
0.432682
0.432666
0.43264
0.432596
0.432563
0.432509
0.432336
0.432313
0.432627
0.432709
0.432692
0.432686
0.432511
0.432586
0.432746
0.432749
0.432748
0.432557
0.43261
0.432713
0.432703
0.432695
0.432487
0.432551
0.432686
0.432656
0.432598
0.432567
0.432717
0.432794
0.432774
0.432778
0.432712
0.432453
0.381317
0.394326
0.407959
0.419309
0.427155
0.431586
0.433257
0.433441
0.433298
0.433353
0.433532
0.433457
0.433404
0.433393
0.433329
0.433387
0.433693
0.43374
0.43369
0.433517
0.433513
0.433676
0.433688
0.433624
0.433695
0.433829
0.433675
0.433757
0.433805
0.433747
0.433741
0.433739
0.433721
0.433643
0.433476
0.433242
0.433194
0.433187
0.433175
0.433122
0.432965
0.432961
0.432969
0.432911
0.432769
0.432711
0.43276
0.432729
0.43283
0.432872
0.432809
0.432799
0.432768
0.432755
0.432658
0.432593
0.432632
0.432639
0.432597
0.432476
0.432568
0.432739
0.432668
0.432727
0.432751
0.432704
0.432591
0.43252
0.432532
0.432467
0.432562
0.432716
0.432733
0.432695
0.43249
0.432472
0.432735
0.432814
0.432765
0.432637
0.432589
0.432663
0.43267
0.432676
0.432677
0.432584
0.4326
0.432652
0.432632
0.432512
0.381324
0.394323
0.407829
0.419485
0.427385
0.431247
0.432748
0.432918
0.432714
0.432777
0.432911
0.432736
0.43282
0.432926
0.432772
0.432746
0.432875
0.432881
0.433024
0.433257
0.433245
0.433178
0.433195
0.433376
0.433487
0.433614
0.43345
0.433531
0.433624
0.4336
0.433601
0.433563
0.433513
0.433465
0.433383
0.43329
0.433215
0.432996
0.433017
0.433081
0.432957
0.432984
0.433068
0.433047
0.433018
0.432991
0.432782
0.432807
0.432906
0.432918
0.43288
0.432797
0.432774
0.432603
0.432614
0.432626
0.432585
0.432466
0.432515
0.432674
0.432647
0.432613
0.432433
0.432485
0.432579
0.432536
0.432536
0.432458
0.432469
0.432457
0.432595
0.432699
0.432702
0.432703
0.432593
0.432575
0.432429
0.432437
0.432642
0.432565
0.432596
0.432854
0.432945
0.432934
0.432923
0.432757
0.432708
0.432773
0.432779
0.432656
0.381313
0.394341
0.407926
0.419366
0.427101
0.43156
0.433379
0.433615
0.433471
0.433532
0.433695
0.433509
0.433561
0.433703
0.433576
0.433565
0.433563
0.433459
0.433454
0.433564
0.433507
0.433578
0.433784
0.433782
0.433747
0.433825
0.43385
0.433746
0.433791
0.433799
0.433766
0.43379
0.433755
0.433709
0.433683
0.433631
0.433574
0.433498
0.43333
0.433209
0.433115
0.432944
0.432616
0.43261
0.432724
0.432673
0.432677
0.432669
0.43261
0.432512
0.432445
0.432418
0.432377
0.432494
0.43266
0.432609
0.432619
0.432635
0.432648
0.432594
0.432483
0.432577
0.432775
0.432747
0.432627
0.432625
0.43281
0.432829
0.432781
0.43261
0.432558
0.432658
0.432685
0.432637
0.43246
0.432456
0.432747
0.432802
0.432754
0.432583
0.432557
0.432671
0.432608
0.432692
0.432728
0.432685
0.432549
0.432572
0.432639
0.432436
0.381318
0.394402
0.407817
0.41936
0.427371
0.431318
0.43299
0.433222
0.433183
0.433102
0.433051
0.43312
0.433132
0.433132
0.43304
0.433187
0.433366
0.433337
0.433218
0.433242
0.433347
0.433184
0.433181
0.433382
0.433416
0.433325
0.433432
0.433564
0.433437
0.433412
0.433355
0.433315
0.433237
0.433286
0.433317
0.43326
0.433259
0.433226
0.433198
0.433202
0.433207
0.433179
0.433152
0.433113
0.433076
0.433005
0.432858
0.432635
0.432555
0.432347
0.432347
0.432586
0.432612
0.432564
0.432403
0.432465
0.432677
0.432607
0.432811
0.433083
0.433116
0.43308
0.432883
0.432924
0.432965
0.43281
0.432906
0.432997
0.432968
0.432965
0.432965
0.432949
0.432701
0.432685
0.43273
0.432716
0.4326
0.432625
0.43266
0.432573
0.432497
0.432591
0.432835
0.432835
0.432821
0.432626
0.432659
0.432701
0.432657
0.432521
0.38131
0.39436
0.407916
0.419387
0.427061
0.431463
0.433487
0.433825
0.433837
0.433837
0.43367
0.433752
0.433863
0.433819
0.433824
0.433845
0.433847
0.433756
0.433612
0.433617
0.433719
0.433731
0.433735
0.43359
0.433625
0.433792
0.433756
0.433758
0.433772
0.433766
0.433716
0.433712
0.433678
0.433661
0.433623
0.433551
0.433492
0.43343
0.433368
0.433316
0.433246
0.433117
0.432808
0.432651
0.432569
0.432529
0.43249
0.432469
0.432446
0.43223
0.43221
0.432396
0.432438
0.432414
0.432326
0.432384
0.432751
0.432798
0.432739
0.432735
0.432692
0.432548
0.432583
0.432736
0.43271
0.432698
0.432705
0.432721
0.432704
0.432702
0.432621
0.432493
0.432563
0.432767
0.432758
0.432748
0.432636
0.432558
0.432561
0.432545
0.432668
0.43275
0.432735
0.432732
0.43264
0.43264
0.432609
0.43254
0.43251
0.43241
0.38131
0.394353
0.407896
0.419426
0.427038
0.431528
0.433515
0.433822
0.433688
0.433775
0.433855
0.433854
0.433854
0.433626
0.433672
0.433795
0.433585
0.433579
0.43371
0.433733
0.433696
0.433765
0.433884
0.433746
0.433835
0.43398
0.433961
0.433965
0.433898
0.433858
0.433851
0.433857
0.433799
0.433766
0.433705
0.433659
0.433595
0.433478
0.43331
0.433157
0.433073
0.432956
0.432816
0.432745
0.432679
0.432599
0.432409
0.432297
0.43248
0.432602
0.432602
0.432603
0.432545
0.43244
0.432414
0.432667
0.432765
0.432576
0.43264
0.432813
0.432654
0.432736
0.432891
0.432863
0.432829
0.432722
0.432719
0.432692
0.432663
0.432562
0.432661
0.432916
0.432905
0.432873
0.432866
0.432857
0.432784
0.432781
0.432728
0.432698
0.43268
0.43253
0.432538
0.432738
0.432759
0.432727
0.432541
0.432547
0.432624
0.432445
0.381312
0.394352
0.40794
0.419343
0.427099
0.431525
0.433333
0.433732
0.433715
0.433584
0.433616
0.43372
0.433669
0.433666
0.433646
0.433656
0.433652
0.433563
0.433564
0.433749
0.433802
0.433772
0.433624
0.433682
0.433806
0.433709
0.433725
0.433669
0.433654
0.433666
0.433668
0.433631
0.433602
0.433509
0.433402
0.433152
0.433018
0.433081
0.43314
0.433108
0.433105
0.433067
0.433028
0.433016
0.432948
0.432883
0.432817
0.432697
0.432361
0.432269
0.432455
0.432507
0.432483
0.432474
0.432326
0.43235
0.432723
0.432764
0.432632
0.432689
0.43284
0.43268
0.43276
0.432883
0.432889
0.43289
0.432689
0.432733
0.432783
0.432599
0.432661
0.432774
0.432572
0.432629
0.432799
0.432774
0.43274
0.432572
0.432613
0.432802
0.432805
0.43281
0.432801
0.432739
0.432554
0.432508
0.43256
0.432585
0.432553
0.432371
0.381274
0.394438
0.407851
0.419354
0.427202
0.43154
0.433145
0.43336
0.43333
0.433206
0.433249
0.433344
0.433325
0.433329
0.433204
0.4332
0.433158
0.433287
0.433486
0.433431
0.433441
0.433385
0.433537
0.433827
0.433947
0.433931
0.433967
0.433926
0.433847
0.433862
0.433815
0.433783
0.43376
0.433748
0.433673
0.433619
0.433518
0.433416
0.433335
0.433245
0.433105
0.43302
0.4329
0.432755
0.432654
0.432401
0.432325
0.43234
0.432392
0.432358
0.432175
0.432285
0.432903
0.432989
0.432889
0.43295
0.43318
0.433211
0.433185
0.433164
0.433054
0.432977
0.432946
0.432863
0.432955
0.433018
0.432992
0.432974
0.432883
0.432871
0.432859
0.432951
0.432987
0.432936
0.432749
0.432755
0.432815
0.43271
0.4327
0.432706
0.432728
0.432711
0.432667
0.432568
0.432549
0.432524
0.432471
0.432483
0.432472
0.432341
0.381321
0.394348
0.407852
0.419411
0.427337
0.431436
0.432605
0.432599
0.432612
0.43288
0.433061
0.433078
0.433041
0.432831
0.432844
0.433091
0.433171
0.433145
0.433051
0.433095
0.433565
0.43392
0.433804
0.433908
0.433985
0.43392
0.433902
0.433911
0.43393
0.433905
0.433891
0.433837
0.433778
0.433708
0.4336
0.433364
0.433128
0.43308
0.433035
0.432992
0.432957
0.432926
0.432887
0.432832
0.432729
0.432456
0.432438
0.432511
0.432405
0.43247
0.432533
0.432468
0.432462
0.432469
0.43246
0.432247
0.432256
0.43235
0.432332
0.432331
0.43223
0.432305
0.432351
0.432313
0.432194
0.432169
0.432341
0.432366
0.432343
0.43233
0.432453
0.432493
0.432602
0.432789
0.432792
0.432784
0.432604
0.432549
0.43262
0.432597
0.432708
0.432764
0.432721
0.432582
0.432583
0.432616
0.432413
0.432441
0.432576
0.432401
0.381319
0.394322
0.407969
0.419297
0.427167
0.431592
0.433297
0.433509
0.43352
0.433519
0.433328
0.433329
0.433481
0.433484
0.433533
0.43355
0.433547
0.433543
0.433557
0.433469
0.433528
0.433797
0.433757
0.433834
0.433954
0.433913
0.433947
0.433905
0.433883
0.433877
0.433841
0.4337
0.4336
0.433505
0.433453
0.4334
0.433295
0.433248
0.433196
0.433152
0.433077
0.433024
0.432954
0.432907
0.432857
0.432756
0.432526
0.43231
0.432342
0.432441
0.432397
0.432273
0.432223
0.432589
0.432955
0.432944
0.432869
0.432922
0.433117
0.433045
0.433064
0.433057
0.432941
0.433009
0.433131
0.433066
0.433061
0.433013
0.432928
0.432791
0.43277
0.432713
0.432788
0.432977
0.43289
0.432999
0.433099
0.432947
0.433036
0.433106
0.433104
0.433103
0.432999
0.432851
0.432791
0.432758
0.432685
0.432688
0.432665
0.432457
0.381312
0.394345
0.407916
0.419391
0.427067
0.431605
0.433325
0.433454
0.433568
0.433747
0.433586
0.433645
0.433691
0.433656
0.43355
0.433552
0.433717
0.43373
0.43368
0.433751
0.433927
0.433923
0.433892
0.433978
0.43415
0.433998
0.434069
0.434096
0.434045
0.43405
0.434017
0.43399
0.433924
0.433869
0.433769
0.433547
0.433415
0.433307
0.433106
0.432762
0.43275
0.432796
0.432753
0.432763
0.432747
0.432701
0.432471
0.432427
0.432584
0.432637
0.432591
0.432493
0.432392
0.432608
0.432998
0.433167
0.433212
0.433084
0.433177
0.433234
0.43319
0.433044
0.433051
0.433162
0.433064
0.433055
0.433032
0.432898
0.432858
0.43293
0.432885
0.433008
0.433115
0.432948
0.433037
0.433136
0.433141
0.433141
0.432909
0.432954
0.43301
0.432846
0.43292
0.432974
0.432954
0.432941
0.432694
0.43268
0.432707
0.432521
0.381334
0.394326
0.407823
0.41952
0.42723
0.431419
0.432838
0.433013
0.432978
0.43284
0.432907
0.432993
0.432956
0.432884
0.432955
0.433291
0.433225
0.433344
0.433765
0.433763
0.4338
0.433851
0.433863
0.433827
0.433794
0.433786
0.433715
0.433806
0.433867
0.433735
0.433725
0.433735
0.433741
0.433702
0.433677
0.433634
0.433562
0.433438
0.433127
0.432913
0.43282
0.432573
0.432593
0.432652
0.432543
0.432516
0.432482
0.4325
0.432513
0.432487
0.432479
0.432414
0.432335
0.432368
0.432374
0.432236
0.432247
0.432398
0.432335
0.432428
0.432475
0.432463
0.432426
0.432494
0.432778
0.432762
0.432767
0.432793
0.432789
0.432578
0.432625
0.432756
0.432728
0.432726
0.432703
0.432702
0.43267
0.432578
0.432583
0.432702
0.432704
0.43272
0.43268
0.432511
0.432537
0.432694
0.432722
0.432726
0.432677
0.432512
0.38129
0.394393
0.407886
0.419324
0.427273
0.431496
0.433178
0.433378
0.433364
0.433309
0.433303
0.433401
0.433389
0.433454
0.433486
0.433419
0.43342
0.433339
0.433428
0.433594
0.433589
0.433615
0.433532
0.433646
0.433693
0.433612
0.433737
0.433936
0.433908
0.43387
0.433845
0.433779
0.433593
0.433515
0.433449
0.433384
0.43333
0.43327
0.433221
0.433157
0.433023
0.432932
0.432866
0.432781
0.432602
0.432428
0.4323
0.432258
0.432218
0.432156
0.432092
0.432267
0.432445
0.43244
0.432434
0.432316
0.43228
0.432159
0.432091
0.432193
0.432218
0.432327
0.432478
0.432339
0.432416
0.432568
0.432553
0.432544
0.43244
0.43233
0.432427
0.432522
0.432377
0.432462
0.432595
0.432411
0.432368
0.432536
0.432632
0.43259
0.432439
0.432466
0.432671
0.432617
0.432629
0.43273
0.432772
0.432755
0.432709
0.432431
0.381315
0.394331
0.407951
0.419324
0.427145
0.431602
0.433271
0.433456
0.433337
0.433423
0.433637
0.433462
0.433489
0.433723
0.433738
0.433681
0.433768
0.433845
0.433702
0.433785
0.43384
0.433688
0.433761
0.433983
0.433915
0.433995
0.434069
0.434019
0.434016
0.434009
0.433992
0.433942
0.433855
0.433792
0.433683
0.43344
0.433278
0.433194
0.433086
0.433011
0.432955
0.432904
0.432878
0.43285
0.432816
0.432765
0.432654
0.432362
0.432219
0.432307
0.432401
0.432362
0.432221
0.432262
0.432455
0.432461
0.432413
0.432214
0.432239
0.432369
0.432361
0.432344
0.43232
0.432441
0.432412
0.432533
0.432622
0.432612
0.432611
0.432549
0.432546
0.432495
0.432338
0.432425
0.432714
0.432741
0.432704
0.432561
0.432647
0.432706
0.432692
0.432683
0.432438
0.432461
0.432654
0.432655
0.432622
0.432559
0.432543
0.432392
0.38131
0.394352
0.407896
0.419429
0.427038
0.431539
0.433502
0.433863
0.433837
0.433712
0.433674
0.43372
0.433589
0.433668
0.433823
0.433622
0.433627
0.433775
0.433794
0.43375
0.433825
0.433936
0.433787
0.43387
0.434083
0.434016
0.434018
0.434024
0.434019
0.433952
0.433912
0.433898
0.433898
0.433859
0.433793
0.433632
0.433467
0.433333
0.433253
0.43319
0.433134
0.433085
0.43302
0.432978
0.432898
0.432709
0.432648
0.432476
0.432473
0.432485
0.432438
0.432317
0.432337
0.43285
0.432905
0.433005
0.433207
0.4332
0.433199
0.433116
0.433112
0.43304
0.433123
0.433168
0.433075
0.433086
0.433073
0.432982
0.432868
0.432855
0.432828
0.432831
0.432829
0.432843
0.432844
0.432723
0.432714
0.432791
0.432764
0.432838
0.432876
0.432843
0.432803
0.432672
0.432761
0.432862
0.432845
0.432843
0.432776
0.432536
0.381312
0.394345
0.407916
0.41939
0.427066
0.431606
0.433327
0.433457
0.433572
0.433751
0.433573
0.433636
0.433747
0.433725
0.433701
0.433618
0.433677
0.433743
0.433715
0.433696
0.433653
0.433766
0.434015
0.433855
0.433938
0.434101
0.434093
0.434091
0.434064
0.434054
0.434025
0.433966
0.433818
0.43373
0.433651
0.433506
0.433414
0.433316
0.433132
0.43277
0.432752
0.43281
0.432805
0.432804
0.432741
0.432707
0.432458
0.432428
0.432598
0.432632
0.432581
0.432456
0.432386
0.432681
0.432947
0.432813
0.432878
0.43313
0.433136
0.433102
0.433016
0.432939
0.432894
0.43276
0.432801
0.432948
0.432932
0.432936
0.432953
0.43295
0.43276
0.432818
0.432976
0.432846
0.432933
0.432991
0.432909
0.432916
0.432919
0.432894
0.432782
0.432715
0.432515
0.432509
0.432656
0.432572
0.432677
0.432758
0.432706
0.432518
0.381319
0.394321
0.407971
0.419293
0.427173
0.431597
0.433224
0.433615
0.433597
0.433459
0.43351
0.433569
0.433432
0.433389
0.433558
0.433717
0.433692
0.433702
0.433669
0.433563
0.433639
0.433854
0.433831
0.43383
0.43381
0.43382
0.433779
0.433638
0.43366
0.433825
0.433821
0.433783
0.433705
0.4337
0.433698
0.433697
0.433671
0.433612
0.433496
0.43324
0.433043
0.432957
0.432874
0.432813
0.432768
0.432675
0.432448
0.432281
0.432403
0.43251
0.43247
0.432385
0.432314
0.432652
0.432942
0.432933
0.432884
0.432872
0.43312
0.433191
0.433143
0.433039
0.43294
0.433041
0.433103
0.433062
0.433056
0.433029
0.433016
0.432878
0.432809
0.432964
0.433025
0.433005
0.433004
0.432954
0.432923
0.432722
0.432723
0.432938
0.433015
0.432985
0.432889
0.432883
0.432887
0.432869
0.432667
0.432666
0.432681
0.432497
0.381326
0.394336
0.407864
0.419419
0.427297
0.431428
0.4328
0.432904
0.432828
0.432798
0.432983
0.433168
0.433095
0.433088
0.433089
0.432977
0.433029
0.433246
0.433244
0.433217
0.433294
0.433735
0.433817
0.433789
0.433668
0.433734
0.433794
0.433607
0.433677
0.433764
0.433759
0.433755
0.433702
0.433688
0.433649
0.433606
0.433418
0.433352
0.433238
0.432961
0.432822
0.432786
0.432763
0.432686
0.432707
0.432732
0.432553
0.432611
0.432664
0.432479
0.43252
0.432675
0.432665
0.432669
0.432658
0.432669
0.432642
0.432569
0.432352
0.432264
0.432476
0.432598
0.432569
0.432521
0.432405
0.432562
0.432728
0.43268
0.432706
0.432707
0.432663
0.432632
0.432544
0.432648
0.432867
0.432686
0.432751
0.432873
0.432679
0.432746
0.432844
0.432849
0.432849
0.43269
0.432636
0.432771
0.43288
0.432872
0.432856
0.432594
0.381326
0.394391
0.407816
0.419373
0.427373
0.431306
0.432972
0.43321
0.433195
0.433191
0.433204
0.433206
0.433131
0.433006
0.43308
0.433338
0.433255
0.433331
0.43337
0.433342
0.433261
0.433329
0.433783
0.433831
0.433794
0.43373
0.43366
0.433635
0.433562
0.433612
0.433623
0.433576
0.433499
0.433447
0.433395
0.433336
0.433212
0.43316
0.433107
0.433034
0.432951
0.432902
0.432848
0.432809
0.432771
0.432741
0.432654
0.432665
0.432678
0.432656
0.432642
0.432455
0.432325
0.432366
0.432394
0.4323
0.432286
0.432438
0.432716
0.432836
0.432816
0.432771
0.432631
0.432702
0.432771
0.432734
0.432612
0.432597
0.432687
0.432563
0.432542
0.432737
0.432805
0.432786
0.432778
0.432625
0.4327
0.43283
0.432802
0.432801
0.432759
0.432694
0.432567
0.43265
0.432714
0.432667
0.432502
0.432514
0.432585
0.432383
0.381318
0.394401
0.407818
0.419362
0.427373
0.431322
0.432989
0.433218
0.432991
0.433005
0.433092
0.433108
0.433111
0.432931
0.432995
0.433409
0.43346
0.433416
0.433262
0.433265
0.4335
0.433501
0.43351
0.433492
0.433636
0.433736
0.433708
0.433712
0.433679
0.43366
0.433589
0.433383
0.433278
0.43327
0.433209
0.433235
0.433234
0.433198
0.43317
0.433167
0.433106
0.433072
0.433022
0.43292
0.43268
0.432515
0.432463
0.43243
0.43238
0.432218
0.432297
0.432505
0.432398
0.432545
0.432928
0.432924
0.432919
0.432832
0.432731
0.432714
0.432703
0.432817
0.432869
0.432856
0.432855
0.432805
0.432705
0.432624
0.43272
0.432804
0.432851
0.432831
0.432797
0.432781
0.432622
0.43265
0.432772
0.43272
0.43272
0.432721
0.432715
0.432725
0.432675
0.432665
0.432629
0.432576
0.43245
0.432525
0.432603
0.432424
0.381311
0.394347
0.40791
0.419398
0.427064
0.431558
0.433437
0.433749
0.433724
0.433593
0.433598
0.433728
0.4336
0.433692
0.433825
0.433786
0.433786
0.433711
0.433711
0.433688
0.433676
0.433662
0.433603
0.433735
0.433903
0.433725
0.433808
0.433885
0.433808
0.433818
0.433818
0.433775
0.433553
0.433434
0.433359
0.43329
0.433237
0.433132
0.433096
0.43305
0.433008
0.432965
0.432885
0.432805
0.432556
0.432519
0.432656
0.432565
0.432545
0.432736
0.432852
0.432785
0.432783
0.432781
0.432744
0.432538
0.432525
0.432619
0.432694
0.432709
0.432694
0.43271
0.432691
0.432656
0.432627
0.432551
0.432605
0.43271
0.432687
0.432617
0.432693
0.432916
0.432911
0.432917
0.432918
0.432876
0.432781
0.432725
0.432742
0.432751
0.432722
0.432699
0.432555
0.432667
0.432803
0.432765
0.432681
0.432609
0.432604
0.432454
0.381308
0.394366
0.407904
0.419415
0.427004
0.431543
0.433418
0.433694
0.433824
0.433811
0.433609
0.433673
0.433802
0.433752
0.433764
0.433741
0.433759
0.433748
0.433853
0.434037
0.43402
0.433999
0.433996
0.43382
0.433872
0.43396
0.433881
0.433891
0.43386
0.43379
0.433779
0.433774
0.433778
0.433722
0.433568
0.433504
0.43342
0.433364
0.433295
0.433146
0.4331
0.433062
0.432988
0.432815
0.432749
0.432701
0.432625
0.43259
0.43254
0.432549
0.432524
0.432638
0.432745
0.432707
0.432619
0.432585
0.432718
0.432779
0.432793
0.432767
0.432731
0.432618
0.43257
0.432653
0.432626
0.432701
0.432887
0.432805
0.43291
0.432978
0.432968
0.432966
0.432792
0.432844
0.433
0.433017
0.43298
0.432928
0.432917
0.432819
0.43279
0.432744
0.432716
0.432712
0.432672
0.432548
0.432583
0.43263
0.43258
0.432416
0.381281
0.394417
0.407889
0.419307
0.427212
0.431589
0.433053
0.433216
0.433208
0.433191
0.433189
0.433059
0.433082
0.433101
0.432975
0.433076
0.433278
0.43327
0.433267
0.433202
0.433323
0.433368
0.433483
0.43362
0.433509
0.433568
0.433585
0.433529
0.433346
0.433316
0.433423
0.433443
0.433403
0.433184
0.433206
0.433229
0.433119
0.433093
0.433092
0.433091
0.433062
0.433048
0.432966
0.432709
0.432522
0.432435
0.432441
0.432436
0.432289
0.432363
0.4326
0.432593
0.432598
0.432604
0.432569
0.432508
0.432399
0.432529
0.432859
0.432744
0.432831
0.43289
0.432796
0.432786
0.432783
0.43266
0.432705
0.43283
0.432727
0.432731
0.43272
0.432587
0.432623
0.432751
0.432589
0.432554
0.432698
0.432786
0.432746
0.432609
0.432687
0.432804
0.432681
0.432728
0.432741
0.432707
0.432612
0.432647
0.432685
0.4325
0.381313
0.394343
0.407923
0.419367
0.427115
0.431516
0.433413
0.433774
0.433769
0.433766
0.433618
0.433705
0.433796
0.433568
0.433567
0.433668
0.433527
0.433591
0.433783
0.433609
0.433626
0.433765
0.433676
0.433786
0.433941
0.433913
0.433877
0.433818
0.433811
0.433744
0.433524
0.433539
0.433563
0.433489
0.433505
0.433488
0.433444
0.43336
0.433297
0.433216
0.433108
0.433033
0.432923
0.432731
0.432633
0.432585
0.432491
0.432437
0.432325
0.432284
0.432557
0.432767
0.432747
0.432713
0.432643
0.432558
0.43261
0.432652
0.43256
0.432529
0.432525
0.432537
0.432497
0.432552
0.432596
0.432459
0.432532
0.432605
0.432441
0.432429
0.432696
0.432899
0.432887
0.432854
0.432847
0.432758
0.432699
0.432688
0.432685
0.432645
0.432567
0.432667
0.432774
0.432726
0.43273
0.432712
0.432525
0.432562
0.432634
0.43243
0.381316
0.394331
0.407855
0.41946
0.427319
0.431407
0.432649
0.432739
0.432663
0.432775
0.433044
0.433053
0.433052
0.43291
0.432864
0.433124
0.4333
0.433175
0.433176
0.433442
0.433552
0.433422
0.433505
0.433775
0.433675
0.433784
0.433942
0.433922
0.43392
0.433836
0.433795
0.433734
0.433709
0.433613
0.433369
0.433285
0.433241
0.43317
0.433105
0.433111
0.433117
0.433083
0.433081
0.433047
0.432987
0.432736
0.432652
0.432791
0.432834
0.432779
0.432781
0.432785
0.432746
0.432504
0.432438
0.43255
0.432622
0.432579
0.432398
0.432441
0.432567