/*--------------------------------*- C++ -*----------------------------------*\
  =========                 |
  \\      /  F ield         | OpenFOAM: The Open Source CFD Toolbox
   \\    /   O peration     | Website:  https://openfoam.org
    \\  /    A nd           | Version:  11
     \\/     M anipulation  |
\*---------------------------------------------------------------------------*/
FoamFile
{
    format      ascii;
    class       volScalarField;
    location    "0.074";
    object      nut;
}
// * * * * * * * * * * * * * * * * * * * * * * * * * * * * * * * * * * * * * //

dimensions      [0 2 -1 0 0 0 0];

internalField   nonuniform List<scalar> 
287084
(
0.000835922
0.000865419
0.00089683
0.000924225
0.000943268
0.000953521
0.000956936
0.000957601
0.000957862
0.000957913
0.000957978
0.00095792
0.000958202
0.000958482
0.000958353
0.00095829
0.000958249
0.000958164
0.000957767
0.000957572
0.000957685
0.000957598
0.000957823
0.000958209
0.000958184
0.00095817
0.000957787
0.000957701
0.000957884
0.000957929
0.000958237
0.000958472
0.000958571
0.000958814
0.000959038
0.000959173
0.000958984
0.000959032
0.000959129
0.000959189
0.000959075
0.000959177
0.000959201
0.000959353
0.000959487
0.000959542
0.000959619
0.000959399
0.000959415
0.000959198
0.00095921
0.000959768
0.000960043
0.000960051
0.000960046
0.000959819
0.000959749
0.000959615
0.000959213
0.000959343
0.00095965
0.000959616
0.000959597
0.00095934
0.000959709
0.000959983
0.000959919
0.000959866
0.00095952
0.000959634
0.000959743
0.000959611
0.000959377
0.000959241
0.000959537
0.000959788
0.000959682
0.000959695
0.000959697
0.000959627
0.00095952
0.000959235
0.000959412
0.000959823
0.000959817
0.000959786
0.000959536
0.000959496
0.000959341
0.0009588
0.00118161
0.00122201
0.00126422
0.00130079
0.00132609
0.00133959
0.00134366
0.00134388
0.00134398
0.00134468
0.0013452
0.0013449
0.00134501
0.00134499
0.0013448
0.0013446
0.00134385
0.00134364
0.00134375
0.00134366
0.00134335
0.00134336
0.00134452
0.00134489
0.00134485
0.00134488
0.00134487
0.00134481
0.00134462
0.00134442
0.00134442
0.00134419
0.00134461
0.00134507
0.00134488
0.00134525
0.00134553
0.00134564
0.00134532
0.00134565
0.00134639
0.00134658
0.00134668
0.00134633
0.00134638
0.00134669
0.00134661
0.00134704
0.00134736
0.00134746
0.00134752
0.00134715
0.00134719
0.00134707
0.00134656
0.00134647
0.00134653
0.00134654
0.00134653
0.00134639
0.00134598
0.00134619
0.00134704
0.00134699
0.00134684
0.00134626
0.00134626
0.00134693
0.00134699
0.00134685
0.00134643
0.00134666
0.00134723
0.00134703
0.00134697
0.00134686
0.00134683
0.00134676
0.00134668
0.00134626
0.00134639
0.00134652
0.0013464
0.00134615
0.00134625
0.00134662
0.00134636
0.00134642
0.00134629
0.00134566
0.00118166
0.00122218
0.00126439
0.0013011
0.00132599
0.00133958
0.00134457
0.00134518
0.00134523
0.00134532
0.00134517
0.00134468
0.00134474
0.00134479
0.0013446
0.00134427
0.00134406
0.00134461
0.00134468
0.00134444
0.00134403
0.00134374
0.00134388
0.0013447
0.00134478
0.00134462
0.00134466
0.00134466
0.00134477
0.00134488
0.00134508
0.00134516
0.00134527
0.00134535
0.00134555
0.00134569
0.00134587
0.00134603
0.00134554
0.0013458
0.00134628
0.00134592
0.00134634
0.00134676
0.00134694
0.0013471
0.00134653
0.00134669
0.00134746
0.00134762
0.0013476
0.00134767
0.00134762
0.00134749
0.00134696
0.00134667
0.00134663
0.00134663
0.0013467
0.00134662
0.00134633
0.00134657
0.00134678
0.00134666
0.00134653
0.00134636
0.00134712
0.0013474
0.00134723
0.0013472
0.00134716
0.00134715
0.00134693
0.00134637
0.00134619
0.00134617
0.00134618
0.00134604
0.00134609
0.00134613
0.00134564
0.00134555
0.0013461
0.00134645
0.00134621
0.00134642
0.00134651
0.00134647
0.00134645
0.00134562
0.00118161
0.00122233
0.00126473
0.0013012
0.0013262
0.00133998
0.00134509
0.00134568
0.00134561
0.00134529
0.0013454
0.00134562
0.00134552
0.00134541
0.00134461
0.00134456
0.00134488
0.0013444
0.00134454
0.00134463
0.00134426
0.00134426
0.00134408
0.00134356
0.00134372
0.0013439
0.00134384
0.00134389
0.00134349
0.0013439
0.0013449
0.00134507
0.00134527
0.00134553
0.00134582
0.00134598
0.00134626
0.00134635
0.00134619
0.00134618
0.00134633
0.00134645
0.00134656
0.0013466
0.00134666
0.00134656
0.00134694
0.0013472
0.00134714
0.0013467
0.0013467
0.0013471
0.00134722
0.00134715
0.00134714
0.00134704
0.00134688
0.00134656
0.00134642
0.0013471
0.00134743
0.00134736
0.00134735
0.00134713
0.0013464
0.00134635
0.00134685
0.00134643
0.00134645
0.00134706
0.0013472
0.00134712
0.00134714
0.00134695
0.00134645
0.00134618
0.00134665
0.00134725
0.00134703
0.00134709
0.00134699
0.00134685
0.00134653
0.00134667
0.00134685
0.0013467
0.00134625
0.00134628
0.00134646
0.00134574
0.00118161
0.00122245
0.00126485
0.00130115
0.00132665
0.00134009
0.00134432
0.0013454
0.00134548
0.00134533
0.00134496
0.00134483
0.00134512
0.00134502
0.00134479
0.00134446
0.0013443
0.00134375
0.00134381
0.00134388
0.0013437
0.00134361
0.0013433
0.00134378
0.00134402
0.00134379
0.00134377
0.00134377
0.00134386
0.00134425
0.00134459
0.00134467
0.00134487
0.00134504
0.0013453
0.00134549
0.00134519
0.00134565
0.00134664
0.00134686
0.00134713
0.00134731
0.00134753
0.00134746
0.00134755
0.00134771
0.00134791
0.00134792
0.00134788
0.00134768
0.00134705
0.0013469
0.00134683
0.00134657
0.00134657
0.00134655
0.00134656
0.00134619
0.00134641
0.00134675
0.00134654
0.00134649
0.00134629
0.00134635
0.00134615
0.00134605
0.00134581
0.0013461
0.00134647
0.00134633
0.00134634
0.00134612
0.00134673
0.00134731
0.00134706
0.00134721
0.00134723
0.00134703
0.00134702
0.00134704
0.00134709
0.00134699
0.0013468
0.00134642
0.00134586
0.00134611
0.00134648
0.0013464
0.00134638
0.00134576
0.00118162
0.00122241
0.00126481
0.00130156
0.00132686
0.00133953
0.00134358
0.00134433
0.00134528
0.00134539
0.00134512
0.00134495
0.00134473
0.00134456
0.00134381
0.00134359
0.00134395
0.00134429
0.00134406
0.00134376
0.00134369
0.00134347
0.00134302
0.00134316
0.00134356
0.00134329
0.00134311
0.00134363
0.00134431
0.00134432
0.0013445
0.00134479
0.00134508
0.0013452
0.00134477
0.00134506
0.00134558
0.00134538
0.00134588
0.00134642
0.00134653
0.00134684
0.00134697
0.00134706
0.00134713
0.00134717
0.00134666
0.00134667
0.00134706
0.00134733
0.00134728
0.00134716
0.00134689
0.001347
0.00134734
0.00134736
0.00134736
0.00134713
0.0013469
0.00134699
0.00134727
0.00134714
0.00134712
0.00134695
0.00134659
0.00134628
0.00134682
0.00134733
0.00134712
0.00134719
0.00134719
0.00134703
0.00134673
0.00134633
0.00134632
0.00134628
0.00134662
0.00134698
0.00134681
0.00134689
0.00134676
0.00134658
0.00134611
0.00134627
0.00134675
0.00134664
0.00134664
0.00134665
0.00134656
0.00134586
0.00118156
0.00122244
0.0012649
0.00130157
0.00132701
0.00133938
0.00134445
0.00134522
0.00134514
0.00134507
0.00134475
0.00134412
0.00134423
0.00134527
0.00134482
0.00134469
0.00134553
0.00134573
0.00134544
0.0013453
0.00134522
0.00134515
0.00134489
0.00134423
0.00134434
0.00134468
0.00134465
0.00134463
0.00134452
0.00134461
0.00134457
0.00134473
0.00134499
0.00134493
0.00134539
0.00134584
0.00134607
0.00134631
0.00134603
0.00134655
0.00134708
0.00134718
0.00134697
0.00134698
0.00134731
0.00134757
0.00134761
0.00134744
0.00134736
0.00134736
0.0013474
0.00134702
0.00134719
0.00134736
0.00134717
0.00134714
0.00134689
0.00134685
0.00134674
0.00134707
0.00134724
0.00134713
0.00134705
0.00134666
0.00134655
0.00134629
0.00134654
0.00134677
0.00134662
0.00134619
0.00134612
0.00134637
0.00134639
0.00134641
0.00134623
0.00134649
0.00134676
0.00134666
0.00134656
0.00134652
0.00134608
0.00134621
0.00134667
0.00134663
0.00134657
0.00134609
0.00134598
0.00134635
0.00134642
0.001346
0.00118161
0.00122239
0.00126518
0.00130135
0.00132618
0.00134036
0.00134614
0.00134745
0.00134737
0.00134726
0.00134678
0.00134688
0.0013469
0.00134651
0.00134631
0.00134617
0.00134607
0.00134584
0.00134554
0.00134485
0.00134489
0.00134512
0.00134472
0.00134473
0.00134486
0.00134485
0.00134476
0.00134482
0.00134492
0.00134513
0.00134523
0.00134546
0.00134565
0.00134586
0.00134612
0.00134634
0.00134644
0.00134611
0.00134627
0.00134715
0.00134757
0.00134769
0.00134763
0.00134766
0.00134781
0.00134781
0.001348
0.00134823
0.00134822
0.00134819
0.00134816
0.00134757
0.00134768
0.00134819
0.0013482
0.00134818
0.00134761
0.00134782
0.00134803
0.00134791
0.00134786
0.0013478
0.00134766
0.00134744
0.0013473
0.00134708
0.00134645
0.00134631
0.00134664
0.00134639
0.00134661
0.00134712
0.001347
0.00134686
0.00134646
0.00134629
0.0013469
0.00134725
0.00134716
0.00134713
0.00134698
0.0013468
0.00134622
0.0013465
0.00134692
0.00134679
0.00134653
0.00134631
0.00134628
0.00134575
0.0011816
0.00122242
0.00126495
0.00130169
0.00132664
0.00134002
0.00134479
0.00134524
0.00134514
0.00134501
0.00134433
0.00134424
0.00134547
0.00134568
0.00134514
0.0013451
0.00134496
0.00134449
0.0013447
0.00134526
0.00134477
0.00134484
0.00134481
0.0013442
0.0013444
0.00134476
0.00134455
0.00134477
0.0013451
0.00134527
0.00134549
0.00134571
0.00134585
0.00134584
0.00134584
0.00134607
0.0013462
0.00134646
0.00134664
0.00134636
0.00134659
0.00134722
0.00134725
0.00134732
0.00134787
0.00134821
0.00134799
0.00134832
0.00134852
0.00134854
0.00134857
0.00134822
0.00134821
0.0013481
0.00134791
0.00134733
0.00134686
0.00134719
0.00134741
0.00134724
0.00134691
0.00134663
0.00134713
0.00134735
0.00134718
0.00134715
0.00134699
0.00134678
0.00134628
0.00134666
0.00134736
0.00134742
0.00134727
0.00134704
0.00134697
0.00134657
0.00134625
0.0013468
0.0013474
0.00134711
0.0013473
0.00134737
0.0013472
0.00134688
0.00134647
0.00134634
0.00134622
0.00134623
0.00134621
0.00134574
0.00118172
0.00122211
0.00126519
0.00130172
0.00132662
0.00133997
0.00134434
0.00134467
0.00134426
0.00134418
0.00134501
0.00134519
0.00134486
0.0013443
0.00134389
0.001344
0.00134377
0.00134391
0.00134404
0.00134373
0.00134313
0.00134302
0.00134327
0.00134295
0.0013431
0.00134317
0.00134316
0.00134305
0.00134353
0.00134426
0.00134424
0.00134453
0.00134487
0.00134486
0.00134519
0.00134567
0.00134595
0.00134644
0.00134667
0.00134702
0.00134735
0.0013477
0.00134796
0.00134802
0.00134791
0.00134746
0.00134704
0.00134715
0.00134724
0.00134716
0.00134678
0.00134693
0.00134716
0.00134701
0.00134662
0.00134641
0.00134646
0.00134643
0.00134619
0.0013464
0.00134727
0.00134731
0.00134716
0.00134699
0.00134681
0.00134649
0.001346
0.00134608
0.00134664
0.00134665
0.00134657
0.00134651
0.00134604
0.00134588
0.00134604
0.00134603
0.00134582
0.00134605
0.00134672
0.00134674
0.0013467
0.00134615
0.00134599
0.0013467
0.00134704
0.00134691
0.00134688
0.00134677
0.00134669
0.00134592
0.00118166
0.00122236
0.00126501
0.00130154
0.00132679
0.00134025
0.00134462
0.00134494
0.00134452
0.00134465
0.00134492
0.00134468
0.00134432
0.00134417
0.00134433
0.00134363
0.00134344
0.00134387
0.00134356
0.00134373
0.00134448
0.00134426
0.00134396
0.00134327
0.00134337
0.00134372
0.0013431
0.00134339
0.00134389
0.00134407
0.00134436
0.0013442
0.00134484
0.00134566
0.00134591
0.00134643
0.00134689
0.00134731
0.00134769
0.00134799
0.00134822
0.0013483
0.00134796
0.00134788
0.00134778
0.00134728
0.00134693
0.00134737
0.00134784
0.00134777
0.00134742
0.0013476
0.00134779
0.00134764
0.00134717
0.00134714
0.00134721
0.0013471
0.00134676
0.00134662
0.00134715
0.00134716
0.00134697
0.00134645
0.0013466
0.00134691
0.00134685
0.00134679
0.00134615
0.00134622
0.00134659
0.00134651
0.00134623
0.00134638
0.00134663
0.00134658
0.00134654
0.00134591
0.00134586
0.00134645
0.00134652
0.00134626
0.0013465
0.00134697
0.00134685
0.00134639
0.00134634
0.00134649
0.00134644
0.00134599
0.00118156
0.00122249
0.00126495
0.00130161
0.00132677
0.00134
0.00134518
0.00134584
0.00134578
0.00134563
0.00134504
0.0013447
0.00134495
0.00134589
0.00134561
0.00134503
0.00134473
0.00134447
0.001344
0.0013437
0.00134386
0.00134378
0.00134381
0.00134375
0.00134332
0.00134363
0.00134423
0.00134414
0.00134436
0.0013446
0.00134495
0.00134528
0.00134572
0.00134617
0.00134667
0.00134709
0.00134745
0.00134771
0.0013478
0.00134775
0.00134773
0.00134775
0.00134771
0.0013471
0.00134703
0.00134732
0.00134767
0.00134765
0.00134728
0.00134733
0.00134711
0.00134735
0.00134807
0.0013479
0.00134793
0.0013479
0.00134778
0.00134767
0.00134753
0.00134733
0.00134716
0.00134693
0.00134633
0.00134619
0.00134711
0.00134731
0.0013472
0.00134713
0.00134653
0.00134672
0.00134717
0.00134714
0.00134709
0.00134646
0.00134659
0.00134688
0.00134681
0.00134676
0.00134608
0.00134625
0.00134665
0.00134654
0.00134634
0.00134622
0.00134667
0.0013469
0.00134682
0.00134682
0.00134661
0.00134575
0.00118163
0.00122236
0.00126529
0.00130126
0.00132632
0.00134055
0.00134595
0.00134654
0.001346
0.00134601
0.00134638
0.00134593
0.00134553
0.00134524
0.00134478
0.00134469
0.00134537
0.00134525
0.00134484
0.00134405
0.00134382
0.00134414
0.00134402
0.00134372
0.00134389
0.00134433
0.00134395
0.00134436
0.00134475
0.00134489
0.00134525
0.00134569
0.00134612
0.0013464
0.00134642
0.00134623
0.00134661
0.00134709
0.00134751
0.00134777
0.00134766
0.00134797
0.00134827
0.00134832
0.00134806
0.00134802
0.00134828
0.00134825
0.00134861
0.00134876
0.00134856
0.0013485
0.00134837
0.00134828
0.00134792
0.00134766
0.00134772
0.00134767
0.00134747
0.00134702
0.00134724
0.0013477
0.00134741
0.00134753
0.00134754
0.00134733
0.00134692
0.00134664
0.00134662
0.00134637
0.00134662
0.00134705
0.00134706
0.0013469
0.00134623
0.00134613
0.00134692
0.00134714
0.00134696
0.00134653
0.00134636
0.00134656
0.00134657
0.00134657
0.00134655
0.00134625
0.00134629
0.00134644
0.00134637
0.00134594
0.00118165
0.00122235
0.00126489
0.00130181
0.00132704
0.0013395
0.00134436
0.0013449
0.00134416
0.00134419
0.0013444
0.00134363
0.00134364
0.0013437
0.00134295
0.00134258
0.00134269
0.00134243
0.00134259
0.00134305
0.00134277
0.00134236
0.00134225
0.0013427
0.00134299
0.00134341
0.001343
0.00134343
0.00134399
0.00134426
0.00134469
0.00134505
0.00134543
0.00134585
0.00134617
0.00134646
0.00134679
0.00134664
0.00134719
0.00134784
0.00134784
0.00134826
0.0013488
0.00134897
0.00134906
0.00134911
0.00134856
0.00134869
0.00134903
0.00134907
0.00134894
0.00134864
0.00134852
0.00134793
0.0013479
0.00134787
0.00134766
0.00134721
0.00134729
0.00134771
0.00134755
0.00134736
0.00134673
0.00134682
0.00134704
0.00134684
0.00134678
0.00134647
0.00134645
0.00134636
0.00134674
0.00134702
0.00134698
0.00134694
0.00134656
0.00134647
0.00134598
0.00134597
0.00134658
0.00134631
0.00134639
0.00134717
0.00134743
0.00134738
0.00134733
0.00134679
0.00134663
0.00134682
0.00134683
0.00134639
0.00118162
0.00122241
0.00126519
0.00130143
0.00132615
0.00134046
0.00134631
0.00134704
0.00134648
0.0013465
0.00134679
0.00134597
0.00134587
0.00134603
0.00134535
0.001345
0.00134469
0.00134406
0.00134374
0.0013438
0.00134336
0.00134336
0.00134382
0.00134369
0.00134353
0.0013438
0.00134399
0.00134387
0.0013443
0.0013447
0.00134506
0.00134566
0.00134613
0.0013466
0.00134714
0.0013476
0.00134802
0.00134835
0.00134835
0.00134843
0.00134855
0.00134836
0.00134762
0.00134783
0.00134837
0.00134834
0.00134843
0.00134846
0.00134829
0.00134798
0.00134774
0.00134761
0.00134742
0.00134772
0.00134816
0.00134792
0.00134786
0.00134782
0.00134778
0.00134752
0.00134709
0.0013473
0.00134784
0.00134768
0.00134723
0.00134715
0.00134766
0.00134766
0.00134745
0.00134686
0.00134664
0.0013469
0.00134694
0.00134675
0.00134615
0.0013461
0.00134698
0.00134712
0.00134694
0.00134638
0.00134627
0.0013466
0.00134638
0.00134663
0.00134672
0.00134657
0.00134613
0.00134619
0.00134639
0.0013457
0.00118163
0.0012226
0.00126485
0.00130141
0.00132698
0.0013397
0.00134508
0.0013458
0.00134556
0.00134513
0.00134474
0.0013447
0.00134447
0.00134417
0.00134357
0.0013437
0.00134393
0.00134351
0.00134282
0.00134259
0.00134264
0.0013419
0.0013417
0.0013422
0.00134225
0.00134199
0.00134244
0.00134307
0.001343
0.00134333
0.00134365
0.0013441
0.00134448
0.00134529
0.00134605
0.00134654
0.00134717
0.00134766
0.00134812
0.00134862
0.00134905
0.00134931
0.00134952
0.00134962
0.00134968
0.00134958
0.0013492
0.00134854
0.0013483
0.00134763
0.00134759
0.00134828
0.00134829
0.00134806
0.00134746
0.00134757
0.00134813
0.00134782
0.00134836
0.00134911
0.00134913
0.00134893
0.00134822
0.00134827
0.00134832
0.00134776
0.00134799
0.00134821
0.00134805
0.00134798
0.00134793
0.00134783
0.001347
0.00134691
0.00134701
0.00134693
0.00134653
0.00134657
0.00134665
0.00134635
0.00134609
0.00134636
0.00134709
0.00134708
0.00134701
0.00134639
0.00134648
0.0013466
0.00134645
0.00134597
0.0011816
0.00122247
0.00126516
0.00130149
0.001326
0.00134013
0.00134661
0.00134765
0.00134756
0.00134737
0.00134662
0.00134661
0.00134666
0.00134621
0.0013459
0.00134563
0.00134528
0.00134465
0.00134387
0.00134356
0.00134358
0.00134336
0.00134317
0.00134259
0.00134264
0.00134319
0.00134321
0.00134345
0.00134384
0.00134427
0.00134465
0.00134525
0.00134581
0.00134646
0.00134706
0.00134753
0.00134802
0.00134845
0.00134882
0.00134916
0.00134938
0.00134933
0.00134866
0.0013484
0.00134831
0.0013483
0.00134825
0.00134821
0.00134814
0.00134743
0.00134732
0.00134783
0.00134787
0.0013477
0.00134733
0.00134741
0.00134845
0.00134849
0.0013482
0.00134809
0.00134786
0.00134732
0.00134733
0.00134772
0.00134756
0.00134744
0.00134739
0.00134737
0.00134725
0.00134718
0.00134687
0.00134642
0.00134659
0.00134718
0.0013471
0.00134703
0.00134664
0.00134637
0.00134635
0.00134627
0.00134662
0.00134686
0.00134679
0.00134675
0.00134645
0.00134643
0.00134633
0.0013461
0.00134599
0.00134563
0.00118161
0.00122245
0.00126509
0.00130161
0.00132593
0.00134032
0.00134668
0.00134762
0.00134707
0.00134714
0.00134714
0.00134686
0.00134656
0.00134552
0.00134532
0.00134535
0.00134433
0.00134395
0.00134399
0.00134373
0.0013433
0.00134324
0.0013434
0.00134282
0.00134304
0.00134353
0.00134362
0.00134389
0.00134405
0.0013444
0.00134496
0.00134563
0.00134616
0.0013468
0.00134736
0.00134796
0.00134847
0.00134876
0.00134882
0.00134886
0.00134904
0.00134904
0.0013489
0.0013489
0.00134886
0.00134871
0.00134818
0.00134785
0.00134841
0.00134874
0.00134868
0.0013486
0.00134832
0.00134789
0.0013477
0.00134838
0.00134858
0.00134787
0.00134796
0.00134839
0.00134779
0.00134795
0.00134833
0.00134816
0.00134796
0.00134755
0.00134746
0.0013473
0.00134714
0.00134676
0.00134701
0.00134775
0.00134767
0.00134752
0.00134745
0.00134738
0.00134711
0.00134707
0.00134688
0.00134675
0.00134667
0.00134617
0.00134617
0.00134678
0.00134683
0.00134671
0.00134611
0.00134611
0.00134635
0.00134573
0.00118161
0.00122244
0.00126523
0.00130134
0.00132611
0.0013403
0.0013461
0.00134731
0.00134712
0.00134651
0.00134635
0.00134638
0.00134591
0.00134556
0.00134514
0.0013448
0.00134441
0.00134375
0.00134338
0.00134359
0.00134343
0.00134305
0.00134237
0.0013424
0.00134272
0.00134246
0.00134267
0.00134277
0.00134312
0.00134367
0.00134429
0.00134487
0.00134553
0.00134602
0.00134648
0.00134647
0.00134679
0.00134766
0.00134845
0.00134888
0.00134933
0.00134958
0.00134975
0.00134994
0.00134988
0.00134978
0.00134962
0.00134926
0.00134819
0.00134784
0.00134835
0.00134842
0.00134824
0.0013481
0.00134752
0.00134747
0.00134852
0.00134853
0.00134799
0.00134806
0.00134842
0.00134782
0.00134796
0.00134825
0.00134818
0.0013481
0.00134739
0.00134745
0.00134754
0.0013469
0.00134703
0.00134732
0.00134664
0.00134677
0.00134725
0.00134713
0.00134699
0.00134642
0.00134652
0.00134708
0.00134706
0.00134705
0.001347
0.00134679
0.00134619
0.00134603
0.00134618
0.00134624
0.00134613
0.00134551
0.0011815
0.00122271
0.00126495
0.00130137
0.00132642
0.00134034
0.00134549
0.00134613
0.00134589
0.0013453
0.00134517
0.00134517
0.00134478
0.00134444
0.00134368
0.00134328
0.00134275
0.00134275
0.00134298
0.00134244
0.00134213
0.00134166
0.0013419
0.00134264
0.00134296
0.00134295
0.00134324
0.0013434
0.00134358
0.00134416
0.00134466
0.00134529
0.001346
0.00134678
0.00134737
0.00134801
0.00134845
0.00134883
0.00134921
0.00134947
0.00134949
0.0013496
0.00134952
0.00134929
0.00134913
0.00134844
0.00134824
0.00134829
0.00134842
0.00134825
0.00134759
0.00134783
0.00134965
0.0013498
0.00134936
0.00134942
0.00135001
0.00134998
0.00134977
0.00134959
0.00134913
0.00134878
0.00134858
0.00134822
0.00134841
0.00134852
0.00134836
0.00134822
0.00134786
0.00134776
0.00134766
0.00134789
0.00134794
0.00134773
0.0013471
0.00134708
0.00134723
0.00134686
0.0013468
0.00134679
0.00134683
0.00134674
0.00134659
0.00134626
0.00134618
0.00134608
0.0013459
0.00134593
0.00134588
0.00134542
0.00118164
0.00122243
0.00126495
0.00130155
0.00132683
0.00134001
0.0013438
0.00134374
0.00134363
0.00134425
0.00134455
0.00134429
0.00134384
0.00134283
0.00134249
0.00134285
0.00134269
0.0013422
0.0013415
0.00134125
0.00134235
0.00134315
0.00134255
0.00134272
0.00134289
0.00134275
0.00134287
0.0013432
0.0013437
0.00134419
0.00134482
0.00134541
0.00134605
0.00134668
0.0013472
0.00134729
0.00134733
0.0013479
0.0013484
0.00134882
0.00134918
0.00134946
0.00134963
0.00134968
0.00134951
0.00134875
0.00134873
0.00134895
0.00134858
0.00134871
0.00134881
0.0013485
0.00134836
0.00134825
0.00134809
0.00134729
0.00134718
0.00134734
0.00134716
0.00134703
0.00134659
0.00134671
0.00134675
0.00134653
0.00134606
0.00134589
0.00134634
0.00134634
0.00134619
0.00134608
0.0013464
0.00134647
0.00134675
0.00134728
0.00134724
0.00134718
0.00134657
0.00134636
0.00134655
0.00134645
0.00134676
0.00134692
0.00134676
0.0013463
0.00134628
0.00134637
0.00134573
0.0013458
0.00134621
0.00134561
0.00118163
0.00122235
0.00126531
0.00130119
0.0013263
0.00134048
0.00134594
0.00134656
0.00134644
0.00134621
0.00134534
0.00134503
0.00134516
0.0013448
0.00134456
0.0013442
0.00134377
0.00134333
0.00134296
0.00134229
0.00134211
0.00134263
0.00134226
0.00134233
0.00134264
0.00134258
0.00134287
0.00134307
0.00134346
0.00134403
0.00134461
0.00134496
0.00134549
0.00134607
0.00134678
0.00134746
0.00134793
0.00134852
0.00134901
0.00134943
0.00134967
0.00134989
0.00134996
0.00135004
0.00135002
0.0013498
0.00134911
0.00134842
0.00134847
0.00134871
0.00134847
0.00134796
0.00134768
0.00134869
0.00134969
0.00134952
0.00134914
0.00134917
0.00134965
0.00134929
0.00134923
0.00134909
0.00134862
0.00134872
0.001349
0.0013487
0.0013486
0.00134837
0.00134803
0.00134753
0.0013474
0.00134716
0.00134734
0.00134787
0.00134755
0.00134785
0.00134812
0.00134761
0.00134785
0.00134804
0.001348
0.00134797
0.00134762
0.00134714
0.00134693
0.00134681
0.00134657
0.00134657
0.00134649
0.00134578
0.00118161
0.00122242
0.00126514
0.00130148
0.00132598
0.00134052
0.00134602
0.00134638
0.00134657
0.0013469
0.00134612
0.00134599
0.00134578
0.0013453
0.00134456
0.00134415
0.00134423
0.00134384
0.00134326
0.00134307
0.00134325
0.00134291
0.00134256
0.00134267
0.00134314
0.00134273
0.00134315
0.00134358
0.00134389
0.0013445
0.00134512
0.00134584
0.00134649
0.00134721
0.0013478
0.00134797
0.00134837
0.00134878
0.00134881
0.0013483
0.00134874
0.00134927
0.00134943
0.00134968
0.00134977
0.00134971
0.00134902
0.00134887
0.0013493
0.00134939
0.00134914
0.00134871
0.00134826
0.00134879
0.00134987
0.00135025
0.00135025
0.00134971
0.00134986
0.0013499
0.00134964
0.00134907
0.00134898
0.00134922
0.00134881
0.00134868
0.00134852
0.00134802
0.00134782
0.00134797
0.00134777
0.00134809
0.00134836
0.00134779
0.00134802
0.00134828
0.00134825
0.00134822
0.00134746
0.00134756
0.00134771
0.00134717
0.00134738
0.00134753
0.00134745
0.00134738
0.0013466
0.00134654
0.00134662
0.00134598
0.00118168
0.00122236
0.00126485
0.00130188
0.00132649
0.00133993
0.00134449
0.001345
0.00134473
0.00134407
0.00134399
0.00134394
0.00134347
0.00134286
0.00134267
0.0013433
0.00134266
0.00134259
0.00134346
0.00134305
0.00134279
0.00134261
0.0013424
0.00134212
0.00134195
0.001342
0.00134198
0.0013426
0.00134328
0.00134348
0.00134418
0.00134502
0.00134592
0.00134671
0.00134753
0.00134827
0.00134887
0.00134923
0.00134893
0.00134883
0.00134902
0.00134864
0.001349
0.0013494
0.0013492
0.00134919
0.00134911
0.00134915
0.00134913
0.00134896
0.00134883
0.0013485
0.00134812
0.00134808
0.00134795
0.00134737
0.00134726
0.00134759
0.00134725
0.00134741
0.00134743
0.00134727
0.00134704
0.00134714
0.00134792
0.00134778
0.0013477
0.0013477
0.00134761
0.00134688
0.00134696
0.00134731
0.00134716
0.0013471
0.00134698
0.00134693
0.00134679
0.00134646
0.00134645
0.00134678
0.00134676
0.00134678
0.00134663
0.00134609
0.00134614
0.00134662
0.00134669
0.00134669
0.00134652
0.00134595
0.00118154
0.00122257
0.00126505
0.00130127
0.00132662
0.00134017
0.00134555
0.00134613
0.00134592
0.00134552
0.00134522
0.0013452
0.0013448
0.00134462
0.00134431
0.00134368
0.00134324
0.00134255
0.00134239
0.00134248
0.00134209
0.00134184
0.00134133
0.00134151
0.0013416
0.00134143
0.00134201
0.00134297
0.00134337
0.00134387
0.00134454
0.00134516
0.00134546
0.00134613
0.00134684
0.00134751
0.00134817
0.00134874
0.00134925
0.00134963
0.00134968
0.00134979
0.00134988
0.00134983
0.00134941
0.00134895
0.00134857
0.00134842
0.00134823
0.00134795
0.00134764
0.00134806
0.00134848
0.00134832
0.00134815
0.00134763
0.00134737
0.00134685
0.0013465
0.00134668
0.00134663
0.00134685
0.00134721
0.00134666
0.0013468
0.00134718
0.00134704
0.00134693
0.00134653
0.00134611
0.00134634
0.00134658
0.00134607
0.00134628
0.00134664
0.00134603
0.00134585
0.00134633
0.0013466
0.00134643
0.00134593
0.00134599
0.0013466
0.00134642
0.00134643
0.00134673
0.00134685
0.00134678
0.00134663
0.0013457
0.00118162
0.00122238
0.00126525
0.00130127
0.00132622
0.0013405
0.00134584
0.00134637
0.00134584
0.00134587
0.00134625
0.00134539
0.00134511
0.00134545
0.00134509
0.00134449
0.00134432
0.00134412
0.00134324
0.00134308
0.00134287
0.00134207
0.00134204
0.00134256
0.00134229
0.00134261
0.00134304
0.00134323
0.00134371
0.00134431
0.00134499
0.00134566
0.00134628
0.001347
0.00134757
0.00134769
0.00134801
0.0013485
0.00134883
0.00134917
0.00134948
0.0013497
0.00134992
0.00135004
0.00135008
0.00135
0.00134968
0.00134874
0.00134824
0.00134842
0.00134861
0.00134836
0.00134778
0.00134777
0.00134822
0.00134809
0.00134779
0.00134702
0.00134696
0.00134723
0.00134708
0.0013469
0.00134671
0.00134698
0.00134679
0.00134707
0.00134726
0.00134714
0.00134706
0.00134679
0.00134672
0.00134649
0.00134594
0.00134616
0.00134701
0.00134705
0.0013469
0.00134641
0.00134664
0.0013468
0.00134672
0.00134667
0.00134588
0.00134593
0.00134651
0.0013465
0.00134638
0.00134617
0.00134611
0.00134558
0.00118161
0.00122244
0.00126508
0.00130159
0.00132589
0.0013403
0.00134656
0.00134764
0.0013474
0.00134678
0.00134638
0.0013462
0.00134543
0.0013453
0.00134537
0.00134432
0.0013439
0.00134392
0.00134355
0.001343
0.00134286
0.00134288
0.00134217
0.00134225
0.00134285
0.00134271
0.00134292
0.00134328
0.00134375
0.00134415
0.00134476
0.00134554
0.00134641
0.0013472
0.00134789
0.00134826
0.00134857
0.00134891
0.00134932
0.0013497
0.00135
0.00135023
0.00135033
0.00135041
0.00135031
0.00134979
0.00134963
0.00134907
0.001349
0.00134896
0.0013487
0.0013482
0.00134812
0.00134958
0.00134961
0.00134977
0.00135026
0.00135009
0.00134995
0.00134956
0.00134941
0.00134907
0.00134921
0.00134924
0.00134885
0.00134879
0.00134866
0.00134829
0.00134786
0.00134775
0.00134759
0.00134754
0.00134748
0.00134746
0.00134742
0.001347
0.00134693
0.00134713
0.00134701
0.00134721
0.00134729
0.00134717
0.00134702
0.00134658
0.00134684
0.00134714
0.00134707
0.00134705
0.00134683
0.00134603
0.00118161
0.00122242
0.00126514
0.00130148
0.00132598
0.00134052
0.00134603
0.00134639
0.00134658
0.00134691
0.00134608
0.00134596
0.00134595
0.00134551
0.00134503
0.00134436
0.00134411
0.00134388
0.00134337
0.0013429
0.00134239
0.00134242
0.00134294
0.00134228
0.00134248
0.00134305
0.00134322
0.00134355
0.00134394
0.00134452
0.00134514
0.00134576
0.00134616
0.00134678
0.00134743
0.00134784
0.00134837
0.0013488
0.00134889
0.00134833
0.00134875
0.00134931
0.00134959
0.00134981
0.00134976
0.00134973
0.00134898
0.00134887
0.00134935
0.00134937
0.00134911
0.00134859
0.00134824
0.00134902
0.00134971
0.00134915
0.00134921
0.00134985
0.00134973
0.0013495
0.0013491
0.00134874
0.00134848
0.00134796
0.00134799
0.00134835
0.00134821
0.00134814
0.00134812
0.00134804
0.00134738
0.00134749
0.00134793
0.00134747
0.00134769
0.00134783
0.00134753
0.00134752
0.00134749
0.00134738
0.001347
0.00134676
0.00134612
0.00134608
0.00134651
0.00134624
0.00134655
0.00134679
0.00134662
0.00134597
0.00118163
0.00122235
0.00126532
0.00130118
0.00132632
0.0013405
0.00134571
0.00134689
0.00134668
0.00134602
0.00134591
0.00134578
0.00134501
0.00134451
0.00134464
0.00134472
0.00134422
0.00134383
0.00134331
0.00134258
0.00134245
0.00134281
0.00134249
0.00134232
0.0013422
0.00134229
0.00134236
0.00134224
0.00134277
0.00134387
0.00134455
0.00134521
0.00134582
0.00134667
0.00134755
0.00134839
0.0013491
0.00134965
0.00134994
0.0013497
0.00134956
0.00134968
0.00134971
0.00134974
0.00134975
0.00134954
0.00134886
0.00134833
0.00134866
0.00134892
0.0013487
0.00134831
0.00134796
0.00134888
0.00134965
0.00134948
0.00134919
0.00134902
0.00134965
0.00134975
0.00134947
0.00134903
0.00134861
0.00134882
0.00134891
0.00134869
0.00134859
0.00134842
0.0013483
0.0013478
0.00134752
0.00134794
0.00134808
0.00134796
0.00134791
0.00134771
0.00134757
0.00134691
0.00134687
0.00134751
0.00134772
0.00134761
0.00134728
0.00134724
0.00134723
0.00134716
0.00134652
0.0013465
0.00134654
0.00134591
0.00118166
0.00122239
0.00126498
0.00130157
0.00132671
0.00133998
0.00134441
0.0013447
0.00134431
0.00134399
0.0013443
0.00134457
0.00134401
0.00134363
0.00134324
0.0013425
0.00134225
0.00134251
0.0013421
0.00134163
0.00134152
0.00134257
0.00134259
0.00134234
0.00134191
0.00134217
0.00134253
0.00134227
0.00134292
0.00134376
0.00134441
0.00134516
0.00134581
0.00134662
0.00134735
0.00134804
0.00134824
0.00134875
0.00134903
0.00134872
0.00134875
0.00134902
0.00134925
0.00134923
0.00134944
0.00134961
0.00134909
0.00134926
0.00134938
0.00134874
0.00134877
0.00134914
0.00134899
0.00134888
0.0013487
0.0013486
0.00134839
0.00134803
0.00134722
0.00134682
0.00134736
0.00134763
0.00134743
0.00134718
0.00134672
0.00134712
0.00134755
0.00134732
0.00134733
0.00134726
0.00134706
0.0013469
0.00134657
0.00134684
0.00134748