/*--------------------------------*- C++ -*----------------------------------*\
  =========                 |
  \\      /  F ield         | OpenFOAM: The Open Source CFD Toolbox
   \\    /   O peration     | Website:  https://openfoam.org
    \\  /    A nd           | Version:  11
     \\/     M anipulation  |
\*---------------------------------------------------------------------------*/
FoamFile
{
    format      ascii;
    class       volScalarField;
    location    "0.074";
    object      omega;
}
// * * * * * * * * * * * * * * * * * * * * * * * * * * * * * * * * * * * * * //

dimensions      [0 0 -1 0 0 0 0];

internalField   nonuniform List<scalar> 
287084
(
54.9924
55.9403
56.9004
57.6848
58.193
58.4377
58.4969
58.4977
58.4974
58.4938
58.4951
58.4933
58.5022
58.5105
58.5093
58.5095
58.508
58.5071
58.4958
58.4936
58.5026
58.5007
58.5085
58.5204
58.5202
58.5196
58.5045
58.5031
58.5115
58.5109
58.5166
58.5189
58.517
58.5178
58.5155
58.5108
58.4984
58.4941
58.4914
58.488
58.479
58.4769
58.4757
58.4764
58.4766
58.4744
58.4732
58.4627
58.4618
58.455
58.4551
58.472
58.4781
58.4776
58.4773
58.4696
58.4661
58.463
58.4536
58.4595
58.4688
58.4676
58.4668
58.4614
58.4749
58.4824
58.4804
58.4771
58.4701
58.4756
58.4789
58.4761
58.4672
58.4657
58.4773
58.484
58.483
58.4844
58.4822
58.4777
58.4766
58.4701
58.4771
58.4894
58.4888
58.4882
58.4805
58.479
58.4747
58.4608
54.9955
55.9376
56.8854
57.6708
58.186
58.4412
58.5065
58.5014
58.5007
58.5177
58.527
58.5223
58.5246
58.5253
58.5228
58.5182
58.5065
58.5069
58.5125
58.5113
58.5062
58.5097
58.5371
58.5435
58.5427
58.5407
58.5392
58.5376
58.5299
58.5218
58.5196
58.5124
58.5179
58.5221
58.5137
58.5151
58.5154
58.5124
58.4992
58.5023
58.5104
58.5106
58.5103
58.4943
58.4931
58.4995
58.4936
58.4997
58.5036
58.5034
58.5031
58.4923
58.4909
58.4879
58.4784
58.4785
58.4801
58.4784
58.4758
58.4742
58.468
58.4748
58.4914
58.4914
58.4905
58.4778
58.4799
58.4943
58.4951
58.4948
58.4852
58.4913
58.5038
58.4985
58.498
58.4981
58.4972
58.4934
58.491
58.4847
58.489
58.4916
58.4898
58.4849
58.4884
58.4965
58.4895
58.4888
58.4881
58.4759
54.9958
55.9366
56.8842
57.6715
58.1778
58.4384
58.5231
58.5285
58.5271
58.5261
58.5235
58.5155
58.519
58.5215
58.5197
58.515
58.5151
58.5296
58.5317
58.5292
58.5194
58.5168
58.5236
58.5399
58.5427
58.5407
58.5409
58.539
58.5392
58.536
58.5338
58.5311
58.529
58.5257
58.5247
58.5246
58.5223
58.5186
58.5037
58.5053
58.5107
58.4971
58.5014
58.5057
58.5054
58.5052
58.4902
58.4926
58.5061
58.5068
58.5046
58.504
58.5013
58.4964
58.484
58.4804
58.482
58.4798
58.4791
58.4779
58.4748
58.4816
58.4858
58.4841
58.4791
58.4782
58.4987
58.5031
58.5017
58.5019
58.4991
58.4986
58.4946
58.4805
58.4797
58.4827
58.4818
58.479
58.48
58.4811
58.4693
58.4692
58.4838
58.4901
58.4866
58.4902
58.4918
58.491
58.4904
58.4735
54.9939
55.9378
56.8864
57.6656
58.1736
58.4389
58.5271
58.5335
58.5314
58.525
58.5292
58.5353
58.5348
58.5346
58.5204
58.5233
58.5334
58.5251
58.5303
58.5341
58.5273
58.5271
58.527
58.518
58.5215
58.5246
58.5214
58.5208
58.5108
58.518
58.5359
58.5329
58.5325
58.533
58.5336
58.5309
58.5302
58.526
58.5144
58.5082
58.5062
58.5059
58.5031
58.4974
58.497
58.4934
58.4983
58.5006
58.4971
58.4854
58.486
58.492
58.4934
58.4908
58.4877
58.4875
58.4844
58.4752
58.4748
58.4926
58.4984
58.4967
58.4944
58.4912
58.4775
58.4793
58.4921
58.4819
58.4839
58.4966
58.4997
58.4981
58.4964
58.4946
58.4832
58.4797
58.4934
58.5055
58.4997
58.4993
58.4993
58.499
58.4924
58.4949
58.4987
58.4957
58.4858
58.4875
58.4915
58.4765
54.9935
55.9385
56.8857
57.6614
58.1801
58.436
58.5066
58.5232
58.5264
58.5243
58.518
58.519
58.5259
58.5264
58.5263
58.5193
58.5185
58.5111
58.5153
58.519
58.5169
58.5143
58.5117
58.5255
58.5296
58.5229
58.5222
58.5229
58.5223
58.5258
58.5286
58.5249
58.5245
58.5247
58.5246
58.5197
58.5065
58.5125
58.5279
58.5273
58.5276
58.5234
58.5205
58.5173
58.5179
58.5157
58.5141
58.5116
58.5082
58.5017
58.4865
58.4827
58.4816
58.4777
58.4794
58.4763
58.4741
58.4685
58.4751
58.4823
58.4773
58.4773
58.4733
58.4728
58.4717
58.4728
58.4679
58.4745
58.4823
58.4815
58.4829
58.4783
58.493
58.5044
58.5006
58.5031
58.5036
58.5016
58.5025
58.501
58.4996
58.4977
58.4936
58.4848
58.4761
58.4836
58.4913
58.4913
58.491
58.4772
54.9937
55.9369
56.8844
57.6686
58.1803
58.4187
58.4864
58.4975
58.5185
58.5239
58.5194
58.519
58.5194
58.5184
58.5038
58.5039
58.5149
58.5241
58.5228
58.5166
58.5161
58.5161
58.5095
58.5136
58.5225
58.5139
58.5098
58.5216
58.5326
58.5303
58.5303
58.5305
58.5313
58.5265
58.5102
58.5115
58.5165
58.5048
58.509
58.5141
58.5097
58.5086
58.5062
58.5062
58.5057
58.5011
58.4869
58.4871
58.4924
58.4931
58.4932
58.4889
58.4828
58.4861
58.4932
58.493
58.493
58.4875
58.4834
58.4872
58.4934
58.4907
58.4904
58.4887
58.4789
58.4746
58.4901
58.5003
58.4978
58.4983
58.4988
58.4974
58.488
58.4813
58.4848
58.4845
58.4917
58.4991
58.495
58.4947
58.4944
58.4909
58.4813
58.4866
58.497
58.4963
58.4968
58.4952
58.4912
58.4783
54.9922
55.9372
56.8853
57.6676
58.1815
58.415
58.5053
58.517
58.5151
58.5126
58.5077
58.5
58.5089
58.5356
58.5276
58.5293
58.5517
58.5573
58.5559
58.5565
58.5551
58.5529
58.5495
58.5385
58.5425
58.5492
58.5465
58.541
58.5357
58.5336
58.5309
58.5316
58.5309
58.5222
58.5247
58.5269
58.5239
58.5193
58.5089
58.5153
58.52
58.5164
58.5038
58.502
58.506
58.5077
58.5077
58.4984
58.4955
58.4964
58.4961
58.4858
58.4885
58.4916
58.4867
58.4865
58.4832
58.4837
58.4815
58.4885
58.4918
58.4896
58.4869
58.4787
58.4781
58.4756
58.4823
58.4874
58.4847
58.476
58.4769
58.4839
58.4834
58.4816
58.4801
58.4877
58.4905
58.4912
58.4894
58.4886
58.481
58.4849
58.4951
58.4932
58.4908
58.4796
58.4795
58.4893
58.4899
58.4832
54.9933
55.9361
56.891
57.6602
58.164
58.439
58.5429
58.5654
58.563
58.5628
58.5569
58.5621
58.5654
58.5622
58.5623
58.5609
58.5597
58.5582
58.5578
58.5476
58.5516
58.5587
58.5532
58.5543
58.5578
58.5568
58.5534
58.5541
58.5504
58.5497
58.5463
58.5439
58.5435
58.5406
58.5369
58.5335
58.5286
58.5132
58.5125
58.5267
58.5278
58.5249
58.5155
58.5109
58.5102
58.5094
58.5115
58.5116
58.512
58.5093
58.5058
58.4941
58.498
58.5094
58.5079
58.5075
58.4966
58.502
58.5067
58.5067
58.5067
58.5036
58.4985
58.4946
58.4923
58.489
58.4786
58.4786
58.4881
58.4818
58.4871
58.4954
58.4955
58.4954
58.4839
58.4817
58.4985
58.5048
58.5024
58.5022
58.4989
58.4924
58.483
58.4918
58.5003
58.4973
58.4891
58.4868
58.4891
58.4773
54.9931
55.9364
56.886
57.6682
58.1723
58.4278
58.5095
58.5147
58.5133
58.513
58.5027
58.5062
58.538
58.5435
58.5368
58.5393
58.54
58.5355
58.5448
58.5596
58.5529
58.5563
58.5572
58.5463
58.5513
58.5581
58.5537
58.555
58.5586
58.5574
58.5539
58.5538
58.549
58.5382
58.5301
58.5268
58.5215
58.5192
58.516
58.5048
58.5053
58.5142
58.5054
58.5028
58.5122
58.5153
58.509
58.5134
58.5154
58.5144
58.5141
58.505
58.5044
58.5021
58.4968
58.4837
58.4771
58.4871
58.4918
58.4885
58.4794
58.4769
58.4911
58.4953
58.4918
58.4916
58.4902
58.484
58.4755
58.4877
58.5002
58.5009
58.501
58.4963
58.4951
58.4858
58.481
58.4966
58.5088
58.5036
58.5074
58.5088
58.5051
58.4953
58.4894
58.4896
58.4871
58.488
58.4871
58.477
54.9954
55.9293
56.8918
57.6683
58.1714
58.4254
58.4985
58.5017
58.4954
58.4975
58.5196
58.5252
58.5221
58.5111
58.509
58.5198
58.5186
58.5253
58.5315
58.5287
58.519
58.521
58.5294
58.5237
58.5266
58.5273
58.525
58.5202
58.5284
58.5384
58.5327
58.5328
58.5313
58.5191
58.5191
58.5234
58.5175
58.5168
58.5162
58.5164
58.5164
58.5178
58.518
58.514
58.5044
58.4904
58.4822
58.4834
58.4839
58.4813
58.4724
58.4759
58.4807
58.4775
58.4667
58.465
58.4701
58.4693
58.4645
58.4712
58.4889
58.491
58.4886
58.4834
58.4823
58.4753
58.467
58.4719
58.4822
58.485
58.4838
58.483
58.4723
58.4711
58.4785
58.4782
58.4737
58.4797
58.4945
58.4941
58.4931
58.4796
58.4784
58.4972
58.5027
58.4994
58.4992
58.4994
58.497
58.4798
54.9943
55.9349
56.8869
57.6646
58.1754
58.4316
58.5043
58.5074
58.5011
58.5069
58.516
58.5149
58.5116
58.5139
58.5228
58.5115
58.5135
58.5291
58.5257
58.5341
58.5507
58.5508
58.5474
58.5336
58.5374
58.5444
58.5292
58.5329
58.5388
58.5365
58.536
58.5258
58.5314
58.5394
58.5366
58.5388
58.5384
58.5357
58.533
58.5319
58.5292
58.5237
58.5103
58.5037
58.4974
58.4827
58.4759
58.486
58.4939
58.4915
58.4834
58.4878
58.4917
58.4888
58.4792
58.4802
58.4828
58.4803
58.4742
58.4746
58.4867
58.4868
58.4845
58.4739
58.4792
58.4864
58.4856
58.4852
58.4731
58.4764
58.4856
58.4842
58.4786
58.4829
58.4886
58.4877
58.4875
58.475
58.476
58.4886
58.4892
58.486
58.4912
58.5011
58.4985
58.4886
58.4892
58.4933
58.4912
58.4819
54.9922
55.9378
56.8854
57.666
58.1744
58.4269
58.5182
58.5277
58.5275
58.5273
58.517
58.5153
58.5289
58.5534
58.5524
58.5444
58.5446
58.544
58.5354
58.5348
58.544
58.5444
58.5484
58.5492
58.542
58.5485
58.5589
58.5549
58.5555
58.5546
58.5549
58.5533
58.5535
58.5505
58.5481
58.5464
58.5461
58.5409
58.5311
58.5214
58.5134
58.5071
58.501
58.482
58.4799
58.4843
58.4862
58.4864
58.4761
58.4749
58.4726
58.4802
58.496
58.4938
58.4962
58.4938
58.4895
58.4886
58.4866
58.4834
58.4811
58.478
58.4685
58.4692
58.4914
58.4944
58.4926
58.4918
58.4811
58.4869
58.4971
58.4966
58.4962
58.4841
58.4879
58.4945
58.4932
58.4922
58.479
58.4841
58.4927
58.4907
58.4839
58.4838
58.4958
58.4998
58.4978
58.4953
58.4919
58.4757
54.9936
55.9352
56.8928
57.6571
58.166
58.4409
58.5355
58.543
58.5338
58.5381
58.5504
58.5426
58.5396
58.5415
58.5366
58.541
58.5604
58.5625
58.5591
58.5469
58.5485
58.5606
58.5593
58.5545
58.5596
58.5681
58.5582
58.5636
58.5662
58.5643
58.5645
58.5619
58.5578
58.5523
58.5403
58.528
58.5281
58.528
58.5245
58.518
58.5105
58.511
58.5117
58.508
58.4954
58.4941
58.5007
58.4979
58.5037
58.5056
58.5005
58.5004
58.5006
58.4989
58.4889
58.4861
58.4894
58.4895
58.4864
58.4782
58.4862
58.4969
58.4932
58.4959
58.497
58.4941
58.4834
58.4807
58.4844
58.4793
58.4854
58.4924
58.4927
58.4927
58.4795
58.4799
58.4981
58.5012
58.4979
58.4862
58.4853
58.4937
58.4936
58.494
58.4939
58.4867
58.4877
58.4913
58.4895
58.4808
54.9942
55.9343
56.8845
57.671
58.1794
58.4143
58.4998
58.5073
58.4934
58.4982
58.5068
58.4953
58.5012
58.5076
58.495
58.4945
58.5071
58.5063
58.5156
58.53
58.5276
58.523
58.5261
58.5366
58.5423
58.5532
58.5426
58.5483
58.554
58.5519
58.5494
58.5468
58.5436
58.5404
58.5348
58.5288
58.5246
58.5123
58.5149
58.5193
58.5121
58.5135
58.5164
58.5171
58.5149
58.5113
58.499
58.5017
58.5057
58.5059
58.5059
58.4995
58.4966
58.4871
58.488
58.4887
58.4859
58.4778
58.4822
58.4898
58.4898
58.4898
58.4762
58.4797
58.4856
58.4843
58.4847
58.4787
58.4801
58.4791
58.4878
58.4936
58.4934
58.4933
58.4847
58.4835
58.4753
58.4773
58.4926
58.4857
58.4883
58.5051
58.5102
58.5088
58.5075
58.4947
58.4933
58.5011
58.501
58.4914
54.9934
55.9361
56.8906
57.6609
58.1619
58.44
58.5447
58.5552
58.5456
58.5501
58.561
58.5479
58.5519
58.5612
58.5528
58.5529
58.5525
58.5444
58.5449
58.5532
58.5479
58.5526
58.5665
58.5663
58.5635
58.5677
58.5688
58.5634
58.5653
58.5656
58.5633
58.5626
58.562
58.5589
58.5558
58.5525
58.5487
58.5439
58.5322
58.5241
58.5176
58.505
58.4863
58.4888
58.4971
58.494
58.4948
58.4918
58.4847
58.4776
58.4761
58.4768
58.4739
58.4815
58.4918
58.4896
58.4908
58.4895
58.4875
58.4831
58.4782
58.4869
58.4996
58.4975
58.489
58.4904
58.5018
58.5023
58.4999
58.4847
58.4833
58.4914
58.4923
58.4896
58.477
58.4787
58.4986
58.5003
58.4971
58.4851
58.4855
58.4944
58.4887
58.4934
58.4951
58.4921
58.4828
58.4849
58.4893
58.4757
54.994
55.94
56.8827
57.6623
58.1793
58.4204
58.5174
58.5282
58.5239
58.5158
58.5155
58.5236
58.5231
58.5199
58.5143
58.5268
58.5375
58.5353
58.5268
58.5292
58.5363
58.5246
58.5254
58.5382
58.539
58.5345
58.5416
58.5497
58.5394
58.5359
58.5352
58.5352
58.5298
58.5321
58.5341
58.5299
58.5294
58.527
58.5268
58.5275
58.528
58.526
58.5218
58.5189
58.5163
58.5113
58.5004
58.4853
58.4808
58.4692
58.4718
58.4871
58.488
58.4848
58.4736
58.4796
58.4937
58.4893
58.5044
58.5186
58.5193
58.5194
58.5068
58.5094
58.5117
58.5021
58.5087
58.5141
58.5139
58.5139
58.5113
58.5092
58.4932
58.4938
58.4973
58.4949
58.4866
58.4883
58.4905
58.4833
58.4789
58.4876
58.5033
58.5022
58.4998
58.4881
58.4907
58.4932
58.4902
58.4808
54.9932
55.9375
56.8899
57.6622
58.1585
58.434
58.5535
58.5699
58.5693
58.5691
58.559
58.5648
58.5716
58.5702
58.5708
58.5697
58.5686
58.5609
58.5525
58.5546
58.5616
58.5607
58.5606
58.552
58.555
58.5668
58.5644
58.5645
58.5658
58.5657
58.5595
58.5592
58.5569
58.5542
58.5517
58.5469
58.5433
58.5393
58.5354
58.532
58.5271
58.5179
58.4964
58.4867
58.4817
58.4792
58.4791
58.4776
58.4753
58.4619
58.4627
58.4747
58.4748
58.4755
58.4701
58.475
58.4992
58.5007
58.4958
58.4932
58.4904
58.4831
58.487
58.4975
58.4939
58.4932
58.4939
58.4948
58.4935
58.4928
58.4861
58.4785
58.4854
58.4987
58.497
58.4945
58.4861
58.4831
58.4861
58.4849
58.4923
58.4968
58.4952
58.4947
58.4877
58.486
58.4838
58.4791
58.4774
58.4732
54.9932
55.9368
56.8888
57.6649
58.1571
58.4387
58.5551
58.5695
58.5604
58.5662
58.571
58.5704
58.5704
58.5553
58.5589
58.5668
58.5522
58.5531
58.5629
58.5611
58.5582
58.5639
58.5713
58.5626
58.5687
58.5778
58.5758
58.5733
58.5716
58.5717
58.5692
58.5678
58.5638
58.5631
58.5588
58.5545
58.5501
58.5419
58.5305
58.5207
58.5154
58.5073
58.4981
58.4936
58.4892
58.484
58.4705
58.466
58.4813
58.4879
58.4874
58.4873
58.4823
58.4757
58.4765
58.494
58.4987
58.4862
58.4912
58.5026
58.4917
58.4975
58.5045
58.5046
58.5045
58.494
58.4935
58.4914
58.4875
58.4834
58.4927
58.5091
58.5087
58.5065
58.507
58.5044
58.4966
58.4957
58.4948
58.4952
58.4923
58.4816
58.484
58.4962
58.4972
58.497
58.483
58.4842
58.4899
58.4765
54.9933
55.937
56.8914
57.6592
58.1617
58.4374
58.5423
58.5638
58.5621
58.5527
58.5555
58.5624
58.5599
58.56
58.5584
58.5592
58.5556
58.5494
58.5515
58.5626
58.5627
58.563
58.5541
58.5579
58.5659
58.5578
58.5573
58.5562
58.5576
58.5564
58.5562
58.5535
58.5495
58.5431
58.5362
58.5189
58.5136
58.5197
58.5235
58.5209
58.5184
58.5181
58.5153
58.5125
58.5077
58.5034
58.4986
58.4906
58.4667
58.4642
58.4793
58.4811
58.4789
58.4761
58.4682
58.4724
58.4976
58.4984
58.4905
58.4945
58.5046
58.4934
58.4989
58.5066
58.5065
58.5064
58.4934
58.4963
58.4992
58.4874
58.4917
58.4988
58.4852
58.4896
58.4979
58.4981
58.4981
58.4854
58.4891
58.5024
58.5021
58.4998
58.4996
58.4959
58.4803
58.4797
58.484
58.4852
58.4852
58.4715
54.9909
55.9429
56.8848
57.6609
58.1688
58.4371
58.5276
58.5376
58.5352
58.5266
58.53
58.5361
58.5341
58.5312
58.5252
58.5279
58.5245
58.5329
58.5451
58.5398
58.5394
58.5377
58.5495
58.5657
58.5753
58.5736
58.5733
58.5732
58.5676
58.5667
58.5664
58.5671
58.5633
58.56
58.555
58.552
58.5451
58.5383
58.5331
58.5269
58.5176
58.512
58.5037
58.494
58.4879
58.4701
58.4683
58.47
58.4706
58.4706
58.4592
58.4694
58.5114
58.5141
58.5085
58.5131
58.5264
58.5289
58.5266
58.5222
58.5143
58.5122
58.5127
58.5064
58.5121
58.5155
58.5131
58.5089
58.5054
58.5074
58.5066
58.5114
58.513
58.5097
58.4965
58.498
58.5022
58.4954
58.4956
58.4937
58.4923
58.4908
58.488
58.4812
58.4798
58.4795
58.4783
58.4808
58.4782
58.4687
54.994
55.9362
56.8856
57.6655
58.1773
58.4267
58.4902
58.4871
58.4881
58.5068
58.5146
58.5146
58.5147
58.5012
58.5034
58.5194
58.5206
58.521
58.5162
58.5201
58.5539
58.5746
58.5666
58.5733
58.5776
58.5721
58.5716
58.5726
58.574
58.5721
58.5687
58.5652
58.5614
58.5568
58.5495
58.5329
58.5178
58.5158
58.513
58.5104
58.5083
58.5063
58.5037
58.4997
58.4918
58.4763
58.4777
58.4831
58.4757
58.4794
58.4831
58.4803
58.4803
58.4783
58.4767
58.4633
58.4651
58.4717
58.4685
58.4682
58.463
58.4676
58.47
58.4673
58.4591
58.4594
58.4704
58.4707
58.4687
58.468
58.4777
58.4788
58.4876
58.5001
58.4994
58.4983
58.4844
58.4825
58.4908
58.4884
58.4949
58.4977
58.4947
58.4851
58.4859
58.4882
58.4742
58.477
58.4865
58.4736
54.9937
55.935
56.8934
57.6562
58.1668
58.4414
58.5384
58.5477
58.5476
58.5474
58.5354
58.5368
58.5481
58.5475
58.5487
58.5488
58.5509
58.5508
58.5517
58.5445
58.5489
58.5678
58.564
58.5681
58.5755
58.572
58.5718
58.5718
58.5731
58.5729
58.5675
58.5554
58.549
58.5431
58.5401
58.5367
58.5299
58.5273
58.5241
58.5212
58.5162
58.5128
58.5082
58.5052
58.5016
58.4945
58.4779
58.4667
58.4705
58.477
58.4741
58.4626
58.4613
58.4915
58.5131
58.5121
58.5065
58.5109
58.5244
58.5193
58.5212
58.5187
58.5104
58.5158
58.5235
58.5178
58.5174
58.5135
58.5054
58.4989
58.5004
58.4962
58.5011
58.5137
58.5079
58.515
58.5209
58.5112
58.5171
58.5211
58.5206
58.5204
58.5117
58.4996
58.4961
58.4955
58.4929
58.4947
58.4916
58.4764
54.9933
55.9364
56.89
57.6625
58.1596
58.443
58.54
58.5424
58.5509
58.5639
58.5533
58.5569
58.5594
58.557
58.5496
58.5513
58.5634
58.5608
58.5571
58.5633
58.5744
58.5736
58.5714
58.5782
58.5891
58.5793
58.5837
58.585
58.5813
58.5806
58.5784
58.5775
58.5729
58.5679
58.561
58.546
58.5377
58.5304
58.5158
58.4962
58.4977
58.5012
58.4974
58.497
58.4956
58.493
58.476
58.4755
58.4881
58.4902
58.487
58.4773
58.4726
58.4915
58.5143
58.5242
58.5291
58.5215
58.5275
58.5305
58.5274
58.5172
58.5192
58.5272
58.52
58.5202
58.5167
58.5043
58.5039
58.5122
58.5081
58.5159
58.5221
58.5112
58.5174
58.5234
58.5233
58.5232
58.5078
58.5111
58.5145
58.5041
58.5089
58.512
58.5101
58.5088
58.4927
58.4931
58.4953
58.4816
54.9949
55.9344
56.8842
57.6727
58.1693
58.4271
58.5055
58.5136
58.5111
58.5015
58.5068
58.512
58.5084
58.5036
58.5112
58.5344
58.5287
58.5379
58.5666
58.5652
58.5654
58.5656
58.5659
58.5659
58.5661
58.5661
58.5607
58.5662
58.5698
58.5622
58.5629
58.5615
58.5594
58.557
58.5561
58.5542
58.5486
58.5393
58.5176
58.5041
58.4987
58.4845
58.4873
58.4912
58.4825
58.4817
58.4817
58.481
58.4806
58.4786
58.4762
58.4713
58.4688
58.4717
58.4718
58.4636
58.4651
58.4763
58.4709
58.4763
58.4786
58.4772
58.4747
58.4818
58.5012
58.5001
58.5006
58.5
58.4987
58.4854
58.4893
58.498
58.4974
58.4975
58.4932
58.493
58.4903
58.4845
58.4867
58.4953
58.4934
58.4916
58.4912
58.481
58.4838
58.495
58.4948
58.4948
58.4919
58.4803
54.9918
55.9398
56.8873
57.659
58.1735
58.4339
58.5301
58.5387
58.5374
58.5337
58.5348
58.5421
58.541
58.5436
58.545
58.5422
58.5426
58.5361
58.5416
58.5518
58.5505
58.549
58.5458
58.5551
58.5573
58.5536
58.5623
58.572
58.5722
58.572
58.5678
58.5605
58.5482
58.5438
58.5398
58.5358
58.5325
58.5288
58.5257
58.5214
58.5123
58.5065
58.5021
58.4962
58.4834
58.4717
58.4636
58.4611
58.4607
58.4558
58.4524
58.4671
58.4776
58.4763
58.4749
58.4659
58.4629
58.4541
58.452
58.4602
58.4607
58.4696
58.4792
58.4703
58.4755
58.4851
58.4832
58.4809
58.4728
58.4676
58.476
58.4816
58.4725
58.4784
58.4866
58.4716
58.4703
58.4839
58.4889
58.4859
58.4753
58.4791
58.4937
58.4894
58.4902
58.4952
58.4957
58.497
58.495
58.4744
54.9935
55.9356
56.8922
57.6581
58.1653
58.4421
58.5363
58.544
58.5366
58.5429
58.557
58.5447
58.5476
58.5619
58.5622
58.5601
58.5649
58.5691
58.5601
58.5651
58.5678
58.5582
58.5639
58.5788
58.5743
58.5788
58.5832
58.5818
58.5822
58.5793
58.5755
58.5722
58.5666
58.5626
58.5552
58.5385
58.5283
58.5232
58.5162
58.5116
58.5081
58.5049
58.5034
58.5015
58.4992
58.4957
58.4881
58.467
58.4608
58.4687
58.4743
58.4717
58.4617
58.4658
58.4764
58.4777
58.4753
58.4609
58.4639
58.4728
58.472
58.468
58.4676
58.4795
58.4762
58.4836
58.4885
58.4873
58.4872
58.4823
58.4814
58.4774
58.4681
58.4765
58.4929
58.4932
58.4933
58.4849
58.4906
58.4938
58.4923
58.4915
58.4754
58.4785
58.4897
58.4899
58.4897
58.4826
58.4809
58.4724
54.9932
55.9368
56.8888
57.6651
58.1571
58.4394
58.5543
58.5726
58.5702
58.5585
58.558
58.5642
58.5536
58.5589
58.5686
58.5548
58.5563
58.567
58.5656
58.5621
58.5678
58.5744
58.565
58.5711
58.5851
58.5812
58.5821
58.5811
58.5779
58.5753
58.5754
58.5724
58.57
58.5694
58.566
58.5527
58.541
58.5326
58.5278
58.5238
58.5203
58.5171
58.5128
58.51
58.5045
58.4914
58.4881
58.4788
58.4791
58.48
58.4754
58.4675
58.472
58.508
58.5082
58.5165
58.5295
58.5279
58.5278
58.5214
58.521
58.5181
58.5235
58.5257
58.5208
58.5225
58.5195
58.51
58.5043
58.5064
58.5043
58.5048
58.5046
58.5056
58.5054
58.4961
58.4964
58.5023
58.4997
58.5033
58.5052
58.5024
58.4967
58.4905
58.4984
58.5045
58.5027
58.5025
58.498
58.4814
54.9933
55.9364
56.89
57.6625
58.1596
58.443
58.5402
58.5426
58.5511
58.5642
58.5522
58.5566
58.5635
58.5612
58.5564
58.5533
58.5584
58.5593
58.5595
58.5577
58.5547
58.5645
58.5804
58.5694
58.5754
58.5858
58.5845
58.5845
58.5835
58.5806
58.5777
58.5756
58.565
58.5584
58.5531
58.5435
58.5378
58.5311
58.5176
58.4967
58.4982
58.5027
58.5012
58.5009
58.4961
58.4934
58.4776
58.4779
58.4889
58.4898
58.4864
58.4749
58.4724
58.4966
58.5121
58.503
58.5082
58.5229
58.5237
58.5231
58.5139
58.5067
58.5049
58.498
58.5019
58.5119
58.5116
58.5121
58.5107
58.5098
58.498
58.5027
58.5131
58.5045
58.5102
58.5133
58.5093
58.5105
58.5079
58.503
58.4951
58.4912
58.48
58.4819
58.4928
58.4861
58.4928
58.4973
58.4936
58.4804
54.9937
55.9349
56.8935
57.656
58.1673
58.4414
58.5339
58.5558
58.5541
58.5441
58.5477
58.5512
58.5401
58.5383
58.5521
58.5613
58.5584
58.558
58.5559
58.5494
58.5558
58.5696
58.5692
58.5692
58.5651
58.5649
58.5639
58.5547
58.5572
58.5665
58.567
58.5667
58.5615
58.5624
58.5601
58.5575
58.5558
58.5526
58.544
58.5257
58.5132
58.5081
58.5026
58.4988
58.4958
58.4895
58.473
58.4649
58.4756
58.4817
58.4786
58.4698
58.4674
58.4952
58.5119
58.5111
58.5076
58.508
58.5249
58.5276
58.5239
58.5138
58.5095
58.5181
58.5213
58.5178
58.5178
58.5181
58.5166
58.5034
58.5004
58.513
58.5157
58.5138
58.5136
58.5096
58.5059
58.4943
58.4967
58.5104
58.5121
58.5124
58.5076
58.508
58.5057
58.5025
58.4906
58.4911
58.4922
58.48
54.9944
55.9354
56.8865
57.6658
58.1744
58.4273
58.5024
58.5059
58.4995
58.4982
58.5136
58.5244
58.5205
58.5205
58.5204
58.5116
58.5156
58.5307
58.5275
58.5254
58.5335
58.5621
58.5633
58.5638
58.5572
58.561
58.5645
58.5527
58.5577
58.5632
58.5627
58.5625
58.5587
58.5585
58.5558
58.5518
58.5385
58.5339
58.5263
58.507
58.4986
58.4968
58.4958
58.4933
58.495
58.4965
58.4851
58.4889
58.4921
58.48
58.4836
58.4942
58.4941
58.4945
58.4911
58.4891
58.4873
58.483
58.4667
58.4635
58.4809
58.4873
58.4843
58.4781
58.4728
58.4862
58.4961
58.4942
58.4966
58.494
58.4881
58.4874
58.4836
58.4916
58.5056
58.4931
58.4977
58.5054
58.4925
58.4973
58.5034
58.5033
58.5032
58.4906
58.4884
58.4995
58.5058
58.5046
58.5028
58.4857
54.9946
55.9391
56.8827
57.6633
58.1793
58.4194
58.5162
58.5275
58.5253
58.5252
58.5262
58.5262
58.5198
58.5118
58.5193
58.5363
58.5307
58.5347
58.5365
58.5345
58.5287
58.5358
58.5658
58.5671
58.5644
58.5572
58.552
58.5504
58.5485
58.553
58.5536
58.5499
58.5424
58.5393
58.5361
58.5323
58.5242
58.5211
58.5177
58.5129
58.5075
58.5045
58.501
58.4985
58.496
58.4949
58.4914
58.492
58.4928
58.4909
58.4894
58.4747
58.4678
58.4717
58.4732
58.4657
58.4655
58.4786
58.4941
58.5008
58.5015
58.499
58.4892
58.4947
58.4987
58.496
58.4876
58.4883
58.4952
58.4828
58.4824
58.4978
58.5007
58.4988
58.497
58.4884
58.4944
58.5026
58.4998
58.4996
58.4963
58.4892
58.4833
58.4907
58.4943
58.491
58.4795
58.4813
58.4863
58.4721
54.994
55.9399
56.8827
57.6624
58.1794
58.4206
58.5173
58.528
58.5121
58.5139
58.5201
58.5197
58.5197
58.5083
58.5144
58.5416
58.5432
58.5399
58.5291
58.5313
58.5487
58.5473
58.5477
58.5463
58.5554
58.5608
58.5583
58.5578
58.5554
58.5549
58.551
58.5343
58.5302
58.533
58.5287
58.529
58.5291
58.529
58.5249
58.5223
58.5182
58.5161
58.5125
58.5053
58.4884
58.4778
58.4749
58.4726
58.47
58.4612
58.4682
58.4816
58.4749
58.4865
58.5116
58.5116
58.5104
58.501
58.4954
58.497
58.4964
58.5029
58.5053
58.5041
58.504
58.5005
58.4908
58.4878
58.4959
58.4984
58.501
58.5021
58.4995
58.4952
58.4871
58.4908
58.499
58.4965
58.497
58.497
58.494
58.4927
58.4891
58.4877
58.4869
58.4826
58.4753
58.4821
58.4868
58.4751
54.9933
55.9365
56.8897
57.663
58.1591
58.4403
58.5492
58.5646
58.5624
58.5531
58.5549
58.5644
58.5545
58.5607
58.5688
58.5677
58.5678
58.5592
58.5568
58.5566
58.5556
58.5555
58.5534
58.5624
58.5726
58.5608
58.5666
58.5712
58.5677
58.5694
58.5668
58.5617
58.5457
58.538
58.5335
58.5292
58.5257
58.519
58.5171
58.5141
58.5114
58.5085
58.503
58.4982
58.4835
58.4838
58.4947
58.4839
58.4834
58.4988
58.5049
58.5017
58.5021
58.501
58.4949
58.482
58.4832
58.4879
58.4911
58.4944
58.4938
58.4923
58.4901
58.4898
58.4874
58.4829
58.4879
58.4945
58.4929
58.4881
58.4946
58.5094
58.5088
58.5066
58.5052
58.5024
58.4957
58.4946
58.4961
58.4966
58.4942
58.4895
58.4825
58.4924
58.5007
58.4976
58.489
58.4865
58.4889
58.4774
54.9931
55.9378
56.8892
57.664
58.1549
58.4395
58.5478
58.5586
58.5662
58.5675
58.5546
58.5594
58.5675
58.5656
58.5668
58.5648
58.5662
58.565
58.5713
58.5799
58.5805
58.5787
58.5781
58.5672
58.5708
58.5763
58.5699
58.5685
58.5662
58.5645
58.5668
58.5643
58.5619
58.5599
58.5487
58.5436
58.5383
58.5348
58.5302
58.5203
58.5176
58.5153
58.5104
58.4983
58.4941
58.4908
58.4885
58.4887
58.4851
58.4862
58.4842
58.4912
58.4975
58.4949
58.486
58.4858
58.4965
58.4969
58.4973
58.4981
58.4977
58.4866
58.4844
58.4936
58.4907
58.4954
58.5079
58.5023
58.509
58.5126
58.5115
58.5112
58.5005
58.5042
58.5118
58.512
58.5121
58.5082
58.5055
58.4984
58.4961
58.4958
58.4964
58.4959
58.4898
58.482
58.4855
58.4884
58.485
58.4736
54.9913
55.9415
56.8874
57.6576
58.1699
58.44
58.5204
58.5248
58.5263
58.5251
58.5226
58.5161
58.5181
58.5191
58.5118
58.5189
58.5316
58.53
58.5267
58.5247
58.5344
58.5356
58.5445
58.5535
58.5468
58.5499
58.5506
58.5469
58.5343
58.5347
58.5408
58.5418
58.5412
58.5251
58.5267
58.5284
58.5199
58.5194
58.5197
58.5198
58.5191
58.5159
58.5087
58.49
58.4777
58.4753
58.4788
58.4778
58.4668
58.4729
58.489
58.489
58.4869
58.4845
58.4818
58.4772
58.4727
58.4847
58.5061
58.4981
58.5036
58.5068
58.5018
58.5018
58.5014
58.492
58.4952
58.5035
58.4968
58.498
58.4954
58.4858
58.4892
58.4979
58.484
58.483
58.4947
58.4994
58.4966
58.4871
58.4934
58.5007
58.4932
58.4954
58.4959
58.4935
58.4871
58.4899
58.4921
58.4802
54.9933
55.9362
56.8904
57.6611
58.1626
58.4371
58.548
58.5665
58.5646
58.5642
58.5556
58.5616
58.567
58.5515
58.5527
58.5601
58.5491
58.5539
58.5667
58.5539
58.5559
58.5659
58.5588
58.5661
58.5727
58.5728
58.5727
58.5659
58.5652
58.5609
58.5466
58.5485
58.5502
58.5448
58.5441
58.5438
58.5432
58.5362
58.5303
58.5247
58.5175
58.5126
58.5047
58.4917
58.4858
58.4825
58.4762
58.4734
58.4655
58.4652
58.4875
58.4966
58.4969
58.4969
58.4888
58.4837
58.4883
58.4906
58.4831
58.4818
58.4841
58.483
58.48
58.4841
58.4865
58.4783
58.4829
58.4872
58.4767
58.4772
58.4962
58.505
58.5059
58.5033
58.5008
58.4943
58.4928
58.4947
58.4935
58.4876
58.4836
58.4922
58.4986
58.4969
58.4976
58.4948
58.4812
58.4842
58.4889
58.4752
54.9936
55.935
56.8861
57.6688
58.1757
58.4251
58.4915
58.4946
58.491
58.4992
58.5168
58.516
58.5154
58.5043
58.5026
58.5236
58.5331
58.5251
58.5261
58.5442
58.5495
58.5414
58.5479
58.5661
58.5586
58.566
58.5757
58.5736
58.5709
58.5651
58.5644
58.5602
58.5581
58.5515
58.5336
58.5287
58.5272
58.5223
58.5201
58.5211
58.5216
58.5191
58.5189
58.5166
58.5112
58.4925
58.49
58.5014
58.5031
58.5012
58.5018
58.4994
58.4947
58.4771
58.4756
58.4848
58.4887
58.4864
58.4733
58.4771
58.4853
58.4831
58.4751
58.4737
58.488
58.4908
58.4874
58.4805
58.4748
58.4763
58.4733
58.4803
58.4939
58.4928
58.4911
58.4773
58.4794
58.4869
58.4839
58.4774
58.4807
58.4951
58.4885
58.4948
58.4985
58.4909
58.4955
58.4973
58.4931
58.4773
54.9935
55.9356
56.8921
57.6577
58.1658
58.4407
58.5327
58.5625
58.5639
58.5632
58.5629
58.5468
58.548
58.5552
58.5438
58.5487
58.557
58.5467
58.5528
58.5574
58.5461
58.5445
58.5484
58.5463
58.5538
58.5613
58.5546
58.5571
58.5573
58.5542
58.5414
58.5409
58.5437
58.5433
58.5431
58.5379
58.5344
58.518
58.5136
58.518
58.5192
58.5169
58.5144
58.5144
58.5116
58.5085
58.494
58.4982
58.5074
58.504
58.5058
58.5023
58.5008
58.5036
58.503
58.5008
58.4983
58.4869
58.4768
58.4799
58.4833
58.4783
58.4782
58.4803
58.4806
58.4704
58.4717
58.4844
58.4849
58.4807
58.4844
58.4991
58.4994
58.4968
58.4835
58.4826
58.4974
58.5003
58.4972
58.4851
58.4859
58.4953
58.4891
58.4936
58.4952
58.4922
58.4829
58.485
58.4894
58.4757
54.9922
55.9378
56.8854
57.666
58.1744
58.4269
58.5181
58.5276
58.5274
58.5272
58.5171
58.5149
58.5289
58.5457
58.5594
58.5569
58.557
58.557
58.5536
58.5527
58.545
58.5393
58.5439
58.5463
58.5531
58.5588
58.5469
58.5522
58.5611
58.5588
58.5563
58.5553
58.555
58.5512
58.5504
58.5472
58.5432
58.5306
58.5238
58.5079
58.4986
58.504
58.5055
58.4957
58.4956
58.5072
58.5101
58.5083
58.508
58.502
58.4985
58.496
58.4915
58.4855
58.4849
58.4853
58.4814
58.481
58.4795
58.4708
58.4671
58.4755
58.4773
58.4708
58.4756
58.483
58.4831
58.4832
58.4728
58.4807
58.4938
58.4936
58.4934
58.4822
58.4871
58.4932
58.4925
58.4921
58.4784
58.4836
58.5026
58.5025
58.5028
58.5035
58.5008
58.4953
58.4831
58.4872
58.4939
58.4819
54.9944
55.9335
56.8862
57.6688
58.1788
58.4233
58.4812
58.4779
58.4846
58.5136
58.5119
58.5179
58.5331
58.523
58.5283
58.5388
58.5255
58.5295
58.5406
58.5273
58.529
58.5391
58.5297
58.5356
58.5426
58.5408
58.5405
58.5302
58.5363
58.5435
58.5358
58.5388
58.5404
58.5394
58.5363
58.5367
58.5373
58.533
58.5328
58.5316
58.5311
58.5285
58.5237
58.5146
58.4951
58.4887
58.4843
58.471
58.4744
58.4829
58.48
58.4743
58.4781
58.4927
58.493
58.4926
58.4834
58.4794
58.4884
58.4942
58.4895
58.4891
58.4879
58.4758
58.4774
58.481
58.4726
58.4692
58.481
58.4961
58.4923
58.4941
58.4944
58.4941
58.4871
58.4841
58.4778
58.4758
58.4955
58.508
58.5015
58.5057
58.5071
58.5033
58.5029
58.5032
58.5016
58.4991
58.494
58.4769
54.993
55.9379
56.8858
57.6645
58.1775
58.4185
58.509
58.5166
58.5154
58.5152
58.5055
58.5139
58.5254
58.5219
58.5226
58.5227
58.5155
58.5178
58.5385
58.5409
58.5384
58.527
58.5256
58.5361
58.5348
58.5412
58.5443
58.5407
58.5315
58.5278
58.5334
58.534
58.5318
58.5306
58.5278
58.5236
58.5224
58.5177
58.5022
58.4996
58.4992
58.4981
58.4928
58.4897
58.4861
58.4769
58.4724
58.4881
58.5007
58.4915
58.4957
58.5009
58.5007
58.5004
58.4916
58.481
58.4827
58.4853
58.4829
58.4758
58.4803
58.4915
58.4898
58.4896
58.4875
58.4828
58.4912
58.5089
58.5085
58.5057
58.5087
58.511
58.5094
58.5094
58.5076
58.5063
58.4893
58.4918
58.5036
58.5044
58.5043
58.4946
58.4986
58.5018
58.4982
58.4982
58.4975
58.498
58.4935
58.478
54.9947
55.9351
56.8869
57.6667
58.1695
58.4284
58.5164
58.523
58.522
58.5216
58.5083
58.5082
58.5286
58.5532
58.5524
58.5368
58.5368
58.5462
58.5382
58.54
58.5599
58.5629
58.5593
58.5466
58.5459