/*--------------------------------*- C++ -*----------------------------------*\
  =========                 |
  \\      /  F ield         | OpenFOAM: The Open Source CFD Toolbox
   \\    /   O peration     | Website:  https://openfoam.org
    \\  /    A nd           | Version:  11
     \\/     M anipulation  |
\*---------------------------------------------------------------------------*/
FoamFile
{
    format      ascii;
    class       volScalarField;
    location    "0.074";
    object      p;
}
// * * * * * * * * * * * * * * * * * * * * * * * * * * * * * * * * * * * * * //

dimensions      [0 2 -2 0 0 0 0];

internalField   nonuniform List<scalar> 
287084
(
1.69051
1.40345
1.34602
1.27712
1.20737
1.15464
1.10446
1.05809
1.01343
0.969757
0.925716
0.882178
0.839639
0.795882
0.750848
0.705333
0.659399
0.613348
0.567315
0.521573
0.476233
0.431774
0.388145
0.346055
0.304921
0.265918
0.231754
0.201423
0.174503
0.152547
0.130737
0.11066
0.0932638
0.0789464
0.0689648
0.0618936
0.0575816
0.055738
0.0560248
0.0581376
0.0617792
0.0666691
0.0725171
0.0790834
0.0861336
0.0934449
0.100881
0.108177
0.115316
0.122097
0.127948
0.134048
0.140471
0.145477
0.150247
0.153912
0.156665
0.159109
0.160831
0.161871
0.162253
0.162126
0.16138
0.160123
0.15829
0.155921
0.153084
0.149697
0.146
0.141507
0.137002
0.132578
0.127172
0.12129
0.115394
0.109067
0.102548
0.0957594
0.088738
0.081595
0.0740712
0.066432
0.0586747
0.0506841
0.0425453
0.0345405
0.0253827
0.0153823
0.00508127
0.000559877
1.5547
1.36253
1.31472
1.25665
1.19569
1.14655
1.09886
1.05397
1.01026
0.967179
0.923806
0.880605
0.837369
0.793148
0.748085
0.702534
0.656578
0.610384
0.564155
0.518178
0.472623
0.42796
0.384179
0.342074
0.301032
0.262517
0.229078
0.199678
0.171454
0.145233
0.122677
0.102967
0.0867199
0.0737289
0.0641641
0.0575143
0.0535587
0.0520351
0.052625
0.0550344
0.0589584
0.0641182
0.0702216
0.0770294
0.0843021
0.0918313
0.0994434
0.106972
0.114283
0.121303
0.127839
0.133949
0.139707
0.144767
0.149224
0.153044
0.156092
0.158627
0.160446
0.16154
0.162016
0.161902
0.161218
0.159967
0.158156
0.155839
0.152975
0.149688
0.145915
0.141731
0.137162
0.132245
0.126942
0.121252
0.115276
0.108971
0.102569
0.0958106
0.0887271
0.0815538
0.0740761
0.0664389
0.0586729
0.0507715
0.0425519
0.0342203
0.0257072
0.0169066
0.00751186
0.00172798
1.52827
1.35627
1.30683
1.25078
1.19213
1.14353
1.09626
1.05141
1.00754
0.964239
0.92066
0.87714
0.833515
0.788902
0.743528
0.697606
0.651247
0.604601
0.55789
0.511397
0.465355
0.420178
0.376096
0.333591
0.292951
0.25479
0.219782
0.18781
0.159131
0.133774
0.111661
0.0927361
0.0770315
0.0644712
0.0552554
0.0490518
0.0456014
0.0446063
0.0457523
0.0487218
0.0531964
0.0588842
0.0654998
0.0727874
0.0805084
0.0884573
0.0964479
0.104319
0.111941
0.119192
0.125948
0.132299
0.138266
0.143536
0.148177
0.152101
0.155273
0.157888
0.159781
0.160992
0.161558
0.161528
0.160857
0.159659
0.15788
0.155573
0.15279
0.149509
0.14578
0.141587
0.137031
0.13218
0.126877
0.121166
0.115242
0.109015
0.102496
0.0957002
0.0887193
0.0815235
0.0741098
0.0665237
0.0587277
0.050781
0.0427497
0.0341928
0.0252654
0.0163712
0.00764354
0.00243534
1.48064
1.32166
1.27787
1.22691
1.174
1.1291
1.08479
1.042
0.999594
0.957204
0.914376
0.870994
0.827027
0.782116
0.736439
0.690069
0.643154
0.595882
0.548481
0.501241
0.454463
0.408527
0.363756
0.320632
0.2795
0.240772
0.205256
0.17312
0.14402
0.118211
0.0958728
0.0770453
0.0617873
0.0499899
0.041534
0.0361659
0.0335673
0.0334457
0.0354639
0.0392985
0.0446157
0.0511131
0.0584933
0.0665001
0.0748899
0.0834567
0.0920182
0.100412
0.108519
0.116233
0.123474
0.130172
0.136304
0.141744
0.146499
0.150636
0.154035
0.156752
0.158789
0.160142
0.160822
0.160867
0.160325
0.159183
0.157483
0.155267
0.152492
0.149259
0.145565
0.141433
0.136909
0.131988
0.126725
0.121097
0.115168
0.108921
0.102437
0.0956904
0.0886673
0.0814622
0.0740518
0.066429
0.0586697
0.0507607
0.0426283
0.0342756
0.0257002
0.0169501
0.00830491
0.0029677
1.45762
1.30717
1.26586
1.21699
1.16622
1.12223
1.07852
1.03592
0.99347
0.950872
0.907747
0.863947
0.819386
0.773902
0.727558
0.680417
0.63267
0.584466
0.536092
0.487832
0.440009
0.393054
0.347309
0.303272
0.261345
0.221994
0.185671
0.152639
0.123132
0.0972629
0.0751851
0.0568838
0.0423001
0.0313046
0.0237427
0.0193492
0.0178124
0.0187962
0.021939
0.0268894
0.0333026
0.0408552
0.0492445
0.0581982
0.0674693
0.0768488
0.0861509
0.0952277
0.103939
0.112192
0.119898
0.127004
0.133497
0.13931
0.144402
0.148794
0.152412
0.155338
0.157555
0.159056
0.159883
0.160069
0.159611
0.158569
0.156948
0.154769
0.152096
0.148922
0.145271
0.141186
0.136688
0.131799
0.126559
0.12095
0.115034
0.108834
0.102363
0.09562
0.0886609
0.0814824
0.0740913
0.0665362
0.0587795
0.050862
0.0427768
0.0343366
0.0258127
0.0170842
0.00833142
0.00289689
1.43314
1.28439
1.24477
1.19809
1.14977
1.10783
1.06591
1.02469
0.983199
0.941171
0.898304
0.854423
0.809515
0.763469
0.716408
0.668407
0.619638
0.57033
0.520744
0.471211
0.422108
0.373834
0.326856
0.281621
0.238641
0.198331
0.161227
0.127622
0.097744
0.0717875
0.0498655
0.0319994
0.0181151
0.00807539
0.00163373
-0.00149737
-0.00169064
0.000693364
0.00525595
0.0116166
0.0194028
0.028274
0.0379112
0.0480358
0.0583929
0.0687718
0.0789899
0.0888937
0.0983607
0.107289
0.115611
0.123264
0.13022
0.136425
0.141859
0.146543
0.150461
0.153629
0.156058
0.157761
0.158759
0.15908
0.158764
0.157829
0.156306
0.154236
0.151619
0.148496
0.144905
0.140859
0.136404
0.131549
0.126333
0.120766
0.114882
0.108704
0.102246
0.095533
0.0885761
0.0814059
0.0740431
0.0664873
0.0587633
0.0508864
0.0428041
0.0344428
0.0259805
0.0172276
0.00848672
0.00307033
1.41506
1.26896
1.23109
1.18583
1.13895
1.09786
1.05652
1.01554
0.974065
0.931824
0.888574
0.844158
0.798527
0.751629
0.70357
0.654415
0.604397
0.553686
0.502631
0.451558
0.400867
0.351041
0.302517
0.255868
0.211572
0.17015
0.132093
0.0977633
0.0675061
0.041483
0.0198568
0.00260556
-0.0103699
-0.0192612
-0.0243613
-0.0260081
-0.024609
-0.020572
-0.0143336
-0.00631319
0.00308964
0.0135109
0.0246194
0.0361239
0.0477595
0.0593116
0.0705987
0.0814759
0.0918159
0.10153
0.110544
0.118814
0.126307
0.132992
0.138859
0.143924
0.14817
0.151621
0.1543
0.156225
0.157423
0.157924
0.157755
0.156953
0.155547
0.153561
0.151042
0.148004
0.144481
0.140505
0.136105
0.131295
0.126114
0.120581
0.114724
0.108567
0.102135
0.0954409
0.0885107
0.0813619
0.074011
0.0664853
0.0587733
0.0509021
0.0428537
0.0345424
0.026068
0.0172642
0.00850638
0.00305951
1.39817
1.25238
1.21509
1.17085
1.12493
1.08478
1.04423
1.00384
0.962681
0.920495
0.877047
0.832156
0.785832
0.738016
0.688846
0.638412
0.586922
0.534639
0.48187
0.429009
0.376502
0.324827
0.274548
0.226201
0.1804
0.137664
0.0985523
0.0634871
0.0328165
0.00677809
-0.0145122
-0.0310593
-0.043003
-0.0505753
-0.0541156
-0.0540256
-0.0507669
-0.0448062
-0.0366251
-0.0266835
-0.0154158
-0.00321187
0.00958063
0.022656
0.0357449
0.0486334
0.0611377
0.0731125
0.0844427
0.0950424
0.104851
0.113822
0.121936
0.129165
0.135511
0.140988
0.145606
0.149388
0.152355
0.15453
0.155946
0.156636
0.156633
0.155978
0.154698
0.152828
0.150402
0.147446
0.143995
0.140079
0.135731
0.13097
0.125831
0.120339
0.114518
0.108398
0.101993
0.095326
0.0884188
0.081294
0.0739667
0.0664589
0.0587728
0.0509297
0.0429016
0.0346282
0.0261709
0.0172761
0.00848895
0.00306926
1.38344
1.23841
1.2019
1.1583
1.11311
1.07342
1.03318
0.99284
0.951552
0.909023
0.865027
0.819405
0.772124
0.723172
0.672667
0.620707
0.567554
0.513424
0.458711
0.403809
0.349198
0.295456
0.243127
0.192895
0.145362
0.101155
0.0608751
0.0249725
-0.00609951
-0.0321488
-0.0529963
-0.0687071
-0.0794338
-0.0854709
-0.0872269
-0.0851585
-0.0797992
-0.0716708
-0.0613107
-0.0492192
-0.0358638
-0.0216702
-0.0070065
0.00781707
0.0225192
0.0368804
0.0507267
0.0639142
0.076334
0.0879088
0.0985816
0.108323
0.117111
0.124941
0.131818
0.137763
0.142793
0.146929
0.150205
0.152654
0.154315
0.15522
0.155406
0.154907
0.153767
0.152017
0.149697
0.146834
0.14347
0.13963
0.135342
0.130638
0.125545
0.120093
0.114308
0.108215
0.101844
0.0952037
0.0883197
0.0812153
0.0739083
0.066422
0.05875
0.0509198
0.0429197
0.0347065
0.0263047
0.0173855
0.00847374
0.0030403
1.36987
1.22497
1.18873
1.14553
1.10068
1.06131
1.02125
0.980958
0.939515
0.896616
0.852038
0.805583
0.757267
0.707047
0.655067
0.601434
0.546395
0.490248
0.433354
0.376187
0.319269
0.263193
0.208637
0.156269
0.10684
0.0610021
0.0194328
-0.0173262
-0.0488443
-0.0748347
-0.0951753
-0.109916
-0.11927
-0.12359
-0.123337
-0.119068
-0.111367
-0.100834
-0.0880608
-0.0735991
-0.0579602
-0.0415914
-0.0248836
-0.0081662
0.00828275
0.0242446
0.0395403
0.0540379
0.0676329
0.080258
0.0918709
0.102439
0.111958
0.120431
0.127876
0.134317
0.139782
0.144301
0.147916
0.150662
0.152577
0.153704
0.154083
0.153759
0.152768
0.15115
0.148945
0.146183
0.142901
0.139131
0.134909
0.130262
0.125223
0.119821
0.114077
0.108019
0.101675
0.0950644
0.0882066
0.0811275
0.0738413
0.066375
0.0587232
0.0509148
0.0429155
0.0346788
0.0262446
0.0173269
0.0084937
0.00306514
1.35743
1.21271
1.17671
1.13375
1.08913
1.04983
1.00976
0.969258
0.927442
0.883976
0.838608
0.791181
0.741647
0.690008
0.636372
0.580875
0.523794
0.465398
0.406135
0.346481
0.287013
0.228417
0.171378
0.116725
0.0652108
0.0176179
-0.025315
-0.0630141
-0.0949388
-0.12085
-0.140561
-0.154199
-0.162001
-0.164401
-0.161947
-0.155254
-0.145004
-0.131861
-0.116483
-0.099474
-0.0813801
-0.0626829
-0.0437931
-0.0250497
-0.00673728
0.0109204
0.0277579
0.043638
0.0584709
0.0722003
0.0847935
0.0962367
0.106525
0.115678
0.123723
0.130693
0.136618
0.14154
0.145507
0.148561
0.150748
0.152111
0.152699
0.152554
0.151722
0.150238
0.148152
0.145493
0.142303
0.138618
0.134464
0.129878
0.124891
0.119534
0.11383
0.10781
0.101498
0.0949145
0.0880855
0.0810293
0.0737622
0.0663176
0.0586805
0.0508814
0.042898
0.0346842
0.0262344
0.0173118
0.00851545
0.00310112
1.34589
1.20119
1.16527
1.12242
1.0778
1.03847
0.998229
0.957429
0.915138
0.870993
0.824765
0.776233
0.725389
0.672188
0.616771
0.559276
0.499967
0.439185
0.377359
0.315048
0.25286
0.191533
0.131884
0.0747426
0.0210288
-0.0284337
-0.0728164
-0.111454
-0.143805
-0.169544
-0.188555
-0.20096
-0.207064
-0.207382
-0.20253
-0.193235
-0.180244
-0.164313
-0.146158
-0.126442
-0.105756
-0.0846045
-0.0634224
-0.0425621
-0.0223073
-0.00287714
0.0155558
0.032874
0.0489972
0.0638774
0.0774934
0.0898394
0.100927
0.110782
0.119443
0.126951
0.133349
0.138688
0.14302
0.146393
0.14886
0.150467
0.151267
0.151315
0.150643
0.1493
0.147333
0.144782
0.141688
0.138082
0.134002
0.129477
0.124544
0.119234
0.113574
0.107592
0.101311
0.0947576
0.0879556
0.0809247
0.0736815
0.0662492
0.0586277
0.050849
0.0428779
0.0346849
0.0262946
0.0173452
0.00846635
0.00305589
1.33517
1.19048
1.15456
1.11172
1.06704
1.02755
0.987031
0.945801
0.902912
0.857992
0.810756
0.761032
0.708746
0.653892
0.596572
0.536948
0.475301
0.411964
0.347446
0.282298
0.217235
0.153048
0.0906034
0.0308895
-0.0251511
-0.0765556
-0.122421
-0.162021
-0.194729
-0.22026
-0.238449
-0.249499
-0.25376
-0.251832
-0.244432
-0.232371
-0.216499
-0.197645
-0.176598
-0.154072
-0.130696
-0.107011
-0.0834652
-0.0604256
-0.0381749
-0.0169327
0.00313815
0.0219262
0.0393623
0.0554111
0.0700633
0.0833273
0.0952249
0.105797
0.115087
0.12315
0.130034
0.135797
0.140499
0.144196
0.146948
0.148802
0.149817
0.150046
0.14954
0.148341
0.146501
0.144061
0.141058
0.137537
0.13353
0.129073
0.124196
0.118932
0.113314
0.107372
0.101126
0.0945996
0.087819
0.0808116
0.0735893
0.0661792
0.0585702
0.0507979
0.0428334
0.0346214
0.0261657
0.0172644
0.00852378
0.00313552
1.3252
1.18048
1.14452
1.10161
1.05674
1.017
0.976122
0.934382
0.890827
0.84504
0.796757
0.745744
0.691958
0.635349
0.576052
0.514211
0.450114
0.384151
0.316813
0.248757
0.180691
0.113532
0.0482291
-0.0141771
-0.0725913
-0.125986
-0.173351
-0.21388
-0.246936
-0.272165
-0.289459
-0.29904
-0.301342
-0.297055
-0.286987
-0.272059
-0.253202
-0.231338
-0.207317
-0.181913
-0.155799
-0.129537
-0.103599
-0.0783524
-0.0540903
-0.0310249
-0.0093078
0.0109626
0.0297211
0.0469457
0.0626396
0.0768228
0.0895348
0.100823
0.110743
0.119354
0.12672
0.13291
0.137983
0.142001
0.145032
0.147131
0.148364
0.148786
0.148443
0.147388
0.145671
0.143338
0.140433
0.136994
0.13306
0.128662
0.123841
0.118627
0.113051
0.107145
0.10093
0.0944377
0.087686
0.0806985
0.0734989
0.0661028
0.0585057
0.0507498
0.0427852
0.0346034
0.0261524
0.0172362
0.00850835
0.00312401
1.31597
1.17121
1.13514
1.09212
1.04705
1.00699
0.965687
0.923368
0.87907
0.832367
0.78296
0.730623
0.675271
0.616875
0.555532
0.491415
0.424823
0.356148
0.285956
0.214887
0.14379
0.0735997
0.00536954
-0.0597364
-0.120561
-0.175928
-0.224769
-0.266198
-0.299515
-0.32438
-0.340681
-0.348707
-0.348963
-0.342233
-0.329428
-0.31157
-0.289689
-0.264788
-0.237783
-0.209495
-0.18064
-0.151812
-0.123485
-0.0960453
-0.0697838
-0.0449083
-0.021562
0.000164775
0.0202244
0.0386102
0.0553311
0.0704223
0.0839336
0.0959278
0.106466
0.115621
0.123463
0.130065
0.135501
0.139839
0.143153
0.145499
0.146943
0.147543
0.14736
0.146449
0.144855
0.142628
0.139812
0.136455
0.132594
0.128262
0.123496
0.118328
0.112796
0.106927
0.100745
0.0942774
0.0875473
0.0805853
0.0734018
0.0660265
0.0584444
0.0507027
0.0427545
0.0345747
0.0261493
0.0172351
0.00850308
0.00312717
1.30746
1.16265
1.12646
1.08328
1.03792
0.997518
0.955736
0.912827
0.867764
0.82011
0.769563
0.715876
0.658947
0.598736
0.535354
0.468951
0.399848
0.328474
0.255386
0.181347
0.10718
0.0339748
-0.0371641
-0.104967
-0.168158
-0.225466
-0.275727
-0.317991
-0.351515
-0.375936
-0.391188
-0.3976
-0.395764
-0.386565
-0.371013
-0.350232
-0.325343
-0.29743
-0.267471
-0.236344
-0.204797
-0.17345
-0.142797
-0.11322
-0.0850128
-0.0583757
-0.0334452
-0.0102964
0.0110307
0.0305402
0.0482615
0.0642312
0.0785188
0.0911926
0.102331
0.112015
0.120316
0.127322
0.133111
0.137754
0.14133
0.143907
0.145558
0.146341
0.146314
0.145538
0.144065
0.141944
0.13922
0.13594
0.132144
0.127868
0.123157
0.118038
0.112544
0.106708
0.100556
0.0941171
0.0874133
0.0804705
0.0733079
0.0659467
0.0583796
0.0506422
0.0427069
0.0345195
0.0261005
0.0172128
0.00849462
0.00314221
1.29969
1.15482
1.1185
1.07513
1.02951
0.98871
0.946463
0.902892
0.857071
0.80847
0.756778
0.701744
0.643255
0.581257
0.515845
0.447195
0.37562
0.30157
0.22567
0.148668
0.0715309
-0.00464881
-0.0786265
-0.149041
-0.214518
-0.273666
-0.325269
-0.368267
-0.401918
-0.425834
-0.439987
-0.444761
-0.440837
-0.42919
-0.41094
-0.387303
-0.35949
-0.32866
-0.295852
-0.261991
-0.227858
-0.194096
-0.161207
-0.129582
-0.0995113
-0.0711903
-0.0447474
-0.0202461
0.00228613
0.022867
0.0415343
0.0583429
0.0733634
0.086687
0.0983962
0.10858
0.11732
0.124704
0.130826
0.135765
0.139599
0.142404
0.144252
0.145202
0.145322
0.144673
0.143311
0.141289
0.13865
0.135445
0.131715
0.127502
0.12284
0.117764
0.112309
0.106504
0.100382
0.0939701
0.0872878
0.0803689
0.0732187
0.0658755
0.0583204
0.0506038
0.0426839
0.0345333
0.0261461
0.0172107
0.00844877
0.00309776
1.29268
1.14775
1.11128
1.06774
1.02179
0.98063
0.937866
0.893711
0.847104
0.797568
0.744778
0.688449
0.628446
0.564726
0.497377
0.426553
0.352607
0.276004
0.19737
0.117561
0.0375362
-0.0414542
-0.118156
-0.191042
-0.258671
-0.319551
-0.372364
-0.416016
-0.449711
-0.473079
-0.486118
-0.489278
-0.483322
-0.46932
-0.448488
-0.422127
-0.39154
-0.357948
-0.322445
-0.286004
-0.249435
-0.213399
-0.178412
-0.144868
-0.113053
-0.0831582
-0.0552986
-0.0295281
-0.00586531
0.015713
0.0352639
0.0528537
0.068568
0.0824956
0.0947341
0.105381
0.114525
0.122269
0.128708
0.133916
0.137986
0.140998
0.143024
0.144133
0.144391
0.143865
0.142609
0.140678
0.138121
0.134988
0.131322
0.127157
0.12254
0.117504
0.112084
0.106311
0.100215
0.0938248
0.0871638
0.0802612
0.0731264
0.065797
0.0582592
0.0505548
0.0426422
0.0345159
0.026155
0.0172368
0.00842326
0.00306117
1.28647
1.14147
1.10484
1.06112
1.01489
0.973342
0.930123
0.885332
0.838034
0.787644
0.733793
0.676231
0.614813
0.549464
0.480277
0.407423
0.331239
0.252228
0.171057
0.0885903
0.00590378
-0.0757471
-0.15495
-0.230128
-0.299734
-0.36216
-0.416058
-0.460229
-0.493911
-0.51669
-0.528638
-0.530248
-0.522373
-0.506158
-0.482915
-0.454027
-0.420868
-0.38473
-0.346751
-0.307943
-0.269142
-0.231027
-0.194122
-0.158823
-0.125414
-0.094078
-0.0649273
-0.0380064
-0.0133165
0.00918124
0.0295392
0.0478432
0.0641808
0.0786597
0.0913866
0.102462
0.111982
0.120048
0.126768
0.132229
0.136516
0.139717
0.141913
0.143165
0.14355
0.143131
0.141971
0.140122
0.137638
0.134567
0.130955
0.126841
0.122267
0.117271
0.111884
0.106139
0.100066
0.0936997
0.0870616
0.0801764
0.0730537
0.0657393
0.0582077
0.0505133
0.0426167
0.034489
0.0261144
0.0171754
0.00842198
0.00309817
1.28105
1.13601
1.09927
1.05533
1.00884
0.966946
0.923272
0.877967
0.829997
0.778761
0.723964
0.665288
0.60257
0.535746
0.464898
0.390185
0.311984
0.230783
0.147288
0.0624322
-0.0227031
-0.106715
-0.188202
-0.265418
-0.336781
-0.40058
-0.455386
-0.499995
-0.533589
-0.555794
-0.566707
-0.566883
-0.55725
-0.539029
-0.513612
-0.482456
-0.447004
-0.408588
-0.368397
-0.327473
-0.286679
-0.246706
-0.208089
-0.171226
-0.136396
-0.103779
-0.0734728
-0.0455218
-0.0199164
0.00338873
0.0244688
0.0434106
0.0603099
0.0752745
0.0884243
0.0998717
0.10972
0.118077
0.125049
0.130728
0.135208
0.138578
0.140917
0.1423
0.142797
0.142477
0.1414
0.139625
0.137208
0.134195
0.130633
0.12656
0.122024
0.117057
0.111699
0.105982
0.0999306
0.0935805
0.0869559
0.0800842
0.0729769
0.0656709
0.0581507
0.0504653
0.0425708
0.034457
0.0260741
0.0171445
0.0084187
0.00310343
1.27651
1.13139
1.09449
1.05047
1.0037
0.961506
0.91743
0.871628
0.823076
0.77116
0.715511
0.655838
0.591983
0.523854
0.451539
0.375207
0.295213
0.212092
0.126576
0.0396154
-0.0476214
-0.133733
-0.217179
-0.296157
-0.369032
-0.433965
-0.48953
-0.534444
-0.567934
-0.589586
-0.59956
-0.598463
-0.587283
-0.567312
-0.540007
-0.506886
-0.469444
-0.429066
-0.386971
-0.344232
-0.301727
-0.260162
-0.220077
-0.181872
-0.145824
-0.112104
-0.0808129
-0.0519807
-0.0255922
-0.00158888
0.0201014
0.0395817
0.0569591
0.0723506
0.0858705
0.0976422
0.107778
0.116384
0.123574
0.129443
0.134091
0.137603
0.140069
0.141561
0.142155
0.141921
0.140917
0.139203
0.136841
0.133877
0.130356
0.126324
0.121822
0.116883
0.111546
0.105847
0.0998165
0.0934872
0.0868787
0.0800201
0.0729229
0.0656292
0.0581151
0.0504412
0.042556
0.0344441
0.0260826
0.0171488
0.00840994
0.00309326
1.27281
1.12767
1.09068
1.04649
0.999539
0.957075
0.912674
0.866446
0.817408
0.764882
0.708529
0.648042
0.583233
0.514026
0.440494
0.362797
0.281331
0.19661
0.109401
0.0206991
-0.0683206
-0.15613
-0.241223
-0.321639
-0.395745
-0.46162
-0.517719
-0.562867
-0.59623
-0.617401
-0.626583
-0.624411
-0.611941
-0.590518
-0.561656
-0.526919
-0.487852
-0.445863
-0.402209
-0.357976
-0.314065
-0.271192
-0.229901
-0.190592
-0.153543
-0.118927
-0.0868249
-0.0572661
-0.030232
-0.00566083
0.0165369
0.0364648
0.0542415
0.0699755
0.0837936
0.0958249
0.10619
0.115003
0.122368
0.128391
0.133173
0.136804
0.139372
0.140959
0.141629
0.141459
0.140513
0.138853
0.136535
0.13361
0.130125
0.126121
0.121647
0.116732
0.111418
0.105739
0.0997214
0.0934024
0.0868041
0.0799554
0.0728667
0.0655758
0.0580728
0.0503986
0.0425243
0.0344101
0.0260435
0.0171333
0.00840162
0.00309964
1.27002
1.12486
1.08778
1.04349
0.996369
0.953723
0.909045
0.8625
0.813064
0.76009
0.70319
0.642058
0.576517
0.506463
0.431978
0.353238
0.270612
0.184651
0.0961409
0.00608847
-0.0842819
-0.173419
-0.259763
-0.341266
-0.41637
-0.482871
-0.539383
-0.584655
-0.617935
-0.638712
-0.647259
-0.644256
-0.630789
-0.60825
-0.578191
-0.542216
-0.5019
-0.458684
-0.413837
-0.368467
-0.323484
-0.279614
-0.237402
-0.197255
-0.159443
-0.124134
-0.0914159
-0.0613046
-0.0337815
-0.00877429
0.0138082
0.0340747
0.0521482
0.06815
0.0822015
0.0944384
0.104978
0.113941
0.121445
0.127587
0.132473
0.136193
0.138842
0.140492
0.141223
0.141109
0.140211
0.138591
0.136309
0.133414
0.129954
0.125976
0.121516
0.116619
0.111321
0.105653
0.09965
0.0933393
0.0867514
0.0799138
0.072832
0.0655528
0.0580536
0.0503888
0.0425084
0.0343982
0.0260143
0.0170959
0.00841111
0.00311118
1.26816
1.12296
1.08583
1.04147
0.994242
0.951444
0.906607
0.859823
0.810133
0.756836
0.699555
0.638003
0.571955
0.501339
0.426214
0.346748
0.263346
0.176545
0.087136
-0.00383176
-0.0951512
-0.185162
-0.272397
-0.354624
-0.430493
-0.497377
-0.553984
-0.599339
-0.632603
-0.653112
-0.661235
-0.657658
-0.643515
-0.620218
-0.589351
-0.552541
-0.511386
-0.467341
-0.42169
-0.375551
-0.329845
-0.285299
-0.242464
-0.201749
-0.163421
-0.127648
-0.0945126
-0.0640316
-0.0361741
-0.0108732
0.0119687
0.0324645
0.0507397
0.0669149
0.0811229
0.0934941
0.104158
0.113228
0.120823
0.127047
0.132002
0.135786
0.138487
0.140188
0.140959
0.140876
0.140005
0.138412
0.136149
0.133272
0.129833
0.125867
0.121425
0.116542
0.111254
0.105597
0.0995984
0.0932985
0.086716
0.0798795
0.0728023
0.0655221
0.0580305
0.0503667
0.0425005
0.034402
0.0260607
0.0171521
0.00838922
0.00308583
1.26722
1.12202
1.08486
1.04046
0.993184
0.950304
0.905408
0.858434
0.808673
0.755249
0.697726
0.635958
0.56966
0.498743
0.423283
0.343459
0.259652
0.172425
0.0825707
-0.00886157
-0.100637
-0.191114
-0.27877
-0.361378
-0.437666
-0.50478
-0.561239
-0.606738
-0.639995
-0.660365
-0.668272
-0.664409
-0.649919
-0.626242
-0.594965
-0.557733
-0.516151
-0.471688
-0.425633
-0.379112
-0.333044
-0.28816
-0.245016
-0.204015
-0.165426
-0.129417
-0.0960723
-0.0654022
-0.0373796
-0.0119293
0.0110479
0.031662
0.0500359
0.0662994
0.0805845
0.0930264
0.103747
0.112867
0.120511
0.126774
0.131766
0.135578
0.138303
0.140022
0.140818
0.140754
0.139902
0.138321
0.136073
0.133209
0.129774
0.125817
0.121379
0.116502
0.111217
0.105564
0.0995783
0.0932784
0.0866983
0.0798638
0.0727895
0.0655193
0.0580256
0.0503644
0.0424938
0.034387
0.0260203
0.0170949
0.00838826
0.00310587
1.26723
1.12202
1.08485
1.04047
0.993187
0.950302
0.905413
0.858435
0.808682
0.75525
0.697714
0.635962
0.569662
0.498754
0.423298
0.343472
0.259673
0.17244
0.0825853
-0.00884397
-0.100627
-0.191097
-0.278759
-0.361365
-0.437657
-0.504764
-0.561212
-0.606735
-0.639977
-0.660348
-0.668252
-0.664387
-0.649901
-0.626223
-0.594948
-0.557717
-0.516136
-0.471673
-0.425618
-0.379097
-0.333028
-0.288145
-0.245001
-0.204001
-0.165414
-0.129409
-0.096068
-0.0654004
-0.0373741
-0.0119239
0.0110484
0.0316564
0.0500306
0.0662955
0.080583
0.0930243
0.103746
0.112869
0.120512
0.126774
0.131764
0.13558
0.138308
0.140029
0.140823
0.140761
0.139904
0.138324
0.136073
0.133203
0.129772
0.125815
0.12138
0.116503
0.111219
0.105567
0.0995739
0.0932759
0.0866956
0.0798609
0.0727877
0.065509
0.0580186
0.0503596
0.0424888
0.0343886
0.0260306
0.0171163
0.00839079
0.00309295
1.26817
1.12297
1.08584
1.04149
0.994265
0.95146
0.906651
0.859813
0.810155
0.756876
0.699566
0.638016
0.571973
0.501355
0.426219
0.346766
0.263358
0.176563
0.087154
-0.00380387
-0.0951093
-0.185123
-0.272347
-0.354562
-0.430449
-0.497278
-0.553894
-0.599332
-0.632551
-0.653055
-0.661175
-0.657598
-0.643456
-0.620164
-0.5893
-0.552493
-0.511339
-0.467295
-0.421648
-0.375515
-0.329815
-0.285272
-0.24244
-0.201725
-0.1634
-0.12763
-0.0944953
-0.0640149
-0.0361593
-0.0108579
0.0119845
0.0324814
0.05076
0.0669348
0.0811386
0.0935107
0.10417
0.113235
0.120827
0.127047
0.132003
0.135785
0.138486
0.140181
0.140955
0.140872
0.140003
0.13841
0.13615
0.133275
0.12983
0.125866
0.12142
0.116537
0.111248
0.10559
0.0995992
0.0932975
0.0867144
0.0798772
0.0727986
0.0655223
0.058025
0.0503681
0.042491
0.0343878
0.0260157
0.0170903
0.00839107
0.00310417
1.27004
1.12487
1.0878
1.0435
0.996392
0.953736
0.909073
0.862527
0.813085
0.760106
0.703194
0.642084
0.576541
0.506496
0.432017
0.353274
0.270662
0.184701
0.0961919
0.00614891
-0.0842265
-0.173342
-0.259697
-0.341184
-0.416298
-0.482735
-0.539278
-0.584609
-0.617846
-0.638623
-0.647164
-0.644161
-0.630693
-0.608156
-0.578102
-0.542131
-0.501822
-0.458611
-0.41377
-0.368407
-0.323427
-0.279562
-0.237354
-0.19721
-0.159401
-0.124097
-0.0913843
-0.0612768
-0.0337553
-0.00875135
0.0138282
0.0340912
0.0521633
0.0681599
0.0822079
0.094442
0.104986
0.113949
0.12145
0.127592
0.132476
0.1362
0.138847
0.140498
0.141234
0.141119
0.140216
0.138595
0.136308
0.133408
0.129949
0.125969
0.121511
0.116615
0.111317
0.105648
0.0996439
0.0933347
0.0867441
0.0799005
0.0728216
0.0655373
0.0580419
0.0503764
0.0424991
0.0343749
0.026013
0.0171265
0.00842556
0.00312867
1.27283
1.12769
1.0907
1.04652
0.999564
0.957103
0.912719
0.866462
0.81744
0.764929
0.708564
0.648077
0.583271
0.514075
0.440536
0.362854
0.281378
0.196667
0.109465
0.0207664
-0.0682288
-0.156046
-0.241112
-0.321536
-0.395626
-0.461484
-0.517601
-0.562747
-0.596097
-0.617264
-0.626443
-0.624275
-0.61181
-0.590392
-0.561534
-0.526806
-0.487745
-0.445765
-0.402122
-0.357899
-0.313995
-0.271126
-0.229838
-0.190534
-0.153488
-0.118877
-0.0867804
-0.0572252
-0.0301967
-0.00562948
0.0165636
0.0364884
0.0542634
0.0699968
0.0838142
0.0958451
0.106208
0.115016
0.12238
0.128401
0.13318
0.136808
0.139377
0.140959
0.141632
0.14146
0.140517
0.138858
0.136536
0.133609
0.130122
0.12612
0.121639
0.116723
0.111408
0.10573
0.0997165
0.0933967
0.0868004
0.0799514
0.0728584
0.0655701
0.058064
0.0503998
0.0425095
0.0344026
0.0260359
0.0171078
0.00840412
0.00310228
1.27652
1.13142
1.09455
1.05047
1.00373
0.961527
0.917468
0.871663
0.823113
0.771199
0.71554
0.655884
0.592032
0.523912
0.451604
0.375269
0.295297
0.212175
0.126662
0.0397197
-0.0475216
-0.133606
-0.217058
-0.296023
-0.368885
-0.433814
-0.489364
-0.534294
-0.567761
-0.58942
-0.599392
-0.598297
-0.587116
-0.567151
-0.539854
-0.506742
-0.469312
-0.428945
-0.386863
-0.344134
-0.301632
-0.260074
-0.219994
-0.181793
-0.14575
-0.112038
-0.0807551
-0.0519273
-0.0255447
-0.00154732
0.0201427
0.0396172
0.0569906
0.0723765
0.0858921
0.0976594
0.10779
0.116394
0.123582
0.129454
0.134102
0.137615
0.140077
0.141568
0.142165
0.14193
0.140922
0.139209
0.136843
0.133872
0.13035
0.126316
0.121811
0.116875
0.11154
0.10584
0.0998102
0.0934732
0.0868615
0.080004
0.0729072
0.0656091
0.0580977
0.0504205
0.0425357
0.0344269
0.026057
0.0171342
0.00841207
0.00310846
1.28107
1.13605
1.0993
1.05537
1.00887
0.96698
0.923319
0.877992
0.830031
0.778828
0.724023
0.665346
0.602632
0.535822
0.464973
0.390275
0.31207
0.230872
0.147398
0.0625362
-0.0225625
-0.10659
-0.188042
-0.265269
-0.336607
-0.400404
-0.4552
-0.4998
-0.533392
-0.555592
-0.56651
-0.566689
-0.55706
-0.538844
-0.513433
-0.482286
-0.446843
-0.408437
-0.368261
-0.327347
-0.286563
-0.246598
-0.20799
-0.171134
-0.13631
-0.103701
-0.0734037
-0.04546
-0.0198633
0.00343517
0.0245029
0.0434347
0.0603318
0.0752985
0.0884473
0.0998915
0.109743
0.118101
0.125071
0.130746
0.135224
0.138588
0.140927
0.142308
0.142805
0.142482
0.141405
0.139633
0.137209
0.134193
0.130631
0.126559
0.122018
0.117051
0.111689
0.105972
0.0999249
0.0935738
0.0869463
0.0800741
0.0729614
0.0656566
0.0581378
0.0504577
0.0425525
0.0344369
0.0260468
0.0171186
0.00842182
0.00309808
1.28649
1.1415
1.10489
1.06115
1.01492
0.973378
0.930159
0.8854
0.838096
0.787675
0.733835
0.676294
0.614881
0.549543
0.480374
0.407521
0.331353
0.252344
0.171177
0.0887365
0.00604897
-0.0755768
-0.154778
-0.229944
-0.299532
-0.36196
-0.415835
-0.460017
-0.493682
-0.516468
-0.528415
-0.530029
-0.522155
-0.505946
-0.482711
-0.453833
-0.42069
-0.384566
-0.346599
-0.307805
-0.269011
-0.230906
-0.194012
-0.158724
-0.125321
-0.0939901
-0.0648444
-0.0379279
-0.0132455
0.0092424
0.0295954
0.0478913
0.0642274
0.0787039
0.0914183
0.102482
0.111997
0.120065
0.126783
0.132242
0.13653
0.139731
0.141921
0.143173
0.143558
0.143141
0.141978
0.14013
0.137643
0.134568
0.130953
0.126836
0.122258
0.117258
0.111873
0.106127
0.100055
0.0936835
0.0870407
0.080153
0.0730301
0.0657124
0.0581801
0.0504874
0.0425741
0.0344451
0.0260334
0.017118
0.00844723
0.00311842
1.29273
1.14779
1.1113
1.06779
1.02184
0.980662
0.937938
0.89373
0.847159
0.797653
0.744843
0.688528
0.628535
0.564824
0.497477
0.426663
0.35273
0.276119
0.197519
0.117694
0.0377148
-0.0412952
-0.117955
-0.190846
-0.258455
-0.319328
-0.372127
-0.415768
-0.449465
-0.472826
-0.485872
-0.489035
-0.483092
-0.469092
-0.448263
-0.421913
-0.391335
-0.357755
-0.322267
-0.285839
-0.249284
-0.213259
-0.178287
-0.144755
-0.112949
-0.0830583
-0.055206
-0.02945
-0.00579368
0.0157804
0.0353209
0.0529019
0.068607
0.0825291
0.0947611
0.105403
0.114553
0.122297
0.128731
0.133937
0.138005
0.141011
0.143036
0.144143
0.144403
0.143875
0.142618
0.140685
0.138124
0.134988
0.131319
0.127154
0.122532
0.117495
0.112072
0.1063
0.100204
0.0938125
0.0871481
0.0802448
0.0731064
0.0657749
0.0582354
0.0505312
0.0426135
0.0344454
0.0260715
0.0171928
0.00846759
0.00312543
1.29973
1.15487
1.11855
1.07518
1.02955
0.988771
0.946502
0.902986
0.857136
0.808535
0.756837
0.701827
0.643343
0.581352
0.515959
0.447314
0.375755
0.301723
0.225824
0.148846
0.0717125
-0.00445162
-0.0784107
-0.148822
-0.214276
-0.273428
-0.325009
-0.368009
-0.401653
-0.425565
-0.439721
-0.444497
-0.440581
-0.428943
-0.410704
-0.387077
-0.359276
-0.328462
-0.295665
-0.261817
-0.227693
-0.193944
-0.16107
-0.12946
-0.0993976
-0.0710846
-0.0446484
-0.0201549
0.00237022
0.0229438
0.0416011
0.0584042
0.0734203
0.0867337
0.0984326
0.10861
0.117345
0.12473
0.13085
0.135787
0.139617
0.142416
0.144264
0.145215
0.145334
0.144687
0.143323
0.141297
0.138658
0.135449
0.131714
0.127496
0.122829
0.117752
0.112295
0.106488
0.100364
0.0939475
0.0872633
0.0803403
0.0731868
0.0658428
0.058288
0.0505683
0.042643
0.0344794
0.0260756
0.0171474
0.00845488
0.00313458
1.30752
1.1627
1.12648
1.08335
1.03798
0.997577
0.9558
0.912879
0.867835
0.820193
0.769647
0.715968
0.659046
0.598849
0.535477
0.469082
0.400002
0.328613
0.25557
0.181507
0.107389
0.0341702
-0.036938
-0.104734
-0.16791
-0.225208
-0.275459
-0.317711
-0.351235
-0.37565
-0.390908
-0.397319
-0.395499
-0.3863
-0.370757
-0.349987
-0.325111
-0.297213
-0.26727
-0.236157
-0.204627
-0.173292
-0.142655
-0.113092
-0.0848923
-0.0582609
-0.0333345
-0.0101991
0.0111214
0.0306238
0.0483307
0.064292
0.0785699
0.0912384