/*--------------------------------*- C++ -*----------------------------------*\
  =========                 |
  \\      /  F ield         | OpenFOAM: The Open Source CFD Toolbox
   \\    /   O peration     | Website:  https://openfoam.org
    \\  /    A nd           | Version:  11
     \\/     M anipulation  |
\*---------------------------------------------------------------------------*/
FoamFile
{
    format      ascii;
    class       volScalarField;
    location    "0.076";
    object      k;
}
// * * * * * * * * * * * * * * * * * * * * * * * * * * * * * * * * * * * * * //

dimensions      [0 2 -2 0 0 0 0];

internalField   nonuniform List<scalar> 
287084
(
0.381334
0.394289
0.40792
0.419828
0.42815
0.432601
0.434006
0.434097
0.434073
0.434014
0.433982
0.433958
0.434098
0.434256
0.434231
0.434227
0.434206
0.434203
0.434113
0.434045
0.434079
0.434071
0.434197
0.434403
0.434408
0.434407
0.434254
0.434186
0.434246
0.434256
0.434343
0.434398
0.434317
0.43434
0.434343
0.434295
0.434164
0.434109
0.434065
0.434007
0.433876
0.433846
0.433745
0.433742
0.433742
0.433717
0.433709
0.433585
0.433556
0.433438
0.433391
0.433589
0.433774
0.43375
0.433716
0.433656
0.433663
0.433605
0.433407
0.433451
0.433599
0.433573
0.433572
0.433478
0.433647
0.433803
0.433797
0.433794
0.433638
0.433701
0.433766
0.433734
0.433686
0.433593
0.433704
0.433835
0.433777
0.433814
0.433826
0.433807
0.433795
0.433641
0.433703
0.433938
0.433923
0.433891
0.433831
0.433826
0.433759
0.43353
0.381369
0.394263
0.407712
0.419605
0.428019
0.432641
0.434141
0.434202
0.43416
0.434357
0.434541
0.434443
0.434507
0.434533
0.43451
0.434492
0.434308
0.434247
0.434304
0.434316
0.434224
0.434239
0.434615
0.434788
0.434757
0.434763
0.43477
0.434765
0.43469
0.434591
0.434531
0.434354
0.434404
0.434477
0.434324
0.434367
0.434379
0.434323
0.434138
0.43413
0.434269
0.434285
0.434269
0.434116
0.434039
0.434042
0.433978
0.434082
0.434205
0.434175
0.434139
0.434011
0.433996
0.433973
0.433847
0.433784
0.433793
0.433843
0.433814
0.433771
0.433649
0.433692
0.433964
0.433978
0.433965
0.433789
0.433771
0.434
0.434053
0.434015
0.433891
0.433954
0.434151
0.43412
0.434139
0.434071
0.434039
0.434055
0.434054
0.433902
0.433954
0.434006
0.43398
0.433907
0.433928
0.434046
0.433966
0.433977
0.433959
0.433775
0.381373
0.394252
0.407689
0.419623
0.427909
0.432551
0.434355
0.434574
0.434541
0.434551
0.434536
0.434393
0.434429
0.434475
0.434447
0.434418
0.43436
0.434541
0.434624
0.43459
0.434536
0.434431
0.434456
0.43475
0.434793
0.434745
0.434746
0.434723
0.434716
0.434671
0.434668
0.434667
0.434677
0.434629
0.434604
0.434564
0.434538
0.434474
0.434248
0.434208
0.434236
0.434069
0.434132
0.434207
0.434178
0.434173
0.433968
0.433956
0.434176
0.434218
0.434163
0.434161
0.434165
0.434143
0.433984
0.433893
0.43383
0.433794
0.433817
0.43382
0.433744
0.433824
0.433907
0.433889
0.433899
0.433817
0.43403
0.434157
0.434123
0.434152
0.434112
0.434085
0.434057
0.433934
0.433844
0.433824
0.433832
0.433784
0.433829
0.433854
0.433727
0.433689
0.433838
0.433973
0.433885
0.433967
0.43401
0.434005
0.434001
0.433744
0.381349
0.394258
0.407728
0.41955
0.427834
0.432536
0.434398
0.43464
0.434618
0.434527
0.43457
0.43467
0.434674
0.434673
0.434449
0.434454
0.434586
0.434489
0.434579
0.43466
0.434557
0.434571
0.43456
0.434417
0.434468
0.434529
0.434499
0.434492
0.434309
0.434372
0.43463
0.43465
0.434643
0.434645
0.434651
0.434619
0.434614
0.434559
0.434454
0.434362
0.434322
0.434281
0.434243
0.434188
0.434148
0.434022
0.434079
0.434129
0.434077
0.433951
0.433894
0.433984
0.43402
0.433994
0.433999
0.433967
0.433945
0.43385
0.433763
0.433944
0.434082
0.434044
0.434047
0.434017
0.433841
0.433797
0.433913
0.433817
0.433826
0.434039
0.434115
0.434071
0.43408
0.434063
0.433962
0.433848
0.43397
0.434184
0.434108
0.434122
0.434133
0.434133
0.434001
0.434039
0.434106
0.434064
0.433924
0.43392
0.433973
0.433773
0.381343
0.394266
0.407729
0.419476
0.427916
0.432543
0.434111
0.434541
0.434557
0.434521
0.434465
0.434421
0.434525
0.434549
0.434523
0.434504
0.434461
0.434306
0.43437
0.434441
0.434393
0.434392
0.434324
0.434492
0.434598
0.434532
0.434544
0.434523
0.43447
0.434527
0.434584
0.434546
0.434558
0.434528
0.434502
0.434449
0.434254
0.43428
0.434489
0.434473
0.43447
0.434482
0.434482
0.434403
0.434401
0.434358
0.434338
0.434338
0.434336
0.43425
0.434034
0.433962
0.433917
0.433826
0.433823
0.433776
0.433748
0.433642
0.433722
0.433848
0.433805
0.433805
0.433722
0.433731
0.433718
0.433725
0.433626
0.433713
0.433852
0.433797
0.433803
0.433753
0.433947
0.434166
0.434085
0.434155
0.434181
0.434099
0.434116
0.434168
0.434166
0.434141
0.434126
0.434028
0.433811
0.433862
0.43399
0.433979
0.433974
0.43378
0.381348
0.394249
0.407694
0.419569
0.427961
0.432333
0.43384
0.43414
0.434471
0.434513
0.434465
0.434484
0.434459
0.434414
0.434244
0.434195
0.434327
0.434501
0.434492
0.43444
0.434418
0.434408
0.434293
0.434341
0.434483
0.434416
0.434335
0.434438
0.43463
0.434594
0.434585
0.434599
0.434608
0.434547
0.434361
0.434312
0.434333
0.43419
0.434253
0.43434
0.434264
0.434267
0.434269
0.43427
0.434237
0.434175
0.433981
0.433912
0.433986
0.434054
0.434028
0.434021
0.433885
0.433882
0.434014
0.434055
0.43402
0.433965
0.433889
0.433908
0.434005
0.433959
0.433959
0.433951
0.433893
0.433769
0.433913
0.434106
0.434036
0.434089
0.434108
0.434074
0.434032
0.433877
0.43384
0.433832
0.43396
0.434101
0.434034
0.434055
0.434061
0.434046
0.433867
0.433899
0.434055
0.434015
0.434036
0.434045
0.43401
0.433818
0.381329
0.394248
0.407708
0.419552
0.427986
0.432248
0.434069
0.434386
0.43436
0.434362
0.434338
0.434182
0.434219
0.434579
0.434516
0.434523
0.434835
0.434989
0.434927
0.434932
0.434983
0.434992
0.434936
0.434747
0.434773
0.434878
0.434867
0.434872
0.434797
0.434755
0.434673
0.434648
0.434604
0.434462
0.434509
0.43455
0.43452
0.434501
0.434288
0.434342
0.434424
0.434376
0.434276
0.434172
0.434203
0.434236
0.434201
0.434152
0.434104
0.434078
0.434036
0.43388
0.433932
0.433989
0.43394
0.433934
0.433865
0.43386
0.4338
0.433913
0.433993
0.433976
0.433972
0.433872
0.433859
0.433754
0.433833
0.43393
0.433893
0.433809
0.433767
0.433842
0.433907
0.433891
0.433817
0.433913
0.43402
0.434006
0.434021
0.433982
0.433826
0.433866
0.434015
0.434026
0.434022
0.433898
0.433842
0.433945
0.433982
0.433849
0.381346
0.394223
0.407795
0.419498
0.427687
0.432487
0.434556
0.435065
0.435087
0.435089
0.434956
0.43504
0.43511
0.435053
0.43504
0.435047
0.435075
0.43506
0.435044
0.434856
0.434902
0.435021
0.434909
0.434947
0.435004
0.434982
0.43497
0.434981
0.434925
0.434892
0.434879
0.434895
0.434862
0.434826
0.434797
0.43475
0.434663
0.434451
0.434344
0.434487
0.434541
0.434504
0.434443
0.43438
0.434344
0.434256
0.43428
0.434319
0.434293
0.434303
0.434252
0.434033
0.434037
0.434221
0.434231
0.434199
0.434041
0.434117
0.434205
0.434184
0.43422
0.434191
0.434162
0.434132
0.434102
0.434035
0.433861
0.433787
0.433856
0.433804
0.433893
0.434077
0.434067
0.434058
0.433952
0.433873
0.434041
0.434183
0.434171
0.434171
0.434137
0.434109
0.433902
0.433973
0.434119
0.434095
0.434057
0.433993
0.433946
0.433775
0.381341
0.394238
0.407713
0.419581
0.427832
0.432401
0.434153
0.434366
0.434367
0.434366
0.434181
0.434181
0.434604
0.434781
0.43466
0.434724
0.434752
0.434643
0.434764
0.435014
0.434904
0.43498
0.435015
0.434832
0.434902
0.435021
0.434921
0.434966
0.435026
0.435015
0.435036
0.435007
0.434954
0.434839
0.434712
0.434653
0.434568
0.434527
0.434454
0.434264
0.434192
0.434252
0.434232
0.434178
0.43427
0.434339
0.434211
0.43429
0.434338
0.434331
0.434328
0.434224
0.434218
0.434189
0.434146
0.433987
0.433806
0.433892
0.433987
0.433956
0.433908
0.433797
0.433937
0.434041
0.43398
0.433978
0.43398
0.433964
0.433784
0.433882
0.43417
0.43418
0.434151
0.434128
0.434084
0.433982
0.433869
0.434011
0.434231
0.434134
0.434215
0.434255
0.434217
0.434162
0.434038
0.433998
0.433919
0.433888
0.433883
0.433765
0.381382
0.394135
0.40778
0.419593
0.427824
0.432385
0.434015
0.434182
0.43406
0.434061
0.434368
0.434516
0.434482
0.434411
0.434313
0.434364
0.434369
0.434497
0.434622
0.434586
0.434453
0.434437
0.434542
0.434479
0.434558
0.434588
0.43456
0.434487
0.434563
0.434731
0.434651
0.434668
0.434623
0.434505
0.434453
0.43443
0.434386
0.4344
0.434389
0.434382
0.434355
0.434399
0.434394
0.434348
0.434297
0.434115
0.43389
0.433879
0.433884
0.43384
0.433711
0.433746
0.433824
0.433785
0.433712
0.433617
0.433637
0.433645
0.433557
0.433627
0.433948
0.433985
0.433961
0.433963
0.433925
0.433849
0.433666
0.433669
0.433881
0.433905
0.433895
0.433892
0.433773
0.433715
0.433764
0.433778
0.433695
0.433773
0.434034
0.434039
0.434004
0.433888
0.433826
0.43402
0.434156
0.434133
0.434142
0.434116
0.434082
0.433839
0.381359
0.394217
0.40773
0.419528
0.427862
0.432469
0.434099
0.434264
0.434143
0.434229
0.434381
0.434365
0.434318
0.434318
0.434433
0.434302
0.434304
0.434493
0.434485
0.434604
0.434913
0.434916
0.434894
0.434687
0.434711
0.434821
0.434606
0.434653
0.434751
0.434734
0.434726
0.434538
0.434603
0.434731
0.434646
0.434682
0.434687
0.434669
0.434686
0.434676
0.434646
0.434569
0.434384
0.434284
0.434191
0.433994
0.433793
0.433872
0.43401
0.433978
0.433863
0.433913
0.433985
0.433944
0.433808
0.433785
0.433817
0.433813
0.433768
0.43372
0.433879
0.433923
0.433879
0.433733
0.433787
0.433909
0.433914
0.433914
0.433713
0.433737
0.433866
0.43386
0.433788
0.433851
0.43395
0.433951
0.433951
0.433781
0.433751
0.43392
0.43397
0.433877
0.433961
0.434128
0.434093
0.433996
0.433953
0.433964
0.433961
0.433847
0.381329
0.394256
0.407711
0.419545
0.427861
0.432377
0.434249
0.434581
0.434572
0.434537
0.434452
0.434396
0.434502
0.434883
0.434882
0.43482
0.434832
0.434795
0.434729
0.434698
0.434794
0.434876
0.43494
0.434917
0.434772
0.434862
0.435039
0.434983
0.434987
0.434974
0.434956
0.43493
0.43495
0.434903
0.434876
0.434882
0.434879
0.434816
0.434709
0.434565
0.434438
0.434339
0.434234
0.433977
0.433843
0.433871
0.433947
0.433909
0.433778
0.433759
0.433692
0.433765
0.434002
0.433961
0.43401
0.434023
0.434005
0.434028
0.434006
0.433964
0.433933
0.43387
0.433706
0.433645
0.43391
0.434027
0.43402
0.434017
0.433829
0.433891
0.434096
0.434078
0.434044
0.433873
0.433926
0.434035
0.434033
0.43403
0.433811
0.433864
0.434005
0.433991
0.433975
0.433904
0.434025
0.434119
0.434074
0.434072
0.434038
0.433793
0.381351
0.394208
0.407823
0.419454
0.427704
0.432527
0.434494
0.43477
0.434626
0.434671
0.434845
0.434807
0.434791
0.434756
0.434661
0.434698
0.435016
0.435084
0.435036
0.434908
0.434872
0.435012
0.435044
0.434958
0.435037
0.435181
0.435021
0.435103
0.43516
0.43511
0.435137
0.435101
0.435062
0.435018
0.434883
0.434645
0.434578
0.434565
0.434529
0.434469
0.434336
0.43429
0.434261
0.434236
0.434138
0.43404
0.434044
0.434017
0.434132
0.434188
0.434135
0.434144
0.434117
0.434088
0.434004
0.433921
0.433949
0.433961
0.43392
0.433799
0.433871
0.43405
0.433967
0.434039
0.434074
0.434033
0.433963
0.433855
0.433827
0.433767
0.433864
0.43407
0.434062
0.434011
0.433856
0.433806
0.434028
0.434136
0.434096
0.43401
0.433926
0.433983
0.434036
0.434049
0.434011
0.433894
0.433915
0.433966
0.433944
0.433833
0.381358
0.394214
0.407685
0.419601
0.427961
0.432242
0.434005
0.434252
0.434054
0.434109
0.434247
0.434071
0.43415
0.434267
0.434143
0.434102
0.434213
0.434239
0.434354
0.434598
0.434583
0.434523
0.434526
0.434714
0.434875
0.434974
0.434801
0.434879
0.434979
0.434929
0.434922
0.434918
0.434907
0.434861
0.434779
0.434683
0.434597
0.434342
0.434336
0.434393
0.434264
0.434288
0.434369
0.434368
0.434379
0.434327
0.434101
0.434103
0.43423
0.434236
0.434203
0.434158
0.43411
0.433918
0.433932
0.433946
0.433905
0.433788
0.433814
0.433968
0.433971
0.433957
0.433757
0.433799
0.433899
0.433834
0.433827
0.433759
0.43376
0.43375
0.433894
0.434054
0.434071
0.434034
0.433937
0.433919
0.433752
0.433736
0.433916
0.433866
0.433891
0.434154
0.434267
0.434264
0.434259
0.434115
0.434045
0.434096
0.434109
0.43397
0.381347
0.394224
0.407788
0.419511
0.427656
0.432491
0.4346
0.434939
0.434798
0.434852
0.435014
0.434838
0.434882
0.435025
0.434933
0.434953
0.434917
0.434826
0.43481
0.434875
0.434834
0.434908
0.435117
0.435114
0.435084
0.435176
0.435212
0.435088
0.435145
0.435157
0.435093
0.435104
0.435105
0.435097
0.43507
0.435016
0.434957
0.43488
0.434715
0.43459
0.434496
0.43434
0.434007
0.433938
0.434
0.433962
0.43396
0.433962
0.433947
0.43388
0.433811
0.433785
0.433703
0.433791
0.433968
0.433902
0.433932
0.433992
0.433971
0.433928
0.433813
0.433878
0.434083
0.434057
0.433981
0.433952
0.434111
0.434152
0.434102
0.433977
0.433892
0.433973
0.434011
0.43396
0.433827
0.433789
0.434037
0.434126
0.434079
0.433952
0.433892
0.433957
0.433909
0.434007
0.434056
0.434014
0.43388
0.433888
0.433952
0.433758
0.381346
0.394293
0.407687
0.419479
0.427935
0.432296
0.434228
0.43455
0.434534
0.434498
0.434405
0.434456
0.434517
0.434483
0.434369
0.434507
0.434705
0.434679
0.434568
0.434577
0.434678
0.434567
0.434552
0.434726
0.434783
0.434673
0.434778
0.434922
0.434818
0.434815
0.434759
0.434724
0.434599
0.434629
0.434659
0.434608
0.434598
0.434567
0.434529
0.434528
0.43453
0.434502
0.434512
0.434474
0.434439
0.434372
0.434236
0.434013
0.43392
0.433717
0.433671
0.433874
0.433927
0.43388
0.433723
0.433759
0.433963
0.433899
0.434084
0.434417
0.434434
0.434387
0.434201
0.434239
0.434284
0.434119
0.434211
0.434314
0.434295
0.43429
0.434258
0.434246
0.43406
0.434017
0.434021
0.434019
0.433914
0.433948
0.433988
0.433919
0.433835
0.433893
0.434172
0.434166
0.434127
0.433948
0.433983
0.434029
0.433986
0.433853
0.381342
0.394244
0.407778
0.419533
0.427625
0.432386
0.434685
0.435176
0.435181
0.435147
0.434996
0.435075
0.435198
0.435134
0.435146
0.435205
0.435198
0.435129
0.434979
0.434947
0.435065
0.435133
0.435104
0.434944
0.434966
0.435123
0.435091
0.435092
0.435104
0.4351
0.435087
0.435078
0.435043
0.435046
0.435009
0.434937
0.434874
0.434808
0.434742
0.434687
0.434619
0.434494
0.434196
0.434027
0.433936
0.433892
0.433852
0.433831
0.433778
0.433585
0.433534
0.433691
0.433753
0.433724
0.433638
0.433668
0.434036
0.434112
0.434065
0.434063
0.434017
0.43387
0.433881
0.434025
0.434034
0.434024
0.434026
0.434042
0.434032
0.434031
0.433969
0.433832
0.433867
0.434066
0.434084
0.434084
0.43399
0.433896
0.43386
0.433842
0.433974
0.434074
0.434066
0.434066
0.433985
0.433973
0.433943
0.433913
0.433874
0.433742
0.381343
0.394238
0.407755
0.419572
0.427601
0.432447
0.434719
0.435139
0.435012
0.435101
0.435191
0.435162
0.43516
0.434961
0.434999
0.435124
0.434962
0.434937
0.43505
0.435091
0.43503
0.435112
0.435245
0.435098
0.435184
0.43534
0.435298
0.435295
0.435267
0.435265
0.435213
0.435178
0.435152
0.435155
0.435093
0.435043
0.434979
0.434865
0.434698
0.434537
0.434447
0.434332
0.434189
0.434111
0.434045
0.433964
0.433785
0.433626
0.433767
0.433943
0.433959
0.433922
0.433874
0.433807
0.433738
0.433948
0.434075
0.433885
0.433935
0.434108
0.433959
0.434036
0.434201
0.434188
0.434182
0.434082
0.434056
0.434031
0.434017
0.433885
0.433958
0.434213
0.434219
0.434226
0.434235
0.434199
0.434132
0.434115
0.434068
0.434071
0.434026
0.433854
0.433837
0.434043
0.434087
0.434044
0.433868
0.433849
0.433916
0.433762
0.381344
0.394234
0.407803
0.419489
0.427655
0.43246
0.434547
0.435045
0.435036
0.434916
0.434938
0.435039
0.435017
0.435026
0.434975
0.43497
0.434972
0.434895
0.434887
0.43508
0.435161
0.435126
0.434988
0.435039
0.435168
0.435058
0.435059
0.435043
0.435023
0.43503
0.435029
0.434993
0.434983
0.434896
0.4348
0.434557
0.434366
0.434403
0.434463
0.434435
0.434432
0.434397
0.434386
0.434348
0.434285
0.434242
0.434181
0.434062
0.433743
0.433597
0.433747
0.433819
0.433804
0.433799
0.433634
0.433635
0.433995
0.434077
0.433934
0.433986
0.434139
0.433985
0.434061
0.434231
0.434252
0.434215
0.434005
0.434049
0.434105
0.433915
0.433973
0.434093
0.43389
0.433933
0.434101
0.434103
0.434091
0.4339
0.433915
0.434123
0.434173
0.434142
0.43411
0.434079
0.433931
0.433847
0.433885
0.433915
0.43387
0.4337
0.381304
0.394323
0.407721
0.419488
0.427755
0.432493
0.434386
0.434688
0.434665
0.434546
0.434582
0.43468
0.43464
0.43464
0.434566
0.434564
0.434494
0.434616
0.434834
0.434768
0.434771
0.434726
0.43487
0.435211
0.435314
0.435271
0.435297
0.435301
0.43522
0.435192
0.435177
0.43518
0.435155
0.43511
0.435035
0.435003
0.434902
0.434795
0.43471
0.434621
0.434479
0.43439
0.434273
0.434126
0.43402
0.433777
0.43365
0.433639
0.433687
0.433659
0.433489
0.433557
0.434155
0.434294
0.434183
0.434232
0.434486
0.434524
0.434504
0.434498
0.434401
0.434342
0.434303
0.434184
0.434262
0.434335
0.434318
0.434315
0.434232
0.434238
0.434188
0.434264
0.43431
0.434259
0.434078
0.434056
0.434108
0.434049
0.434031
0.434022
0.434041
0.434035
0.434031
0.433943
0.433923
0.4339
0.433807
0.433782
0.433776
0.433658
0.381353
0.394237
0.407714
0.419534
0.427896
0.432435
0.433866
0.43391
0.433927
0.434185
0.434433
0.434427
0.434377
0.434181
0.434166
0.434412
0.434522
0.434496
0.434408
0.434426
0.434862
0.435264
0.435154
0.435262
0.435353
0.435303
0.435277
0.435281
0.435296
0.435272
0.435273
0.435221
0.435176
0.435105
0.434998
0.434771
0.434522
0.434457
0.434406
0.434358
0.43432
0.434286
0.434247
0.434195
0.434092
0.433827
0.433757
0.433785
0.433695
0.43377
0.433843
0.433792
0.43378
0.433754
0.433747
0.433558
0.433547
0.433631
0.433651
0.433654
0.433533
0.433615
0.433672
0.433634
0.433557
0.433501
0.433646
0.433691
0.433675
0.43366
0.433763
0.43384
0.433936
0.434143
0.434121
0.434084
0.433958
0.433884
0.43391
0.433893
0.434017
0.43409
0.434049
0.433912
0.433884
0.43391
0.433733
0.433747
0.433873
0.433718
0.381353
0.394204
0.407833
0.419441
0.427714
0.432532
0.434527
0.434873
0.434867
0.434832
0.434659
0.434642
0.434806
0.434834
0.43488
0.434902
0.434904
0.434903
0.434885
0.434809
0.434863
0.435122
0.435098
0.435189
0.43532
0.435258
0.43528
0.435277
0.435294
0.435258
0.435205
0.435095
0.435005
0.434903
0.434842
0.434787
0.434677
0.434622
0.434566
0.434519
0.434442
0.434386
0.434314
0.434265
0.434217
0.434121
0.433907
0.433642
0.433639
0.433733
0.433709
0.43363
0.433547
0.43384
0.434242
0.434235
0.434166
0.434209
0.434398
0.434334
0.434344
0.434344
0.434241
0.434311
0.434443
0.434394
0.434391
0.434351
0.434304
0.434167
0.434133
0.434039
0.434091
0.43428
0.434192
0.434303
0.434418
0.434259
0.434346
0.434428
0.434431
0.434432
0.434347
0.434232
0.434167
0.434133
0.43402
0.433987
0.433972
0.433783
0.381345
0.394229
0.407777
0.419537
0.427622
0.432537
0.43456
0.434816
0.434936
0.435082
0.434915
0.434978
0.435033
0.435
0.434897
0.434872
0.435048
0.435087
0.435015
0.43509
0.435275
0.435271
0.435244
0.43533
0.435512
0.435355
0.43543
0.435464
0.435386
0.435377
0.435376
0.43538
0.435315
0.435263
0.435164
0.434944
0.434802
0.434693
0.434506
0.434152
0.434074
0.434076
0.434036
0.434039
0.434047
0.434023
0.433826
0.433746
0.433875
0.433944
0.43391
0.433858
0.433718
0.433874
0.434307
0.434504
0.434524
0.434381
0.434475
0.434545
0.434503
0.434361
0.434341
0.434438
0.43439
0.434405
0.434363
0.434252
0.434187
0.434215
0.434178
0.434308
0.434432
0.43426
0.434342
0.434493
0.434469
0.434435
0.434227
0.434272
0.434334
0.434161
0.434235
0.434299
0.434286
0.434277
0.43406
0.434015
0.434003
0.433838
0.381366
0.394219
0.407676
0.419647
0.427801
0.432395
0.434099
0.434348
0.434319
0.434186
0.434243
0.434337
0.434315
0.434243
0.434276
0.434593
0.434552
0.434661
0.435073
0.43509
0.435155
0.43526
0.43524
0.435209
0.435215
0.435176
0.435073
0.435163
0.435232
0.435119
0.435089
0.435091
0.435092
0.435053
0.435059
0.435015
0.434944
0.434819
0.43452
0.434296
0.434189
0.433904
0.433895
0.433949
0.433866
0.433872
0.433799
0.43381
0.433824
0.433804
0.433804
0.433752
0.433658
0.433682
0.433691
0.433539
0.433535
0.43367
0.433626
0.433731
0.433793
0.433777
0.433741
0.433785
0.434055
0.434049
0.434065
0.434092
0.43408
0.433894
0.433931
0.434061
0.434056
0.434061
0.434042
0.434034
0.433999
0.433905
0.433883
0.434017
0.43404
0.434022
0.433999
0.43384
0.433841
0.434013
0.434089
0.43406
0.434006
0.433845
0.381321
0.394277
0.407755
0.419455
0.427826
0.432453
0.434415
0.434707
0.434695
0.43468
0.434652
0.434703
0.4347
0.434789
0.434834
0.434748
0.434742
0.434673
0.434769
0.43495
0.434927
0.43495
0.434881
0.435004
0.435067
0.434966
0.435084
0.435295
0.43528
0.435279
0.435242
0.435168
0.434994
0.434912
0.43484
0.434768
0.434708
0.434644
0.43459
0.434526
0.434392
0.434297
0.434227
0.434146
0.433974
0.433801
0.433665
0.433616
0.433577
0.433521
0.433416
0.433553
0.433748
0.433756
0.433756
0.433653
0.433629
0.43352
0.433421
0.433502
0.433553
0.433649
0.433792
0.433646
0.433721
0.433882
0.433879
0.433878
0.433793
0.433668
0.43374
0.433844
0.43369
0.433772
0.433915
0.433766
0.433704
0.433841
0.433955
0.433915
0.433768
0.433768
0.433954
0.433917
0.433929
0.434052
0.4341
0.43408
0.434051
0.43377
0.381349
0.394214
0.407815
0.419468
0.427693
0.432542
0.434509
0.434786
0.434664
0.43474
0.434956
0.434792
0.434803
0.435048
0.435086
0.435007
0.435105
0.435198
0.435048
0.435136
0.435207
0.435046
0.435107
0.435327
0.435263
0.435353
0.435438
0.435395
0.435425
0.435407
0.435374
0.435335
0.435255
0.435189
0.43508
0.434841
0.434666
0.434574
0.434461
0.43438
0.434319
0.434264
0.434234
0.434204
0.434171
0.434121
0.434013
0.433741
0.433546
0.433606
0.433709
0.433671
0.433535
0.433551
0.433765
0.433779
0.433726
0.433536
0.433536
0.433655
0.433674
0.433701
0.433648
0.433719
0.433703
0.433834
0.43394
0.433938
0.433939
0.433885
0.433879
0.433828
0.433669
0.433721
0.434034
0.434067
0.434025
0.433887
0.433963
0.434032
0.434024
0.434018
0.433768
0.433763
0.433969
0.433986
0.433959
0.433936
0.433889
0.433717
0.381343
0.394238
0.407754
0.419575
0.427601
0.432459
0.434705
0.435177
0.435164
0.435086
0.435023
0.435026
0.434913
0.434995
0.435162
0.434964
0.43495
0.435113
0.435154
0.435088
0.435176
0.435301
0.435146
0.435217
0.435433
0.435362
0.435383
0.435389
0.43536
0.435328
0.435318
0.435258
0.435216
0.435207
0.435175
0.435022
0.434857
0.434714
0.434625
0.434556
0.434496
0.434445
0.434378
0.434336
0.434257
0.434072
0.433999
0.433832
0.433789
0.433765
0.433752
0.433634
0.43362
0.434096
0.434241
0.434339
0.434509
0.434513
0.434514
0.434443
0.434435
0.434338
0.434426
0.434483
0.434373
0.434371
0.434369
0.434328
0.434239
0.434223
0.434156
0.434125
0.43412
0.434163
0.434171
0.434067
0.434045
0.434078
0.434059
0.434151
0.434201
0.434177
0.434164
0.434003
0.434074
0.434185
0.434176
0.434176
0.434109
0.433875
0.381345
0.394229
0.407777
0.419537
0.42762
0.432537
0.434562
0.43482
0.43494
0.435086
0.434904
0.434965
0.435084
0.435074
0.435078
0.434966
0.435021
0.435097
0.435079
0.435101
0.435025
0.43511
0.435367
0.435213
0.435292
0.435464
0.435466
0.435468
0.43544
0.435446
0.435417
0.435364
0.435219
0.435127
0.435046
0.434897
0.434797
0.4347
0.434531
0.434162
0.434077
0.434088
0.434115
0.434118
0.434064
0.434035
0.433812
0.433745
0.433888
0.433941
0.433898
0.433817
0.43371
0.433945
0.434242
0.434109
0.43416
0.434436
0.434451
0.434418
0.434373
0.434305
0.434252
0.434085
0.434099
0.43424
0.434221
0.434239
0.434257
0.434241
0.434072
0.434121
0.434279
0.434152
0.434244
0.434314
0.434213
0.43424
0.434247
0.434209
0.43414
0.434084
0.433894
0.433845
0.433938
0.433876
0.433988
0.434083
0.434033
0.433851
0.381353
0.394202
0.407836
0.419438
0.427719
0.432543
0.434452
0.43493
0.434919
0.434792
0.434844
0.43491
0.434798
0.434743
0.434878
0.435058
0.435015
0.435022
0.435021
0.434925
0.43498
0.435197
0.435205
0.435211
0.435159
0.435158
0.435145
0.435008
0.435
0.435146
0.435151
0.435149
0.435099
0.435086
0.435081
0.435039
0.435006
0.434982
0.434875
0.434627
0.43442
0.434324
0.434237
0.434172
0.434127
0.434036
0.433824
0.43361
0.433698
0.433816
0.433789
0.433747
0.433639
0.433911
0.434235
0.434227
0.434218
0.434191
0.434402
0.4345
0.434465
0.434406
0.434269
0.434347
0.434419
0.434387
0.434393
0.43437
0.434349
0.434231
0.434141
0.434267
0.434346
0.434333
0.434332
0.434289
0.434268
0.43405
0.43402
0.434231
0.434336
0.434306
0.43425
0.434215
0.434184
0.434172
0.434025
0.433999
0.433978
0.433814
0.381359
0.394225
0.407724
0.419545
0.427859
0.432411
0.434069
0.434245
0.43419
0.434152
0.434299
0.434502
0.434452
0.43444
0.434409
0.43431
0.434356
0.434566
0.434574
0.434555
0.434622
0.435064
0.435184
0.435151
0.435036
0.435097
0.435163
0.434967
0.435032
0.435123
0.43512
0.435117
0.435065
0.435064
0.435026
0.434968
0.43479
0.43473
0.434616
0.434347
0.434194
0.434148
0.434109
0.433997
0.434016
0.434043
0.433855
0.433912
0.433973
0.433782
0.433809
0.433957
0.433946
0.433948
0.433939
0.433948
0.433952
0.433915
0.433725
0.433595
0.433766
0.433911
0.433894
0.433886
0.433735
0.433858
0.434041
0.433977
0.434025
0.434033
0.433996
0.433993
0.433872
0.433951
0.434177
0.434001
0.434063
0.434192
0.433998
0.434059
0.434204
0.434181
0.434147
0.43404
0.433973
0.434079
0.434202
0.434202
0.434192
0.433926
0.381355
0.394282
0.407684
0.419492
0.427939
0.432286
0.434211
0.434538
0.434544
0.43454
0.434549
0.434553
0.434497
0.434366
0.434403
0.434652
0.434583
0.434675
0.434729
0.434703
0.434626
0.434663
0.435111
0.435199
0.435173
0.435151
0.435082
0.435043
0.43493
0.434971
0.434984
0.434941
0.434898
0.434842
0.434785
0.434724
0.434597
0.434536
0.43448
0.434407
0.434319
0.434266
0.434209
0.434168
0.434129
0.434089
0.433967
0.433976
0.433991
0.433973
0.433964
0.433808
0.433654
0.433679
0.433711
0.433633
0.433609
0.433723
0.434045
0.434148
0.434134
0.43412
0.433956
0.434012
0.434089
0.434051
0.433972
0.433926
0.43397
0.433902
0.433872
0.434036
0.434126
0.434115
0.434111
0.433942
0.434011
0.43415
0.434134
0.434134
0.434098
0.434077
0.43391
0.433969
0.434041
0.433995
0.433834
0.433822
0.433885
0.433704
0.381346
0.394292
0.407687
0.41948
0.427937
0.4323
0.434228
0.434546
0.434332
0.434327
0.434435
0.434494
0.434462
0.43427
0.434309
0.43472
0.43481
0.434769
0.434622
0.434597
0.434835
0.434873
0.434851
0.434831
0.434982
0.435101
0.435049
0.435045
0.435047
0.435049
0.434975
0.434792
0.434683
0.434634
0.434536
0.434537
0.434533
0.434529
0.434537
0.434497
0.434438
0.434431
0.434385
0.434287
0.434058
0.433885
0.433825
0.433791
0.433732
0.433539
0.433589
0.433796
0.433693
0.433818
0.434203
0.434236
0.43424
0.434169
0.434095
0.434077
0.434028
0.434122
0.434186
0.434179
0.434179
0.434139
0.434081
0.433959
0.434028
0.434159
0.434176
0.43416
0.434166
0.434122
0.433943
0.433955
0.434069
0.434019
0.434046
0.434051
0.434014
0.434018
0.434006
0.434017
0.433986
0.433953
0.433789
0.433845
0.43393
0.433745
0.381344
0.394232
0.40777
0.419544
0.427622
0.432483
0.434649
0.435067
0.435051
0.434927
0.43491
0.435022
0.43492
0.435015
0.435162
0.435139
0.435138
0.435074
0.435069
0.43505
0.435081
0.435053
0.434962
0.435078
0.435261
0.435082
0.435161
0.435247
0.435149
0.435177
0.435177
0.435119
0.434946
0.434835
0.434753
0.434678
0.434622
0.434513
0.434469
0.43442
0.434374
0.434332
0.434253
0.434163
0.433926
0.433842
0.433925
0.433888
0.433863
0.434021
0.434158
0.434106
0.434138
0.434104
0.434052
0.433892
0.433848
0.433921
0.434046
0.434031
0.433985
0.433994
0.434011
0.434021
0.433989
0.433876
0.433918
0.434028
0.434006
0.433937
0.433991
0.434211
0.434202
0.434238
0.434245
0.434208
0.434155
0.434061
0.43407
0.43408
0.434056
0.434046
0.43388
0.433976
0.434124
0.434098
0.434055
0.433989
0.433942
0.433774
0.38134
0.394251
0.407764
0.419564
0.427565
0.432465
0.434631
0.435044
0.435161
0.435128
0.434942
0.435
0.435136
0.435068
0.435072
0.435054
0.43507
0.435064
0.435179
0.43538
0.435378
0.435403
0.435366
0.435177
0.435228
0.435322
0.435223
0.435219
0.435221
0.435191
0.435181
0.435132
0.435095
0.435066
0.434952
0.434891
0.434803
0.434742
0.434672
0.434521
0.434467
0.434429
0.434355
0.434185
0.434114
0.434066
0.433988
0.433955
0.433864
0.433834
0.433809
0.433931
0.434054
0.434026
0.433979
0.433909
0.434015
0.43413
0.434114
0.434091
0.434082
0.433981
0.433899
0.433936
0.433917
0.433997
0.434189
0.434104
0.434215
0.434298
0.434294
0.434293
0.434108
0.434146
0.434335
0.434344
0.434313
0.434299
0.434258
0.434168
0.434162
0.434118
0.43409
0.434053
0.434008
0.433878
0.433908
0.433958
0.43391
0.43375
0.381312
0.3943
0.407761
0.419444
0.427758
0.432547
0.434308
0.434549
0.43455
0.434573
0.434539
0.434389
0.434424
0.434448
0.434308
0.434402
0.434617
0.434624
0.434629
0.43454
0.434664
0.434754
0.434865
0.434981
0.434857
0.434927
0.434952
0.434895
0.434755
0.434685
0.43477
0.434797
0.434743
0.434532
0.434548
0.434569
0.43447
0.434466
0.434464
0.434423
0.434393
0.434385
0.434303
0.434087
0.433904
0.433765
0.433729
0.433723
0.433592
0.433651
0.433883
0.433876
0.433911
0.433923
0.433894
0.433879
0.433731
0.433814
0.434144
0.434042
0.434135
0.434206
0.434127
0.434149
0.434111
0.433968
0.434009
0.434134
0.43403
0.434022
0.434019
0.433899
0.433927
0.434051
0.433938
0.433888
0.434005
0.434108
0.43407
0.433937
0.434001
0.434126
0.433993
0.43405
0.434071
0.434037
0.433942
0.433972
0.434013
0.433821
0.381346
0.394226
0.407785
0.419511
0.427673
0.432446
0.434621
0.435088
0.43511
0.435111
0.434946
0.43503
0.435131
0.43494
0.434915
0.43497
0.434855
0.434914
0.435106
0.434948
0.434954
0.435082
0.435011
0.435125
0.435295
0.435281
0.435286
0.435229
0.435185
0.435114
0.434888
0.434892
0.434912
0.434812
0.434811
0.434818
0.434816
0.434741
0.434676
0.434595
0.434485
0.434408
0.434304
0.434112
0.434004
0.433954
0.433861
0.433806
0.433697
0.433612
0.433832
0.43407
0.434066
0.434073
0.434013
0.433887
0.433923
0.43397
0.433892
0.433894
0.433852
0.433827
0.43379
0.433864
0.433918
0.433768
0.433844
0.433927
0.43379
0.433761
0.433979
0.43421
0.434204
0.434211
0.434183
0.434105
0.434071
0.43406
0.434023
0.43399
0.433905
0.43398
0.434097
0.434029
0.434025
0.434016
0.433848
0.433885
0.433961
0.433753
0.38135
0.39422
0.407712
0.419583
0.427884
0.432401
0.433929
0.434081
0.433989
0.434088
0.434399
0.4344
0.434367
0.434276
0.434219
0.434433
0.434637
0.434508
0.434496
0.434755
0.4349
0.434762
0.434832
0.435098
0.435013
0.435123
0.435293
0.435285
0.435282
0.435206
0.435196
0.435134
0.435086
0.434993
0.434769
0.434676
0.434626
0.434556
0.434445
0.434441
0.434443
0.434412
0.434408
0.434378
0.434336
0.434107
0.433982
0.434092
0.434149
0.434072
0.43409
0.434096
0.43405
0.433865
0.433767