/*--------------------------------*- C++ -*----------------------------------*\
  =========                 |
  \\      /  F ield         | OpenFOAM: The Open Source CFD Toolbox
   \\    /   O peration     | Website:  https://openfoam.org
    \\  /    A nd           | Version:  11
     \\/     M anipulation  |
\*---------------------------------------------------------------------------*/
FoamFile
{
    format      ascii;
    class       volScalarField;
    location    "0.076";
    object      nut;
}
// * * * * * * * * * * * * * * * * * * * * * * * * * * * * * * * * * * * * * //

dimensions      [0 2 -1 0 0 0 0];

internalField   nonuniform List<scalar> 
287084
(
0.000835998
0.000865167
0.000896499
0.000924488
0.000944547
0.00095582
0.000959918
0.000960741
0.000961055
0.000961116
0.000961113
0.000961058
0.000961348
0.000961668
0.000961574
0.000961506
0.00096139
0.000961306
0.000961028
0.000960805
0.000960816
0.000960742
0.000960978
0.000961399
0.000961403
0.000961397
0.000961069
0.000960935
0.00096109
0.000961157
0.000961433
0.000961685
0.000961729
0.000962023
0.000962256
0.000962362
0.000962278
0.000962357
0.000962456
0.000962516
0.000962405
0.000962509
0.000962445
0.000962586
0.000962718
0.000962783
0.00096287
0.000962686
0.000962698
0.000962505
0.000962457
0.000962919
0.000963339
0.00096329
0.000963213
0.000963075
0.000963073
0.000962927
0.000962464
0.000962544
0.000962859
0.000962781
0.000962755
0.000962526
0.000962873
0.000963194
0.000963156
0.000963111
0.000962726
0.00096284
0.000962968
0.000962857
0.000962714
0.000962491
0.000962719
0.000963
0.000962852
0.000962915
0.000962927
0.000962867
0.000962825
0.000962472
0.00096259
0.000963095
0.00096305
0.00096295
0.000962789
0.000962755
0.000962598
0.000962046
0.00118171
0.00122168
0.00126378
0.00130113
0.0013278
0.00134268
0.0013477
0.00134813
0.00134814
0.00134883
0.00134942
0.00134908
0.00134924
0.00134924
0.00134908
0.00134892
0.00134823
0.00134792
0.00134799
0.00134792
0.00134754
0.00134751
0.00134861
0.00134911
0.00134901
0.00134903
0.00134907
0.00134913
0.00134903
0.00134885
0.00134882
0.00134848
0.00134885
0.00134933
0.00134911
0.0013495
0.00134981
0.00134991
0.00134961
0.00134985
0.00135054
0.00135083
0.001351
0.00135073
0.00135068
0.00135086
0.00135081
0.00135126
0.00135175
0.00135175
0.00135172
0.00135138
0.00135138
0.00135134
0.00135098
0.00135079
0.00135081
0.00135095
0.00135084
0.00135067
0.00135027
0.00135039
0.0013512
0.00135122
0.00135114
0.00135055
0.00135046
0.00135114
0.00135127
0.00135112
0.0013507
0.00135087
0.00135146
0.00135134
0.00135137
0.00135114
0.00135102
0.00135104
0.00135102
0.00135052
0.00135065
0.0013508
0.00135069
0.00135043
0.00135048
0.00135083
0.00135057
0.0013506
0.00135054
0.00134995
0.00118176
0.00122184
0.00126394
0.00130146
0.00132773
0.00134261
0.00134851
0.00134938
0.00134938
0.00134946
0.00134941
0.00134893
0.00134898
0.00134904
0.00134885
0.00134864
0.00134834
0.00134878
0.00134893
0.00134871
0.00134844
0.00134803
0.00134804
0.00134892
0.00134903
0.0013489
0.00134896
0.00134897
0.00134906
0.00134907
0.00134923
0.00134942
0.00134968
0.00134976
0.00134994
0.00135009
0.00135028
0.00135037
0.00134994
0.00135009
0.00135043
0.00135016
0.00135058
0.00135103
0.00135112
0.00135128
0.00135079
0.00135087
0.00135167
0.00135189
0.00135179
0.00135185
0.00135191
0.00135187
0.00135139
0.00135112
0.00135094
0.00135082
0.00135088
0.00135086
0.00135059
0.00135082
0.00135106
0.00135096
0.00135097
0.00135068
0.0013513
0.00135166
0.00135153
0.00135159
0.00135144
0.00135133
0.00135122
0.00135081
0.0013505
0.00135041
0.00135041
0.00135024
0.00135036
0.00135042
0.00135
0.00134986
0.0013503
0.00135071
0.00135042
0.00135066
0.00135079
0.00135076
0.00135075
0.00134991
0.00118171
0.00122198
0.00126429
0.00130158
0.00132792
0.00134298
0.00134902
0.00134989
0.00134985
0.00134954
0.00134962
0.00134985
0.00134978
0.00134967
0.00134885
0.00134874
0.00134902
0.00134858
0.00134874
0.00134887
0.00134845
0.0013484
0.0013483
0.00134782
0.00134796
0.00134816
0.00134812
0.00134818
0.00134773
0.00134807
0.00134906
0.00134933
0.00134954
0.0013498
0.00135009
0.00135027
0.00135054
0.00135066
0.00135062
0.00135061
0.00135075
0.00135088
0.00135099
0.00135103
0.00135109
0.00135087
0.00135119
0.00135148
0.00135142
0.00135112
0.00135101
0.00135135
0.0013515
0.00135145
0.00135148
0.00135139
0.00135132
0.00135102
0.00135074
0.00135128
0.00135169
0.00135155
0.00135152
0.0013514
0.00135082
0.00135065
0.00135098
0.00135065
0.00135064
0.00135127
0.00135148
0.00135131
0.0013513
0.00135122
0.00135088
0.00135049
0.00135085
0.00135149
0.00135123
0.00135126
0.00135127
0.00135125
0.00135082
0.00135092
0.00135112
0.00135098
0.00135053
0.00135051
0.00135067
0.00134999
0.00118171
0.0012221
0.00126442
0.00130151
0.00132835
0.00134317
0.00134828
0.0013497
0.00134975
0.00134959
0.00134934
0.00134911
0.00134933
0.00134928
0.00134907
0.00134886
0.00134859
0.00134797
0.00134803
0.00134813
0.00134787
0.00134777
0.00134748
0.00134796
0.00134827
0.00134808
0.00134816
0.00134819
0.00134814
0.00134848
0.00134885
0.00134895
0.00134924
0.00134942
0.00134962
0.00134976
0.00134946
0.00134984
0.00135079
0.00135103
0.00135129
0.00135158
0.00135182
0.00135178
0.00135197
0.001352
0.00135208
0.00135221
0.00135231
0.00135212
0.00135152
0.00135134
0.00135124
0.00135098
0.00135099
0.00135085
0.00135075
0.00135041
0.00135064
0.00135102
0.00135086
0.00135083
0.00135054
0.00135053
0.00135045
0.00135044
0.0013501
0.00135033
0.00135073
0.00135053
0.00135051
0.00135032
0.0013509
0.00135155
0.00135127
0.00135146
0.00135151
0.00135123
0.00135126
0.0013514
0.00135137
0.00135128
0.00135121
0.00135089
0.0013502
0.00135035
0.00135074
0.00135069
0.00135067
0.00135002
0.00118172
0.00122207
0.00126436
0.00130189
0.00132862
0.00134268
0.00134759
0.00134859
0.0013496
0.00134966
0.0013494
0.00134934
0.00134913
0.00134885
0.00134817
0.00134787
0.00134813
0.00134851
0.00134834
0.00134804
0.00134785
0.00134772
0.00134728
0.00134737
0.00134779
0.0013476
0.0013474
0.00134782
0.00134854
0.00134861
0.00134878
0.00134906
0.00134935
0.00134945
0.00134918
0.00134935
0.00134974
0.00134961
0.00135012
0.00135069
0.00135074
0.00135101
0.00135126
0.00135147
0.00135156
0.00135154
0.00135108
0.00135098
0.00135131
0.00135161
0.00135159
0.00135161
0.00135122
0.00135123
0.00135165
0.00135178
0.00135166
0.00135147
0.00135121
0.00135124
0.00135151
0.00135134
0.0013513
0.00135124
0.00135102
0.0013506
0.00135101
0.00135157
0.00135132
0.00135145
0.00135147
0.00135133
0.00135117
0.00135065
0.00135051
0.00135046
0.00135083
0.00135124
0.00135101
0.00135105
0.00135105
0.00135099
0.00135041
0.00135049
0.00135097
0.00135083
0.00135089
0.0013509
0.00135079
0.00135013
0.00118167
0.00122209
0.00126445
0.0013019
0.00132878
0.0013425
0.00134839
0.00134943
0.00134931
0.00134923
0.00134904
0.00134841
0.00134838
0.00134935
0.00134899
0.00134884
0.00134964
0.00134995
0.0013496
0.00134947
0.00134949
0.00134941
0.00134915
0.0013485
0.00134856
0.0013489
0.00134892
0.00134903
0.00134894
0.00134899
0.00134896
0.00134915
0.00134929
0.00134917
0.00134965
0.00135012
0.00135037
0.00135065
0.00135031
0.0013508
0.00135134
0.00135147
0.0013514
0.0013513
0.00135158
0.00135185
0.00135189
0.00135185
0.00135179
0.00135179
0.00135171
0.00135127
0.00135145
0.00135164
0.00135149
0.00135146
0.00135123
0.00135119
0.00135098
0.0013513
0.00135152
0.00135143
0.00135138
0.00135102
0.00135094
0.00135058
0.00135078
0.00135104
0.00135089
0.00135059
0.00135042
0.00135062
0.00135079
0.00135071
0.00135044
0.00135072
0.00135102
0.00135095
0.00135098
0.00135083
0.00135032
0.00135043
0.00135088
0.00135089
0.00135087
0.00135047
0.00135028
0.00135059
0.0013507
0.00135023
0.00118172
0.00122202
0.00126474
0.00130177
0.0013279
0.0013433
0.00134997
0.00135161
0.00135163
0.00135153
0.00135098
0.00135109
0.00135114
0.00135079
0.00135057
0.0013504
0.00135031
0.00135008
0.00134985
0.00134911
0.0013491
0.00134935
0.00134891
0.00134896
0.00134911
0.00134905
0.00134908
0.00134922
0.0013492
0.0013493
0.0013495
0.00134983
0.00135004
0.00135028
0.00135054
0.00135077
0.00135087
0.00135057
0.00135058
0.00135136
0.00135184
0.001352
0.00135206
0.00135209
0.00135217
0.00135206
0.00135228
0.00135251
0.00135252
0.00135261
0.0013525
0.00135185
0.00135188
0.00135246
0.00135248
0.00135237
0.00135185
0.00135206
0.0013523
0.0013522
0.00135227
0.00135214
0.001352
0.00135187
0.00135173
0.00135148
0.00135089
0.00135062
0.00135079
0.00135059
0.00135083
0.00135137
0.0013513
0.00135124
0.00135088
0.0013506
0.00135109
0.00135151
0.00135145
0.00135142
0.0013513
0.00135119
0.00135053
0.00135073
0.00135117
0.00135108
0.00135095
0.00135074
0.00135059
0.00135
0.00118171
0.00122208
0.0012645
0.00130206
0.00132839
0.00134307
0.00134876
0.00134947
0.00134942
0.0013493
0.00134857
0.00134841
0.00134955
0.0013499
0.00134933
0.00134933
0.00134921
0.00134868
0.00134886
0.00134946
0.00134896
0.00134906
0.00134906
0.00134843
0.00134861
0.001349
0.00134875
0.001349
0.00134936
0.00134954
0.00134987
0.00135009
0.00135028
0.00135029
0.00135028
0.0013505
0.00135064
0.0013509
0.00135104
0.0013508
0.00135089
0.00135137
0.00135157
0.00135163
0.00135211
0.00135249
0.00135222
0.00135257
0.0013528
0.00135284
0.00135287
0.00135257
0.00135255
0.00135246
0.00135231
0.00135179
0.0013512
0.00135143
0.00135169
0.00135155
0.00135135
0.00135095
0.00135134
0.00135162
0.00135138
0.00135133
0.00135129
0.00135119
0.00135059
0.00135085
0.00135171
0.0013517
0.00135157
0.00135147
0.0013513
0.00135095
0.00135056
0.00135098
0.00135164
0.00135132
0.00135155
0.00135165
0.00135151
0.00135132
0.00135092
0.00135078
0.00135053
0.00135042
0.00135039
0.00134997
0.00118183
0.00122176
0.00126471
0.00130211
0.00132838
0.00134305
0.00134835
0.00134892
0.00134848
0.00134835
0.00134915
0.00134943
0.00134913
0.0013487
0.00134818
0.00134812
0.00134792
0.0013481
0.00134828
0.00134798
0.00134739
0.00134719
0.0013474
0.00134713
0.00134734
0.00134744
0.00134743
0.00134732
0.00134775
0.00134851
0.00134856
0.00134895
0.00134919
0.00134923
0.00134949
0.00134985
0.00135014
0.0013506
0.00135096
0.00135131
0.00135156
0.001352
0.00135225
0.00135234
0.00135237
0.00135196
0.00135139
0.00135146
0.00135155
0.00135146
0.00135108
0.0013512
0.00135145
0.00135131
0.00135106
0.00135073
0.00135076
0.00135074
0.00135041
0.00135058
0.00135153
0.00135159
0.00135146
0.00135141
0.00135124
0.00135096
0.00135034
0.0013503
0.00135091
0.00135094
0.00135087
0.00135082
0.00135041
0.00135019
0.00135031
0.00135032
0.00135003
0.00135025
0.00135103
0.00135103
0.0013509
0.00135051
0.0013503
0.00135088
0.00135129
0.00135121
0.00135122
0.00135113
0.00135101
0.0013502
0.00118176
0.00122202
0.00126456
0.00130191
0.00132851
0.00134332
0.00134863
0.00134918
0.00134873
0.00134886
0.00134917
0.00134892
0.00134857
0.00134835
0.00134848
0.00134784
0.0013476
0.00134796
0.00134771
0.00134787
0.00134863
0.00134848
0.00134828
0.00134755
0.00134759
0.00134794
0.00134735
0.00134764
0.00134815
0.00134836
0.00134865
0.00134844
0.00134906
0.00134991
0.00135011
0.00135069
0.00135116
0.00135155
0.00135203
0.00135239
0.00135265
0.00135272
0.00135242
0.00135234
0.00135224
0.00135178
0.00135128
0.00135161
0.00135211
0.00135205
0.00135171
0.00135187
0.00135208
0.00135193
0.00135147
0.00135135
0.00135141
0.00135134
0.00135114
0.00135093
0.00135137
0.00135145
0.00135125
0.00135074
0.00135085
0.00135118
0.00135114
0.00135109
0.00135041
0.00135044
0.0013508
0.00135074
0.00135047
0.00135063
0.0013509
0.00135087
0.00135084
0.00135028
0.00135016
0.00135066
0.0013508
0.00135048
0.00135072
0.00135122
0.0013511
0.00135078
0.00135064
0.00135066
0.00135064
0.00135023
0.00118167
0.00122214
0.0012645
0.00130197
0.00132851
0.00134305
0.00134909
0.00135017
0.00135006
0.00134981
0.00134936
0.00134898
0.00134909
0.00135003
0.00134978
0.00134933
0.00134911
0.00134875
0.0013483
0.00134797
0.00134806
0.00134814
0.00134819
0.00134803
0.00134754
0.00134783
0.00134847
0.00134844
0.00134868
0.00134893
0.00134923
0.00134956
0.00135008
0.00135042
0.00135084
0.00135136
0.00135186
0.00135214
0.00135226
0.00135222
0.00135219
0.00135221
0.00135216
0.00135159
0.00135137
0.0013516
0.00135196
0.00135192
0.00135157
0.00135153
0.00135133
0.00135155
0.00135227
0.0013521
0.00135221
0.0013522
0.00135208
0.00135209
0.00135196
0.00135176
0.0013516
0.00135134
0.00135076
0.00135051
0.00135127
0.00135158
0.0013515
0.00135143
0.00135079
0.00135094
0.00135153
0.00135143
0.00135128
0.00135071
0.00135084
0.00135114
0.00135111
0.00135106
0.00135035
0.00135049
0.00135091
0.00135084
0.00135077
0.00135053
0.00135089
0.00135117
0.00135101
0.001351
0.00135088
0.00135006
0.00118174
0.00122199
0.00126485
0.00130168
0.00132802
0.00134351
0.00134985
0.00135075
0.00135021
0.0013502
0.00135055
0.00135021
0.00134992
0.00134956
0.001349
0.00134884
0.00134955
0.00134949
0.00134908
0.00134843
0.00134809
0.00134833
0.00134828
0.00134791
0.0013481
0.00134857
0.00134817
0.00134859
0.00134901
0.00134918
0.00134965
0.00134999
0.00135037
0.00135076
0.00135089
0.0013507
0.00135103
0.0013515
0.00135187
0.00135211
0.00135208
0.00135227
0.00135246
0.00135262
0.0013525
0.00135235
0.00135247
0.00135246
0.00135286
0.00135305
0.00135288
0.00135288
0.00135276
0.00135263
0.0013523
0.00135198
0.001352
0.00135197
0.00135177
0.00135132
0.00135147
0.00135196
0.00135163
0.00135178
0.00135182
0.00135163
0.00135135
0.00135096
0.00135081
0.00135058
0.00135083
0.00135142
0.00135136
0.00135115
0.00135063
0.00135044
0.0013511
0.0013514
0.00135125
0.00135095
0.00135067
0.00135082
0.00135097
0.00135099
0.00135085
0.00135047
0.00135052
0.00135067
0.00135059
0.00135019
0.00118176
0.00122201
0.00126442
0.00130214
0.00132882
0.00134262
0.00134833
0.00134912
0.00134841
0.00134842
0.00134864
0.00134786
0.00134786
0.00134795
0.00134728
0.00134687
0.00134691
0.0013467
0.00134677
0.00134726
0.00134698
0.00134657
0.00134642
0.00134689
0.00134734
0.00134766
0.00134723
0.00134766
0.00134824
0.00134844
0.00134884
0.00134932
0.00134983
0.00135027
0.0013506
0.00135089
0.0013512
0.00135095
0.00135144
0.00135207
0.00135207
0.00135249
0.00135303
0.00135326
0.00135348
0.00135346
0.00135285
0.00135292
0.00135335
0.00135338
0.00135325
0.00135308
0.00135288
0.00135222
0.0013522
0.00135217
0.00135196
0.00135151
0.00135151
0.00135191
0.00135184
0.00135172
0.00135102
0.00135108
0.00135132
0.00135105
0.00135096
0.00135068
0.00135063
0.00135054
0.00135094
0.00135139
0.0013514
0.00135124
0.0013509
0.0013508
0.00135025
0.00135016
0.0013507
0.00135051
0.00135057
0.00135136
0.00135169
0.00135166
0.00135163
0.00135116
0.00135093
0.00135108
0.00135111
0.00135062
0.00118172
0.00122204
0.00126474
0.00130186
0.00132787
0.00134338
0.00135016
0.00135124
0.00135069
0.00135069
0.00135098
0.00135019
0.00135006
0.00135021
0.00134963
0.00134938
0.00134896
0.00134836
0.001348
0.00134792
0.00134753
0.00134753
0.001348
0.00134786
0.00134772
0.00134803
0.00134825
0.00134807
0.00134854
0.00134896
0.00134923
0.0013498
0.0013504
0.00135099
0.00135155
0.00135202
0.00135244
0.00135278
0.0013528
0.00135289
0.00135301
0.00135288
0.00135213
0.00135215
0.00135253
0.00135254
0.00135263
0.00135268
0.00135266
0.00135244
0.0013522
0.00135207
0.00135175
0.00135195
0.00135242
0.00135213
0.00135214
0.00135224
0.00135208
0.00135186
0.00135141
0.00135153
0.00135209
0.00135193
0.00135161
0.00135145
0.00135188
0.00135194
0.00135172
0.00135127
0.00135095
0.00135115
0.00135122
0.00135102
0.00135056
0.00135041
0.00135114
0.00135139
0.00135121
0.00135079
0.00135057
0.00135075
0.00135058
0.00135087
0.001351
0.00135085
0.00135042
0.00135043
0.00135062
0.00134996
0.00118172
0.00122226
0.00126443
0.00130175
0.00132872
0.00134276
0.00134898
0.00135
0.00134984
0.00134955
0.00134904
0.00134894
0.00134885
0.00134844
0.00134776
0.00134787
0.00134815
0.00134773
0.00134706
0.00134678
0.00134681
0.00134623
0.00134598
0.00134639
0.00134652
0.0013462
0.00134665
0.00134732
0.00134732
0.00134773
0.00134806
0.00134853
0.00134878
0.00134954
0.00135032
0.00135084
0.00135146
0.00135197
0.00135241
0.0013529
0.00135333
0.00135361
0.00135394
0.00135405
0.00135412
0.00135404
0.0013537
0.00135304
0.00135276
0.00135211
0.00135192
0.00135249
0.00135259
0.00135236
0.00135177
0.00135179
0.00135233
0.00135203
0.00135251
0.00135345
0.00135341
0.00135317
0.0013525
0.00135253
0.0013526
0.001352
0.00135222
0.00135247
0.00135235
0.00135227
0.00135211
0.00135202
0.00135139
0.00135121
0.00135118
0.00135113
0.00135077
0.00135084
0.00135093
0.00135069
0.0013504
0.00135055
0.0013514
0.00135136
0.00135122
0.00135065
0.00135074
0.00135088
0.00135073
0.00135026
0.00118171
0.00122211
0.00126471
0.00130192
0.00132775
0.00134303
0.00135039
0.00135192
0.00135183
0.00135153
0.00135082
0.00135081
0.00135089
0.00135037
0.00135007
0.00134991
0.00134953
0.00134897
0.00134816
0.00134773
0.00134779
0.00134774
0.00134745
0.00134681
0.00134682
0.00134734
0.00134738
0.00134762
0.00134801
0.00134845
0.00134895
0.00134955
0.00135012
0.00135084
0.00135146
0.00135195
0.00135244
0.00135288
0.00135325
0.00135359
0.00135382
0.00135381
0.00135317
0.00135288
0.00135277
0.00135275
0.0013527
0.00135266
0.0013525
0.00135186
0.00135165
0.00135207
0.00135218
0.00135199
0.00135162
0.0013516
0.00135264
0.00135278
0.00135252
0.00135241
0.00135217
0.00135161
0.00135155
0.00135191
0.00135185
0.00135174
0.00135167
0.00135165
0.00135155
0.00135148
0.00135123
0.00135075
0.0013508
0.00135137
0.00135139
0.00135135
0.00135101
0.00135068
0.00135054
0.00135045
0.00135084
0.00135112
0.00135108
0.00135105
0.00135078
0.00135073
0.00135062
0.00135051
0.00135038
0.00134992
0.00118171
0.00122209
0.00126463
0.00130204
0.00132767
0.00134321
0.00135048
0.00135179
0.00135127
0.00135135
0.00135138
0.00135101
0.00135069
0.00134974
0.00134951
0.00134954
0.00134866
0.00134821
0.0013482
0.00134798
0.00134747
0.00134745
0.00134764
0.00134704
0.00134725
0.00134776
0.00134778
0.00134803
0.00134832
0.0013488
0.00134923
0.00134979
0.00135043
0.0013512
0.00135177
0.00135237
0.00135289
0.00135321
0.00135329
0.00135332
0.00135349
0.00135351
0.00135337
0.00135335
0.00135332
0.00135318
0.00135268
0.0013522
0.00135263
0.00135314
0.00135312
0.00135292
0.00135267
0.00135236
0.00135203
0.00135257
0.00135285
0.00135214
0.00135218
0.00135261
0.00135204
0.00135218
0.00135259
0.00135245
0.00135235
0.00135195
0.00135179
0.00135164
0.00135152
0.00135104
0.00135121
0.00135195
0.00135191
0.00135189
0.00135187
0.00135171
0.00135146
0.00135138
0.00135119
0.00135117
0.001351
0.00135044
0.00135036
0.00135099
0.00135111
0.00135095
0.00135039
0.00135031
0.00135051
0.00134997
0.00118172
0.00122207
0.00126478
0.00130177
0.00132783
0.00134323
0.00134993
0.00135147
0.00135131
0.00135073
0.00135054
0.00135056
0.00135017
0.00134986
0.00134933
0.00134894
0.00134856
0.00134793
0.00134752
0.00134775
0.00134768
0.00134727
0.00134662
0.00134662
0.00134696
0.00134666
0.00134682
0.00134706
0.0013474
0.00134794
0.00134855
0.00134915
0.00134988
0.00135041
0.00135092
0.00135095
0.00135111
0.00135192
0.00135272
0.00135318
0.00135364
0.00135391
0.00135418
0.00135429
0.00135426
0.00135423
0.00135409
0.00135373
0.00135271
0.0013522
0.00135259
0.00135272
0.00135257
0.00135243
0.00135179
0.00135168
0.00135268
0.00135281
0.00135224
0.00135229
0.00135265
0.00135206
0.00135219
0.00135262
0.0013526
0.00135239
0.00135165
0.00135171
0.00135182
0.00135115
0.00135127
0.00135159
0.0013509
0.00135098
0.00135146
0.00135142
0.00135134
0.00135071
0.00135072
0.00135134
0.00135147
0.00135134
0.00135122
0.0013511
0.00135062
0.00135034
0.00135045
0.00135053
0.00135038
0.00134979
0.00118159
0.00122235
0.00126453
0.00130176
0.00132813
0.00134333
0.00134941
0.00135034
0.00135013
0.00134955
0.00134939
0.0013494
0.00134894
0.00134859
0.00134797
0.00134757
0.00134695
0.00134692
0.0013472
0.00134662
0.00134628
0.00134584
0.00134605
0.00134695
0.00134721
0.00134712
0.00134737
0.00134768
0.00134786
0.00134832
0.00134893
0.00134968
0.0013504
0.0013511
0.0013517
0.00135242
0.00135289
0.00135327
0.00135364
0.00135392
0.00135395
0.00135406
0.001354
0.00135377
0.0013536
0.00135294
0.00135259
0.00135256
0.00135267
0.00135252
0.0013519
0.00135201
0.00135376
0.00135407
0.0013536
0.00135362
0.00135428
0.00135426
0.00135407
0.00135393
0.00135351
0.00135321
0.00135298
0.00135251
0.00135265
0.00135279
0.00135265
0.00135256
0.00135223
0.00135218
0.00135196
0.00135213
0.00135222
0.00135201
0.00135139
0.00135128
0.0013514
0.00135118
0.00135109
0.00135103
0.00135106
0.00135101
0.00135098
0.00135068
0.0013506
0.00135051
0.00135021
0.00135011
0.00135008
0.00134966
0.00118174
0.00122208
0.0012645
0.0013019
0.00132856
0.00134314
0.00134778
0.0013479
0.00134781
0.00134839
0.00134889
0.00134856
0.00134807
0.00134709
0.00134665
0.00134701
0.00134693
0.00134644
0.00134574
0.00134541
0.0013464
0.00134734
0.00134675
0.00134692
0.00134714
0.00134704
0.00134714
0.00134747
0.00134796
0.00134846
0.00134915
0.00134976
0.00135045
0.0013511
0.00135164
0.00135178
0.0013518
0.00135233
0.00135283
0.00135325
0.00135361
0.00135389
0.00135407
0.00135414
0.00135397
0.00135324
0.00135306
0.00135314
0.00135282
0.00135298
0.00135311
0.00135284
0.00135268
0.00135246
0.0013523
0.00135158
0.0013514
0.00135153
0.00135146
0.00135134
0.00135084
0.00135098
0.00135104
0.00135082
0.00135048
0.00135021
0.00135058
0.00135063
0.00135051
0.00135039
0.00135064
0.00135082
0.00135106
0.00135165
0.00135154
0.00135138
0.00135094
0.00135067
0.00135072
0.00135063
0.00135099
0.00135119
0.00135104
0.00135058
0.00135048
0.00135054
0.00134998
0.00135001
0.00135039
0.00134985
0.00118174
0.00122198
0.00126487
0.00130161
0.00132799
0.00134343
0.00134982
0.00135088
0.00135071
0.00135038
0.00134956
0.00134919
0.00134935
0.00134906
0.0013488
0.00134845
0.00134803
0.0013476
0.00134711
0.00134648
0.00134627
0.00134676
0.00134642
0.00134654
0.00134689
0.00134675
0.00134701
0.00134733
0.00134785
0.00134834
0.00134888
0.00134934
0.00134992
0.00135049
0.00135119
0.00135189
0.00135236
0.00135294
0.00135343
0.00135386
0.00135411
0.00135433
0.00135441
0.00135448
0.00135448
0.00135427
0.00135364
0.0013528
0.00135274
0.00135296
0.00135278
0.00135241
0.00135202
0.0013528
0.00135391
0.00135374
0.00135338
0.00135338
0.00135383
0.0013535
0.0013534
0.00135328
0.00135285
0.00135295
0.00135326
0.00135301
0.00135291
0.00135271
0.00135248
0.00135198
0.00135181
0.00135145
0.00135155
0.00135209
0.00135176
0.00135206
0.00135238
0.00135184
0.00135208
0.0013523
0.00135228
0.00135226
0.00135197
0.00135158
0.00135136
0.00135124
0.00135087
0.00135075
0.0013507
0.00135006
0.00118172
0.00122206
0.00126469
0.00130191
0.00132769
0.00134344
0.00134991
0.00135069
0.00135091
0.00135113
0.00135033
0.0013502
0.00135002
0.00134954
0.00134881
0.0013483
0.00134841
0.00134809
0.00134743
0.00134725
0.00134744
0.0013471
0.00134676
0.00134686
0.00134737
0.00134694
0.00134738
0.00134783
0.00134807
0.00134865
0.00134937
0.0013502
0.00135088
0.00135162
0.00135223
0.00135243
0.00135281
0.00135324
0.00135333
0.00135281
0.00135305
0.00135346
0.00135364
0.00135387
0.00135405
0.00135406
0.00135347
0.0013532
0.00135355
0.00135369
0.00135347
0.00135318
0.00135261
0.00135295
0.00135416
0.00135462
0.00135454
0.00135395
0.0013541
0.00135418
0.00135392
0.00135335
0.00135317
0.00135337
0.00135311
0.00135306
0.00135284
0.00135241
0.00135212
0.00135214
0.00135196
0.00135229
0.00135262
0.00135203
0.00135223
0.00135266
0.00135254
0.0013524
0.00135171
0.00135182
0.00135198
0.00135142
0.00135162
0.0013518
0.00135174
0.00135169
0.001351
0.00135084
0.0013508
0.00135023
0.00118179
0.00122203
0.00126438
0.00130225
0.00132826
0.00134299
0.00134847
0.00134922
0.00134898
0.00134833
0.00134822
0.00134819
0.00134776
0.00134715
0.00134683
0.00134739
0.00134682
0.00134671
0.00134755
0.00134719
0.00134701
0.00134699
0.00134668
0.0013464
0.00134636
0.00134631
0.00134619
0.00134682
0.00134753
0.0013478
0.00134845
0.00134928
0.00135018
0.00135098
0.00135193
0.00135268
0.0013533
0.00135368
0.00135343
0.00135332
0.00135348
0.00135299
0.00135326
0.00135365
0.00135354
0.00135364
0.00135345
0.00135346
0.00135344
0.00135329
0.00135318
0.00135289
0.00135246
0.00135239
0.00135227
0.00135164
0.00135147
0.00135175
0.00135147
0.00135166
0.00135172
0.00135155
0.00135131
0.00135134
0.00135207
0.00135196
0.00135192
0.00135191
0.0013518
0.00135114
0.00135119
0.00135153
0.00135145
0.00135141
0.0013513
0.00135123
0.00135108
0.00135075
0.00135064
0.00135103
0.00135107
0.00135098
0.00135089
0.00135037
0.00135035
0.00135087
0.00135109
0.00135098
0.0013508
0.00135024
0.00118165
0.00122221
0.00126463
0.00130165
0.00132833
0.00134317
0.00134945
0.00135034
0.00135014
0.00134986
0.00134949
0.00134932
0.00134895
0.00134883
0.00134856
0.00134785
0.00134739
0.00134672
0.00134658
0.00134672
0.00134626
0.001346
0.00134552
0.00134573
0.00134586
0.00134563
0.00134619
0.00134719
0.00134764
0.00134827
0.0013489
0.00134952
0.00134988
0.00135055
0.00135125
0.00135193
0.00135259
0.00135316
0.00135368
0.00135407
0.00135414
0.00135424
0.00135433
0.0013543
0.00135391
0.00135345
0.00135305
0.00135288
0.0013527
0.00135243
0.00135199
0.00135229
0.00135276
0.00135264
0.00135248
0.00135201
0.00135178
0.00135129
0.00135084
0.00135095
0.00135098
0.00135115
0.00135148
0.00135091
0.00135104
0.00135144
0.00135134
0.00135125
0.0013509
0.00135044
0.00135059
0.00135085
0.00135031
0.00135051
0.00135091
0.0013504
0.00135016
0.00135055
0.00135087
0.00135071
0.00135022
0.00135019
0.00135074
0.00135061
0.00135063
0.00135099
0.00135112
0.00135105
0.00135095
0.00135002
0.00118173
0.00122201
0.00126481
0.00130169
0.00132792
0.00134345
0.00134974
0.00135058
0.00135004
0.00135005
0.00135043
0.0013496
0.00134926
0.00134963
0.00134934
0.00134866
0.00134851
0.00134835
0.00134744
0.00134729
0.00134713
0.00134629
0.00134622
0.00134673
0.00134647
0.00134683
0.00134728
0.0013475
0.00134809
0.00134867
0.00134932
0.00135003
0.00135069
0.00135141
0.001352
0.00135216
0.00135246
0.00135294
0.00135328
0.00135361
0.00135391
0.00135414
0.00135435
0.00135448
0.00135452
0.00135445
0.00135414
0.00135327
0.0013526
0.0013527
0.00135291
0.00135266
0.00135209
0.001352
0.00135251
0.0013524
0.00135208
0.00135134
0.0013512
0.00135143
0.00135136
0.00135131
0.00135103
0.00135114
0.00135098
0.00135129
0.00135153
0.00135144
0.00135136
0.00135111
0.00135103
0.0013508
0.00135025
0.00135035
0.00135128
0.00135134
0.00135116
0.00135069
0.00135089
0.00135107
0.00135101
0.00135097
0.00135016
0.00135012
0.00135075
0.00135078
0.00135068
0.0013506
0.00135044
0.00134985
0.00118171
0.00122209
0.00126462
0.00130202
0.00132763
0.00134319
0.00135036
0.0013518
0.00135161
0.00135113
0.00135065
0.00135034
0.00134962
0.00134948
0.00134959
0.00134854
0.00134805
0.00134811
0.0013478
0.00134718
0.00134707
0.00134712
0.00134638
0.00134643
0.00134704
0.00134689
0.00134715
0.00134752
0.00134793
0.00134845
0.00134916
0.0013498
0.00135057
0.00135146
0.00135228
0.0013527
0.00135303
0.00135335
0.00135376
0.00135413
0.00135444
0.00135467
0.00135477
0.00135486
0.00135476
0.00135427
0.00135407
0.00135353
0.00135333
0.00135317
0.00135302
0.00135252
0.00135234
0.00135368
0.00135398
0.00135414
0.00135452
0.00135438
0.00135424
0.00135388
0.00135373
0.0013533
0.00135345
0.00135352
0.00135307
0.00135296
0.00135287
0.00135265
0.00135229
0.00135217
0.00135189
0.00135173
0.00135165
0.00135173
0.00135171
0.00135134
0.00135122
0.00135129
0.00135119
0.00135144
0.00135157
0.00135146
0.0013514
0.00135087
0.00135108
0.0013514
0.00135136
0.00135135
0.00135113
0.00135034
0.00118172
0.00122206
0.00126469
0.00130191
0.00132769
0.00134344
0.00134992
0.0013507
0.00135092
0.00135115
0.0013503
0.00135016
0.00135018
0.00134976
0.00134937
0.00134859
0.00134833
0.00134812
0.00134763
0.00134728
0.00134667
0.0013466
0.00134714
0.0013465
0.00134668
0.00134728
0.00134749
0.00134783
0.00134823
0.00134886
0.0013495
0.00135015
0.00135058
0.0013512
0.00135186
0.00135228
0.0013528
0.00135326
0.00135341
0.00135284
0.00135306
0.00135349
0.00135389
0.00135412
0.0013541
0.00135409
0.00135343
0.0013532
0.00135359
0.00135368
0.00135343
0.00135305
0.00135258
0.00135317
0.00135395
0.00135339
0.0013534
0.00135412
0.00135402
0.00135379
0.00135352
0.00135318
0.00135289
0.00135227
0.0013522
0.00135255
0.00135239
0.00135237
0.00135234
0.00135222
0.00135162
0.00135171
0.00135214
0.0013517
0.00135193
0.0013521
0.00135174
0.00135179
0.00135177
0.00135162
0.00135137
0.00135117
0.00135056
0.00135038
0.00135065
0.00135044
0.00135077
0.00135106
0.00135089
0.00135027
0.00118174
0.00122197
0.00126488
0.0013016
0.00132801
0.00134346
0.00134959
0.00135106
0.00135087
0.00135025
0.00135013
0.00135002
0.00134933
0.00134878
0.0013488
0.00134894
0.00134837
0.00134797
0.00134754
0.00134683
0.00134664
0.00134699
0.00134676
0.00134661
0.00134639
0.00134644
0.0013466
0.0013465
0.00134694
0.00134799
0.00134871
0.0013495
0.00135021
0.00135106
0.00135194
0.00135267
0.00135339
0.00135406
0.0013544
0.0013542
0.00135404
0.00135413
0.00135417
0.00135419
0.0013542
0.00135401
0.00135338
0.0013527
0.00135292
0.00135321
0.00135303
0.00135278
0.00135231
0.00135302
0.00135389
0.00135372
0.00135355
0.00135332
0.00135384
0.00135402
0.00135378
0.00135347
0.00135293
0.00135306
0.00135319
0.00135299
0.00135292
0.00135276
0.00135262
0.00135218
0.00135183
0.00135216
0.00135235
0.00135225
0.0013522
0.00135202
0.00135191
0.00135119
0.00135106
0.00135169
0.00135199
0.00135186
0.00135166
0.00135153
0.00135142
0.00135136
0.00135089
0.00135079
0.00135072
0.00135015
0.00118176
0.00122204
0.00126453
0.00130194
0.00132845
0.00134306
0.00134841
0.00134894
0.00134862
0.00134828
0.00134847
0.00134879
0.0013483
0.00134789
0.0013474
0.00134669
0.00134642
0.00134665
0.00134626
0.00134581
0.00134566
0.00134671
0.00134684
0.00134658
0.00134616
0.0013464
0.00134679
0.0013465
0.00134714
0.001348
0.00134868
0.00134944
0.00135011
0.00135097
0.00135172
0.00135239
0.00135263
0.00135318
0.00135348
0.00135321
0.00135321
0.00135346
0.00135364
0.00135352
0.00135373
0.00135391
0.00135336
0.00135354
0.00135369
0.00135302
0.00135301
0.00135336
0.00135319
0.00135307
0.0013529
0.00135279
0.00135266
0.00135242
0.00135169
0.00135115
0.00135156
0.0013519
0.00135174
0.0013516
0.00135103
0.00135132
0.00135181
0.00135153
0.0013516
0.00135155
0.00135137
0.0013513
0.00135086