/*--------------------------------*- C++ -*----------------------------------*\
  =========                 |
  \\      /  F ield         | OpenFOAM: The Open Source CFD Toolbox
   \\    /   O peration     | Website:  https://openfoam.org
    \\  /    A nd           | Version:  11
     \\/     M anipulation  |
\*---------------------------------------------------------------------------*/
FoamFile
{
    format      ascii;
    class       volScalarField;
    location    "0.076";
    object      omega;
}
// * * * * * * * * * * * * * * * * * * * * * * * * * * * * * * * * * * * * * //

dimensions      [0 0 -1 0 0 0 0];

internalField   nonuniform List<scalar> 
287084
(
54.9945
55.9314
56.8916
57.6971
58.2363
58.5095
58.5858
58.5887
58.5865
58.5829
58.5832
58.5817
58.5909
58.6004
58.5977
58.5976
58.5985
58.5983
58.5885
58.5848
58.5902
58.5892
58.5974
58.6103
58.6098
58.6094
58.5974
58.5942
58.5992
58.5993
58.6062
58.6093
58.6055
58.6057
58.6059
58.6037
58.5917
58.5873
58.5844
58.5805
58.5717
58.5697
58.5656
58.5659
58.566
58.5641
58.5633
58.5539
58.5521
58.5435
58.5422
58.5586
58.5667
58.5668
58.5667
58.5599
58.5583
58.5547
58.5431
58.5477
58.5574
58.557
58.5571
58.5499
58.562
58.5711
58.5698
58.5695
58.56
58.5642
58.568
58.5652
58.5591
58.5555
58.565
58.5729
58.5703
58.5713
58.5717
58.5701
58.5674
58.559
58.565
58.578
58.5782
58.5781
58.5714
58.5707
58.5663
58.551
54.9973
55.9291
56.8768
57.6825
58.2284
58.5127
58.594
58.5941
58.5933
58.6073
58.6182
58.6125
58.6159
58.6171
58.6151
58.6132
58.5991
58.5971
58.6018
58.6021
58.5975
58.5993
58.626
58.6349
58.6343
58.635
58.6342
58.6312
58.6242
58.6173
58.6139
58.6044
58.609
58.6136
58.6041
58.6064
58.6069
58.6033
58.5906
58.5922
58.6027
58.6017
58.5992
58.5872
58.5842
58.5874
58.5825
58.5892
58.5939
58.594
58.5938
58.5843
58.5844
58.5809
58.5692
58.5673
58.5685
58.569
58.5694
58.5669
58.5585
58.5634
58.5827
58.5822
58.5795
58.5679
58.5687
58.584
58.5858
58.5836
58.5749
58.5805
58.5936
58.5899
58.589
58.5868
58.5868
58.5858
58.5846
58.5759
58.5794
58.5824
58.5807
58.5757
58.5783
58.5866
58.5812
58.5828
58.5799
58.5665
54.9976
55.9282
56.8754
57.6834
58.2205
58.5081
58.6108
58.6202
58.6194
58.6206
58.6175
58.6075
58.6104
58.6132
58.6115
58.6067
58.6049
58.6194
58.6234
58.6206
58.6139
58.6093
58.6137
58.6325
58.6346
58.6307
58.6304
58.6287
58.6286
58.628
58.6286
58.6261
58.6239
58.6205
58.6194
58.6167
58.6146
58.6121
58.5955
58.5954
58.6004
58.5874
58.5916
58.5963
58.5963
58.5961
58.5805
58.5813
58.5959
58.5973
58.5953
58.5957
58.5935
58.5899
58.5781
58.5716
58.5704
58.5704
58.5725
58.5712
58.5656
58.5713
58.5762
58.5744
58.5722
58.5693
58.5866
58.5933
58.5903
58.5901
58.5899
58.5901
58.5859
58.5744
58.5709
58.5711
58.5718
58.5693
58.5708
58.572
58.5619
58.5604
58.5727
58.5806
58.5758
58.5805
58.5827
58.5821
58.5817
58.5645
54.9957
55.929
56.8779
57.6779
58.2158
58.5078
58.6142
58.625
58.6231
58.6168
58.6202
58.6267
58.6266
58.6265
58.6118
58.6135
58.6232
58.6155
58.6212
58.6258
58.62
58.622
58.6194
58.6091
58.613
58.6166
58.614
58.6135
58.6022
58.608
58.6259
58.625
58.6244
58.6247
58.6252
58.6228
58.6227
58.6185
58.6089
58.6027
58.6004
58.5977
58.5952
58.5915
58.5888
58.583
58.5882
58.5911
58.5877
58.5762
58.5747
58.5821
58.5838
58.5817
58.5812
58.5787
58.5753
58.5685
58.5657
58.5807
58.5885
58.5874
58.5879
58.5839
58.5686
58.5681
58.5797
58.5713
58.5725
58.5864
58.5902
58.589
58.5901
58.5867
58.5765
58.5711
58.582
58.5954
58.5911
58.5929
58.591
58.5885
58.5819
58.5851
58.5894
58.5864
58.5768
58.5778
58.5817
58.567
54.9954
55.9296
56.8776
57.6733
58.2219
58.5066
58.5943
58.6165
58.6184
58.6162
58.6098
58.6091
58.6175
58.6182
58.616
58.6119
58.6113
58.6023
58.6066
58.6108
58.6093
58.6096
58.6044
58.6159
58.6215
58.616
58.6146
58.6129
58.6121
58.6171
58.6204
58.6174
58.6165
58.6143
58.614
58.6118
58.5986
58.6022
58.6174
58.616
58.6161
58.6146
58.6145
58.6085
58.6064
58.6062
58.6074
58.6051
58.602
58.5958
58.5809
58.5765
58.5741
58.5679
58.5676
58.5671
58.5674
58.5594
58.5646
58.5725
58.5686
58.5681
58.5645
58.5664
58.5628
58.5614
58.5569
58.5639
58.5726
58.5702
58.5712
58.5672
58.5812
58.5943
58.5896
58.5933
58.5944
58.5905
58.5908
58.5916
58.5932
58.5915
58.5877
58.5797
58.568
58.5734
58.5817
58.5802
58.5799
58.5675
54.9956
55.9283
56.8757
57.6802
58.2236
58.4909
58.5749
58.5901
58.6116
58.6157
58.6119
58.611
58.609
58.6083
58.5953
58.5937
58.6048
58.6154
58.6137
58.6102
58.6112
58.6086
58.6005
58.6047
58.614
58.6076
58.6026
58.6119
58.624
58.6204
58.6202
58.6214
58.6219
58.6184
58.6026
58.6019
58.6064
58.5953
58.5995
58.605
58.6013
58.6024
58.6001
58.5974
58.595
58.5924
58.5781
58.5758
58.5822
58.5863
58.5839
58.5804
58.5739
58.5758
58.583
58.5835
58.5836
58.579
58.5744
58.577
58.5836
58.5816
58.5819
58.579
58.5719
58.5658
58.5784
58.5902
58.5865
58.5887
58.5895
58.5869
58.5809
58.5729
58.5732
58.573
58.581
58.5895
58.5862
58.5884
58.586
58.5826
58.5725
58.5764
58.5872
58.585
58.5852
58.5856
58.584
58.5698
54.9942
55.9283
56.8767
57.679
58.225
58.4861
58.5922
58.6081
58.6073
58.6077
58.6034
58.5928
58.5981
58.6242
58.6178
58.6187
58.6407
58.6486
58.6456
58.6458
58.6469
58.6479
58.6441
58.631
58.6339
58.641
58.6391
58.6365
58.6312
58.6292
58.6236
58.6215
58.621
58.6131
58.616
58.6185
58.616
58.6141
58.601
58.6056
58.6108
58.6072
58.5975
58.5932
58.5962
58.5983
58.5961
58.5901
58.5863
58.5846
58.5843
58.5752
58.5784
58.5819
58.5778
58.5773
58.5721
58.5718
58.5699
58.5778
58.5822
58.5805
58.5797
58.5721
58.5705
58.5657
58.5719
58.5778
58.5752
58.5667
58.5659
58.5722
58.5732
58.5745
58.5713
58.5774
58.5838
58.5823
58.5806
58.5803
58.5711
58.5744
58.5847
58.5843
58.5833
58.5731
58.5708
58.5792
58.5808
58.5728
54.9954
55.9269
56.8826
57.6735
58.2059
58.5061
58.6275
58.6553
58.6548
58.6547
58.6471
58.6526
58.6567
58.6518
58.6514
58.6523
58.6541
58.653
58.6501
58.6386
58.6427
58.6503
58.6437
58.6453
58.6488
58.6481
58.6449
58.6439
58.6428
58.6431
58.64
58.639
58.6365
58.6337
58.6318
58.6285
58.6229
58.6081
58.6042
58.6161
58.6187
58.6155
58.6089
58.6047
58.6038
58.6003
58.6017
58.6041
58.6021
58.6001
58.5985
58.5848
58.5868
58.598
58.5982
58.5981
58.5862
58.5914
58.5967
58.5949
58.5947
58.5943
58.5921
58.5883
58.586
58.5822
58.5696
58.5673
58.5754
58.5707
58.5764
58.5882
58.5864
58.5841
58.5761
58.5729
58.5869
58.595
58.5935
58.5934
58.5906
58.5871
58.5749
58.5813
58.5906
58.5881
58.5828
58.5782
58.5777
58.5673
54.9951
55.9276
56.8772
57.6803
58.2151
58.4977
58.5971
58.6063
58.6055
58.6053
58.5938
58.5955
58.626
58.6347
58.6271
58.6306
58.6319
58.6258
58.6346
58.6505
58.6434
58.6477
58.6493
58.6376
58.6425
58.65
58.6443
58.6464
58.6501
58.6491
58.6482
58.6463
58.6419
58.6337
58.6255
58.6219
58.6164
58.6139
58.6097
58.5963
58.5943
58.6019
58.5972
58.5938
58.6016
58.6056
58.598
58.603
58.6056
58.6048
58.6046
58.5966
58.5961
58.5939
58.59
58.578
58.5683
58.5762
58.5819
58.579
58.5728
58.5679
58.5797
58.5855
58.5828
58.5832
58.5807
58.577
58.567
58.5762
58.5924
58.5943
58.5919
58.5877
58.5868
58.5788
58.5725
58.5849
58.5987
58.5927
58.5975
58.5995
58.5961
58.5894
58.581
58.5785
58.576
58.5764
58.5762
58.5671
54.9977
55.9204
56.8824
57.6808
58.2144
58.496
58.587
58.5936
58.5861
58.5872
58.6088
58.6166
58.6136
58.6057
58.6014
58.6084
58.6082
58.6159
58.6232
58.6206
58.6113
58.6119
58.6199
58.6145
58.6187
58.6199
58.6182
58.6132
58.6196
58.6303
58.6236
58.6227
58.6219
58.6131
58.6112
58.6125
58.6094
58.6111
58.6077
58.6075
58.6076
58.6087
58.6088
58.6051
58.5987
58.5855
58.5737
58.574
58.5745
58.5715
58.5628
58.5658
58.5708
58.5677
58.5599
58.5559
58.5579
58.5583
58.5539
58.5595
58.5796
58.5815
58.5794
58.5769
58.5741
58.5682
58.5586
58.5614
58.5745
58.5757
58.5748
58.5744
58.565
58.5623
58.5664
58.5669
58.563
58.5687
58.5838
58.5846
58.5842
58.5727
58.5697
58.5856
58.5931
58.5907
58.5902
58.5881
58.5866
58.5709
54.9964
55.9261
56.8783
57.6767
58.2177
58.5019
58.5927
58.5992
58.5917
58.5976
58.6073
58.6062
58.6029
58.6042
58.6127
58.6025
58.6035
58.6177
58.6158
58.624
58.6444
58.6432
58.6395
58.6263
58.6293
58.6366
58.6215
58.6249
58.6312
58.6295
58.629
58.6174
58.6225
58.6308
58.6265
58.6277
58.6279
58.6276
58.6269
58.6252
58.6226
58.6176
58.6047
58.5979
58.5916
58.5775
58.5673
58.575
58.5837
58.5815
58.5735
58.5774
58.5818
58.579
58.5696
58.5698
58.5724
58.5709
58.5648
58.5631
58.5758
58.5773
58.5743
58.5642
58.5688
58.5766
58.5764
58.5762
58.5633
58.5658
58.5749
58.574
58.5687
58.5729
58.579
58.5787
58.5785
58.5653
58.5648
58.5782
58.5801
58.5752
58.5807
58.5913
58.5889
58.5794
58.5784
58.582
58.5811
58.5725
54.9942
55.9289
56.8768
57.678
58.2171
58.4964
58.6048
58.6188
58.6194
58.6194
58.6104
58.6074
58.6177
58.6433
58.6425
58.6352
58.6342
58.634
58.6289
58.6274
58.6353
58.6374
58.6412
58.6419
58.6334
58.6398
58.651
58.6459
58.6457
58.6448
58.6448
58.6432
58.643
58.6425
58.6426
58.641
58.638
58.6334
58.626
58.6162
58.608
58.6015
58.5946
58.5765
58.571
58.5741
58.5791
58.577
58.5678
58.5684
58.5634
58.5688
58.585
58.582
58.5837
58.5841
58.5828
58.5817
58.5799
58.577
58.5747
58.5711
58.5593
58.5578
58.579
58.5846
58.5835
58.5831
58.5712
58.5763
58.5871
58.5873
58.5872
58.5743
58.5779
58.5849
58.5842
58.5837
58.5695
58.5739
58.583
58.581
58.5771
58.575
58.5851
58.5904
58.589
58.5893
58.5848
58.5673
54.9957
55.926
56.8845
57.6704
58.2074
58.5085
58.6217
58.6341
58.6244
58.6282
58.6403
58.6352
58.6316
58.6309
58.6266
58.6305
58.6512
58.6543
58.651
58.6393
58.639
58.65
58.6508
58.6465
58.6513
58.6604
58.65
58.6555
58.6587
58.6548
58.6544
58.6543
58.6531
58.6478
58.6365
58.6207
58.6174
58.6169
58.6161
58.6125
58.602
58.6016
58.6022
58.5983
58.5886
58.5847
58.588
58.5859
58.5928
58.5957
58.5914
58.5907
58.5886
58.5877
58.5811
58.5768
58.5794
58.5799
58.577
58.5688
58.5751
58.5866
58.5818
58.5858
58.5875
58.5842
58.5766
58.5718
58.5726
58.5682
58.5746
58.5851
58.5862
58.5837
58.5698
58.5685
58.5864
58.5917
58.5884
58.5797
58.5765
58.5815
58.582
58.5824
58.5824
58.5761
58.5773
58.5808
58.5794
58.5713
54.9962
55.9257
56.8754
57.6824
58.2231
58.4856
58.5872
58.5987
58.585
58.5892
58.5983
58.5864
58.5921
58.5993
58.5889
58.5871
58.5959
58.5963
58.6059
58.6217
58.6208
58.6164
58.6175
58.6297
58.6372
58.6458
58.6347
58.6402
58.6465
58.6449
58.645
58.6424
58.639
58.6358
58.6302
58.6239
58.6189
58.604
58.6055
58.6098
58.6014
58.6032
58.6089
58.6075
58.6055
58.6037
58.5896
58.5912
58.598
58.5988
58.5962
58.5905
58.589
58.5774
58.5782
58.579
58.5762
58.5682
58.5715
58.5822
58.5804
58.5781
58.5659
58.5694
58.5758
58.5729
58.5729
58.5676
58.5683
58.5675
58.5769
58.5839
58.5841
58.5842
58.5768
58.5755
58.5656
58.5662
58.5801
58.5749
58.5769
58.5944
58.6006
58.5998
58.5991
58.5878
58.5846
58.5889
58.5894
58.581
54.9954
55.927
56.8822
57.6743
58.2037
58.5068
58.6299
58.6459
58.6362
58.6403
58.6513
58.6387
58.6423
58.6518
58.6433
58.6425
58.6424
58.6354
58.635
58.6425
58.6386
58.6434
58.6574
58.6572
58.6548
58.6601
58.6618
58.6547
58.6578
58.6583
58.6561
58.6577
58.6554
58.6523
58.6505
58.647
58.6431
58.638
58.6266
58.6185
58.6121
58.6005
58.5783
58.5779
58.5856
58.5822
58.5824
58.5819
58.5779
58.5713
58.5667
58.5649
58.5621
58.57
58.5813
58.5778
58.5785
58.5796
58.5805
58.5768
58.5693
58.5757
58.5891
58.5872
58.5791
58.5789
58.5914
58.5928
58.5895
58.5779
58.5744
58.5811
58.583
58.5797
58.5678
58.5675
58.5872
58.5909
58.5877
58.5761
58.5743
58.582
58.5778
58.5835
58.5859
58.5829
58.5738
58.5753
58.5799
58.5661
54.9957
55.9313
56.8746
57.6738
58.2221
58.4904
58.6036
58.6193
58.6167
58.6112
58.6078
58.6124
58.6132
58.6132
58.607
58.617
58.629
58.6271
58.6191
58.6206
58.6277
58.6168
58.6165
58.6302
58.6324
58.6263
58.6335
58.6424
58.6339
58.6322
58.6283
58.6256
58.6203
58.6236
58.6257
58.6219
58.6219
58.6196
58.6177
58.618
58.6183
58.6164
58.6146
58.6119
58.6095
58.6047
58.5947
58.5796
58.5742
58.5601
58.5601
58.5762
58.578
58.5748
58.5639
58.5681
58.5824
58.5777
58.5915
58.6099
58.6121
58.6097
58.5964
58.5992
58.6019
58.5914
58.5979
58.6041
58.6021
58.6019
58.6019
58.6009
58.5841
58.583
58.586
58.5851
58.5772
58.5789
58.5813
58.5754
58.5703
58.5766
58.5931
58.5931
58.5922
58.579
58.5812
58.584
58.5811
58.5719
54.9951
55.9284
56.8815
57.6757
58.201
58.5002
58.6372
58.6601
58.6609
58.6609
58.6496
58.6551
58.6627
58.6597
58.66
58.6615
58.6616
58.6555
58.6457
58.6461
58.6529
58.6537
58.654
58.6442
58.6466
58.6579
58.6555
58.6555
58.6565
58.6561
58.6528
58.6525
58.6502
58.649
58.6465
58.6416
58.6376
58.6334
58.6292
58.6257
58.6209
58.6122
58.5913
58.5807
58.5751
58.5724
58.5698
58.5683
58.5668
58.5522
58.5508
58.5634
58.5663
58.5646
58.5587
58.5626
58.5875
58.5906
58.5866
58.5863
58.5835
58.5737
58.5761
58.5864
58.5847
58.5839
58.5843
58.5854
58.5843
58.5841
58.5786
58.57
58.5747
58.5885
58.5879
58.5872
58.5796
58.5744
58.5746
58.5735
58.5818
58.5874
58.5863
58.5861
58.5799
58.5799
58.5778
58.5731
58.5711
58.5644
54.9952
55.9278
56.8801
57.6784
58.1994
58.5046
58.6391
58.6599
58.6508
58.6567
58.6621
58.662
58.662
58.6466
58.6498
58.6581
58.6439
58.6435
58.6523
58.6539
58.6514
58.656
58.6641
58.6548
58.6608
58.6706
58.6693
58.6696
58.665
58.6624
58.6619
58.6622
58.6584
58.6561
58.652
58.6489
58.6446
58.6367
58.6253
58.6149
58.6092
58.6013
58.5919
58.587
58.5826
58.5771
58.5643
58.5567
58.5691
58.5773
58.5774
58.5774
58.5735
58.5664
58.5646
58.5817
58.5884
58.5756
58.5799
58.5916
58.5809
58.5864
58.5969
58.5951
58.5927
58.5855
58.5853
58.5834
58.5815
58.5746
58.5814
58.5986
58.5979
58.5957
58.5953
58.5946
58.5897
58.5895
58.5859
58.5839
58.5826
58.5725
58.573
58.5866
58.588
58.5858
58.5732
58.5736
58.5789
58.5667
54.9953
55.9277
56.8831
57.6727
58.2036
58.5044
58.6268
58.6538
58.6526
58.6438
58.646
58.653
58.6496
58.6493
58.648
58.6487
58.6484
58.6424
58.6424
58.655
58.6585
58.6565
58.6465
58.6504
58.6588
58.6523
58.6533
58.6495
58.6485
58.6494
58.6495
58.647
58.645
58.6388
58.6315
58.6146
58.6055
58.6098
58.6138
58.6116
58.6114
58.6089
58.6062
58.6054
58.6008
58.5964
58.5919
58.5838
58.5611
58.5548
58.5674
58.5709
58.5693
58.5687
58.5586
58.5603
58.5855
58.5883
58.5794
58.5832
58.5935
58.5826
58.588
58.5964
58.5968
58.5969
58.5833
58.5862
58.5896
58.5772
58.5814
58.589
58.5753
58.5792
58.5907
58.589
58.5867
58.5753
58.5781
58.5909
58.5911
58.5914
58.5909
58.5867
58.5741
58.571
58.5745
58.5762
58.574
58.5617
54.9926
55.9339
56.8769
57.6734
58.2106
58.5054
58.6141
58.6286
58.6266
58.6182
58.6212
58.6276
58.6263
58.6265
58.6181
58.6178
58.615
58.6237
58.6372
58.6335
58.6341
58.6303
58.6406
58.6603
58.6684
58.6673
58.6697
58.667
58.6616
58.6626
58.6594
58.6572
58.6557
58.6549
58.6498
58.6462
58.6393
58.6324
58.627
58.6209
58.6114
58.6056
58.5975
58.5877
58.5809
58.5638
58.5586
58.5596
58.5632
58.5608
58.5485
58.5559
58.5977
58.6036
58.5968
58.6009
58.6165
58.6186
58.6168
58.6154
58.6079
58.6027
58.6007
58.595
58.6013
58.6055
58.6038
58.6026
58.5964
58.5956
58.5947
58.601
58.6034
58.6
58.5873
58.5877
58.5918
58.5847
58.584
58.5844
58.5859
58.5847
58.5818
58.5751
58.5737
58.5721
58.5685
58.5693
58.5686
58.5597
54.996
55.9275
56.877
57.6774
58.2198
58.4983
58.5776
58.5771
58.578
58.5962
58.6085
58.6095
58.6071
58.5929
58.5937
58.6104
58.6159
58.6141
58.6077
58.6107
58.6425
58.6665
58.6587
58.6657
58.6709
58.6665
58.6653
58.6659
58.6672
58.6655
58.6646
58.6609
58.6569
58.6522
58.6449
58.6289
58.6129
58.6097
58.6067
58.6037
58.6014
58.5993
58.5967
58.5929
58.586
58.5675
58.5663
58.5712
58.564
58.5684
58.5727
58.5683
58.5679
58.5684
58.5678
58.5533
58.5539
58.5603
58.559
58.559
58.5521
58.5572
58.5604
58.5578
58.5497
58.5481
58.5597
58.5614
58.5598
58.5589
58.5673
58.5699
58.5773
58.59
58.5902
58.5897
58.5775
58.5737
58.5786
58.577
58.5845
58.5883
58.5854
58.576
58.5761
58.5783
58.5646
58.5665
58.5756
58.5638
54.9958
55.9257
56.8852
57.6695
58.2082
58.5089
58.6244
58.6387
58.6394
58.6394
58.6265
58.6266
58.6369
58.637
58.6403
58.6415
58.6413
58.641
58.642
58.636
58.64
58.6582
58.6555
58.6607
58.6688
58.666
58.6683
58.6655
58.664
58.6636
58.6612
58.6517
58.6449
58.6385
58.6349
58.6314
58.6243
58.6211
58.6176
58.6146
58.6095
58.6059
58.6012
58.598
58.5946
58.5878
58.5722
58.5576
58.5597
58.5665
58.5635
58.5551
58.5517
58.5765
58.6012
58.6005
58.5954
58.599
58.6122
58.6074
58.6086
58.6082
58.6003
58.6049
58.6132
58.6087
58.6084
58.6052
58.5994
58.5902
58.5887
58.5849
58.5899
58.6027
58.5968
58.6042
58.611
58.6007
58.6067
58.6115
58.6114
58.6113
58.6042
58.5942
58.5901
58.5879
58.583
58.5832
58.5816
58.5675
54.9953
55.9273
56.8815
57.676
58.2014
58.5098
58.6263
58.635
58.6427
58.6548
58.6439
58.648
58.651
58.6487
58.6415
58.6416
58.6528
58.6537
58.6503
58.6551
58.667
58.6667
58.6646
58.6705
58.6821
58.6718
58.6766
58.6784
58.675
58.6753
58.6731
58.6712
58.6668
58.6631
58.6563
58.6413
58.6324
58.6251
58.6115
58.5882
58.5874
58.5905
58.5876
58.5882
58.5872
58.584
58.5685
58.5655
58.5761
58.5797
58.5766
58.57
58.5631
58.5777
58.6041
58.6156
58.6187
58.61
58.6163
58.6201
58.6171
58.6073
58.6078
58.6153
58.6086
58.608
58.6065
58.5974
58.5947
58.5996
58.5965
58.6048
58.6121
58.6008
58.6068
58.6135
58.6138
58.6138
58.5981
58.6012
58.605
58.5939
58.5989
58.6025
58.6012
58.6003
58.5836
58.5826
58.5845
58.5719
54.9969
55.9259
56.875
57.6849
58.2125
58.4972
58.5933
58.6051
58.6028
58.5935
58.598
58.6038
58.6013
58.5965
58.6013
58.624
58.6195
58.6276
58.6561
58.6559
58.6584
58.6618
58.6626
58.6603
58.658
58.6575
58.6526
58.6588
58.6629
58.654
58.6533
58.654
58.6544
58.6518
58.6501
58.6472
58.6423
58.6339
58.6129
58.5984
58.5921
58.5754
58.5767
58.5807
58.5733
58.5715
58.5692
58.5705
58.5713
58.5696
58.569
58.5646
58.5593
58.5615
58.5619
58.5526
58.5533
58.5636
58.5593
58.5656
58.5688
58.5679
58.5654
58.5701
58.5893
58.5882
58.5885
58.5903
58.59
58.5757
58.5789
58.5878
58.5859
58.5857
58.5842
58.5841
58.5819
58.5757
58.5761
58.5842
58.5843
58.5853
58.5826
58.5712
58.573
58.5836
58.5855
58.5858
58.5824
58.5713
54.9937
55.9307
56.8794
57.6714
58.2154
58.5025
58.6163
58.6298
58.6289
58.6252
58.6248
58.6314
58.6306
58.635
58.6371
58.6327
58.6327
58.6272
58.6332
58.6445
58.6442
58.6459
58.6403
58.648
58.6512
58.6457
58.6542
58.6676
58.6657
58.6631
58.6615
58.657
58.6444
58.6392
58.6347
58.6303
58.6266
58.6226
58.6193
58.6149
58.6058
58.5997
58.5952
58.5895
58.5773
58.5656
58.5569
58.5541
58.5513
58.5471
58.5428
58.5547
58.5667
58.5664
58.566
58.558
58.5555
58.5473
58.5428
58.5497
58.5514
58.5587
58.569
58.5596
58.5648
58.575
58.574
58.5734
58.5664
58.559
58.5655
58.572
58.5621
58.5679
58.5769
58.5644
58.5615
58.5729
58.5794
58.5765
58.5663
58.5682
58.582
58.5784
58.5792
58.586
58.5889
58.5877
58.5846
58.5658
54.9956
55.9263
56.8839
57.6714
58.2067
58.5096
58.6227
58.6352
58.6271
58.6329
58.6474
58.6356
58.6374
58.6532
58.6542
58.6504
58.6562
58.6615
58.6518
58.6574
58.6611
58.6508
58.6558
58.6708
58.6662
58.6716
58.6766
58.6732
58.673
58.6726
58.6714
58.668
58.6621
58.6579
58.6505
58.6341
58.6231
58.6175
58.6101
58.6051
58.6013
58.5978
58.5961
58.5941
58.5918
58.5884
58.5809
58.5611
58.5514
58.5573
58.5638
58.5611
58.5516
58.5544
58.5674
58.5678
58.5645
58.5511
58.5528
58.5616
58.5611
58.5599
58.5582
58.5665
58.5645
58.5727
58.5787
58.578
58.578
58.5738
58.5736
58.5701
58.5595
58.5654
58.5849
58.5868
58.5843
58.5746
58.5804
58.5844
58.5834
58.5829
58.5663
58.5678
58.5809
58.581
58.5787
58.5745
58.5734
58.5631
54.9952
55.9278
56.8801
57.6786
58.1994
58.5053
58.6383
58.6627
58.6609
58.6525
58.6499
58.653
58.6441
58.6495
58.66
58.6464
58.6467
58.6567
58.658
58.655
58.6601
58.6676
58.6575
58.6631
58.6775
58.673
58.6732
58.6736
58.6732
58.6687
58.666
58.665
58.6651
58.6624
58.6579
58.647
58.6359
58.6268
58.6214
58.6171
58.6134
58.61
58.6057
58.6028
58.5974
58.5846
58.5805
58.5688
58.5686
58.5694
58.5662
58.5581
58.5594
58.5941
58.5979
58.6046
58.6183
58.6178
58.6178
58.6122
58.6119
58.607
58.6126
58.6157
58.6093
58.6101
58.6092
58.6031
58.5954
58.5945
58.5926
58.5929
58.5927
58.5936
58.5937
58.5856
58.5849
58.5901
58.5883
58.5933
58.5959
58.5937
58.591
58.5821
58.5881
58.595
58.5938
58.5937
58.5891
58.5729
54.9953
55.9273
56.8815
57.676
58.2013
58.5099
58.6265
58.6352
58.643
58.6551
58.643
58.6473
58.6548
58.6534
58.6517
58.6461
58.6501
58.6546
58.6527
58.6514
58.6485
58.6561
58.673
58.6621
58.6677
58.6788
58.6782
58.6781
58.6763
58.6756
58.6736
58.6697
58.6597
58.6537
58.6483
58.6385
58.6323
58.6257
58.6132
58.5887
58.5875
58.5915
58.5911
58.591
58.5868
58.5845
58.5676
58.5656
58.5771
58.5794
58.576
58.5675
58.5627
58.5827
58.6007
58.5916
58.5961
58.6131
58.6135
58.6112
58.6054
58.6002
58.5971
58.5881
58.5908
58.6008
58.5997
58.6
58.6011
58.6009
58.588
58.592
58.6027
58.5938
58.5998
58.6037
58.5982
58.5986
58.5988
58.5972
58.5896
58.585
58.5715
58.5711
58.581
58.5753
58.5825
58.5879
58.5844
58.5716
54.9958
55.9256
56.8853
57.6693
58.2086
58.5093
58.6194
58.6459
58.6447
58.6353
58.6388
58.6428
58.6335
58.6306
58.642
58.6528
58.6511
58.6518
58.6495
58.6424
58.6475
58.662
58.6605
58.6604
58.6591
58.6598
58.657
58.6474
58.6489
58.6601
58.6599
58.6573
58.652
58.6516
58.6515
58.6514
58.6497
58.6457
58.6379
58.6205
58.6072
58.6014
58.5958
58.5917
58.5886
58.5823
58.5669
58.5556
58.5639
58.5711
58.5684
58.5626
58.5579
58.5808
58.6004
58.5997
58.5965
58.5957
58.6124
58.6172
58.614
58.6069
58.6002
58.6071
58.6113
58.6085
58.6081
58.6062
58.6054
58.596
58.5914
58.6018
58.606
58.6046
58.6046
58.6012
58.5991
58.5855
58.5855
58.6001
58.6053
58.6033
58.5968
58.5963
58.5966
58.5954
58.5818
58.5817
58.5827
58.5702
54.9963
55.9266
56.8778
57.6779
58.2171
58.4978
58.5907
58.5978
58.5927
58.5906
58.6031
58.6156
58.6107
58.6103
58.6103
58.6028
58.6063
58.6209
58.6208
58.619
58.6242
58.654
58.6596
58.6577
58.6495
58.654
58.658
58.6454
58.6501
58.656
58.6556
58.6554
58.6518
58.6508
58.6482
58.6453
58.6326
58.6281
58.6204
58.6017
58.5923
58.5898
58.5882
58.5831
58.5844
58.5861
58.574
58.578
58.5816
58.569
58.5718
58.5823
58.5816
58.5819
58.5811
58.5819
58.5801
58.5751
58.5604
58.5544
58.5688
58.5771
58.5751
58.5719
58.564
58.5746
58.5859
58.5827
58.5844
58.5845
58.5815
58.5794
58.5734
58.5805
58.5953
58.583
58.5874
58.5957
58.5826
58.5871
58.5938
58.5941
58.5941
58.5833
58.5797
58.5888
58.5962
58.5957
58.5946
58.5768
54.9963
55.9305
56.8745
57.6748
58.2222
58.4896
58.6024
58.6185
58.6175
58.6172
58.6181
58.6182
58.6132
58.6047
58.6097
58.6271
58.6215
58.6267
58.6293
58.6274
58.6219
58.6266
58.6573
58.6605
58.658
58.6537
58.6489
58.6472
58.6423
58.6457
58.6464
58.6432
58.638
58.6345
58.631
58.627
58.6187
58.6151
58.6115
58.6066
58.601
58.5977
58.594
58.5914
58.5888
58.5868
58.5809
58.5816
58.5825
58.581
58.5801
58.5674
58.5586
58.5614
58.5632
58.5569
58.556
58.5663
58.5851
58.5932
58.5919
58.5888
58.5793
58.5841
58.5888
58.5863
58.578
58.577
58.5831
58.5747
58.5733
58.5865
58.5911
58.5898
58.5893
58.5789
58.584
58.5928
58.5909
58.5908
58.588
58.5836
58.575
58.5806
58.585
58.5817
58.5706
58.5714
58.5762
58.5625
54.9957
55.9313
56.8746
57.674
58.2222
58.4906
58.6036
58.6191
58.6037
58.6046
58.6105
58.6116
58.6118
58.5997
58.604
58.6319
58.6354
58.6324
58.622
58.6222
58.6382
58.6382
58.6388
58.6376
58.6473
58.6541
58.6522
58.6525
58.6502
58.6489
58.6442
58.6302
58.6231
58.6226
58.6184
58.6202
58.6202
58.6177
58.6158
58.6156
58.6115
58.6091
58.6058
58.5989
58.5826
58.5714
58.568
58.5657
58.5623
58.5513
58.5567
58.5708
58.5635
58.5735
58.5994
58.5992
58.5988
58.5929
58.5861
58.5849
58.5842
58.5919
58.5954
58.5946
58.5945
58.5911
58.5843
58.5789
58.5853
58.5911
58.5942
58.5929
58.5906
58.5895
58.5787
58.5806
58.5889
58.5853
58.5854
58.5854
58.585
58.5857
58.5823
58.5816
58.5792
58.5756
58.567
58.5722
58.5775
58.5653
54.9953
55.9275
56.8811
57.6765
58.2012
58.5066
58.6338
58.655
58.6533
58.6444
58.6448
58.6535
58.6449
58.6511
58.6601
58.6575
58.6575
58.6524
58.6524
58.6508
58.65
58.6491
58.6451
58.654
58.6654
58.6533
58.6589
58.6641
58.659
58.6596
58.6597
58.6567
58.6417
58.6337
58.6286
58.6239
58.6203
58.6133
58.6108
58.6077
58.6048
58.6019
58.5965
58.5911
58.5742
58.5717
58.581
58.5748
58.5735
58.5864
58.5943
58.5898
58.5896
58.5895
58.587
58.573
58.5721
58.5785
58.5836
58.5846
58.5836
58.5847
58.5834
58.581
58.5791
58.5739
58.5776
58.5847
58.5831
58.5784
58.5835
58.5986
58.5983
58.5986
58.5987
58.5959
58.5895
58.5857
58.5868
58.5874
58.5855
58.5839
58.5742
58.5818
58.591
58.5884
58.5827
58.5779
58.5775
58.5673
54.995
55.9288
56.8806
57.6776
58.1971
58.5056
58.6326
58.6513
58.66
58.6592
58.6455
58.6498
58.6585
58.6552
58.656
58.6544
58.6557
58.6549
58.662
58.6744
58.6733
58.6719
58.6717
58.6597
58.6633
58.6692
58.6639
58.6645
58.6625
58.6578
58.657
58.6567
58.6569
58.6531
58.6427
58.6384
58.6327
58.6289
58.6243
58.6142
58.611
58.6085
58.6035
58.5918
58.5873
58.5841
58.5789
58.5766
58.5732
58.5737
58.5721
58.5798
58.5871
58.5845
58.5785
58.5762
58.5852
58.5894
58.5903
58.5885
58.5861
58.5785
58.5752
58.5808
58.579
58.584
58.5967
58.5911
58.5982
58.6028
58.6021
58.602
58.5902
58.5937
58.6043
58.6055
58.6029
58.5994
58.5987
58.592
58.5901
58.587
58.585
58.5848
58.5821
58.5737
58.576
58.5792
58.5759
58.5648
54.9931
55.9324
56.8796
57.6702
58.2113
58.5088
58.6079
58.6189
58.6184
58.6172
58.6171
58.6083
58.6099
58.6111
58.6026
58.6094
58.6231
58.6225
58.6224
58.618
58.6262
58.6292
58.637
58.6463
58.6387
58.6427
58.6439
58.6401
58.6277
58.6257
58.6329
58.6342
58.6315
58.6167
58.6183
58.6198
58.6124
58.6106
58.6105
58.6104
58.6085
58.6076
58.602
58.5846
58.5719
58.566
58.5665
58.5661
58.5562
58.5611
58.5772
58.5767
58.5771
58.5775
58.5751
58.571
58.5636
58.5724
58.5948
58.587
58.5929
58.5968
58.5905
58.5898
58.5896
58.5813
58.5843
58.5928
58.5858
58.5861
58.5854
58.5763
58.5788
58.5875
58.5765
58.5741
58.5839
58.5898
58.5871
58.5779
58.5831
58.5911
58.5827
58.5859
58.5868
58.5845
58.578
58.5804
58.583
58.5704
54.9954
55.9271
56.882
57.6743
58.2047
58.5038
58.6322
58.6566
58.6563
58.6561
58.6461
58.652
58.6582
58.6427
58.6426
58.6495
58.64
58.6443
58.6573
58.6455
58.6467
58.6561
58.65
58.6575
58.668
58.6661
58.6636
58.6596
58.6591
58.6546
58.6397
58.6407
58.6424
58.6374
58.6385
58.6373
58.6343
58.6286
58.6244
58.6189
58.6116
58.6065
58.5991
58.5861
58.5795
58.5762
58.5699
58.5662
58.5586
58.5558
58.5743
58.5885
58.5872
58.5849
58.5801
58.5744
58.5779
58.5808
58.5745
58.5724
58.5721
58.5729
58.5702
58.574
58.5769
58.5677
58.5726
58.5776
58.5665
58.5657
58.5837
58.5975
58.5967
58.5944
58.594
58.588
58.5839
58.5831
58.583
58.5803
58.575
58.5817
58.589
58.5858
58.586
58.5848
58.5721
58.5746
58.5795
58.5657
54.9956
55.9263
56.8772
57.6807
58.2186
58.4964
58.5806
58.5866
58.5815
58.589
58.6073
58.6079
58.6078
58.5982
58.5951
58.6127
58.6246
58.6161
58.6162
58.6342
58.6416
58.6328
58.6384
58.6567
58.65
58.6573
58.668
58.6666
58.6665
58.6609
58.6581
58.654
58.6523
58.6458
58.6293
58.6236
58.6206
58.6158
58.6114
58.6118
58.6122
58.6099
58.6098
58.6074
58.6034
58.5864
58.5807
58.5901
58.5931
58.5894
58.5895
58.5897
58.5871
58.5708
58.5663
58.5738
58.5787
58.5758
58.5635
58.5664
58.575
58.573
58.568
58.5646
58.5767
58.5811
58.5786
58.5746
58.5662
58.5648
58.562
58.5693
58.5837
58.5837
58.5829
58.5681
58.569
58.5761
58.5752
58.5687
58.5698
58.5833
58.5777
58.5845
58.5891
58.5805
58.5857
58.5881
58.584
58.5688
54.9956
55.9264
56.8839
57.6709
58.2073
58.5085
58.6175
58.6543
58.6555
58.655
58.6546
58.6381
58.6379
58.6444
58.6345
58.6394
58.6483
58.6377
58.6439
58.6494
58.6401
58.6374
58.6385
58.6368
58.6451
58.6537
58.6461
58.6496
58.6501
58.6464
58.6366
58.6335
58.6333
58.6351
58.6351
58.6305
58.6275
58.6125
58.6052
58.6084
58.6098
58.6079
58.6051
58.6026
58.6021
58.6005
58.5846
58.5873
58.5967
58.5923
58.5934
58.5927
58.5911
58.5912
58.5919
58.5927
58.5902
58.5804
58.5682
58.57
58.5736
58.5695
58.5689
58.5707
58.5712
58.5601
58.5603
58.574
58.5756
58.5698
58.573
58.5894
58.5901
58.5867
58.5768
58.5738
58.5863
58.5909
58.5877
58.576
58.5749
58.5832
58.5782
58.5837
58.586
58.5831
58.5739
58.5755
58.58
58.5662
54.9942
55.9289
56.8768
57.678
58.2172
58.4964
58.6047
58.6187
58.6193
58.6193
58.6105
58.6071
58.618
58.6379
58.6503
58.6467
58.6486
58.649
58.6462
58.6457
58.6393
58.6324
58.6358
58.6404
58.647
58.6513
58.6389
58.6438
58.6531
58.6516
58.6515
58.6505
58.6477
58.6439
58.6435
58.6405
58.637
58.6251
58.6185
58.6034
58.5904
58.5942
58.5961
58.5876
58.5863
58.5961
58.6001
58.5988
58.5986
58.5934
58.5917
58.5894
58.5852
58.5792
58.5756
58.5735
58.572
58.5729
58.5701
58.5634
58.5582
58.5651
58.5678
58.5601
58.565
58.5756
58.5767
58.5741
58.5626
58.5697
58.5836
58.5843
58.5843
58.5722
58.577
58.5837
58.5834
58.5832
58.5689
58.5723
58.5905
58.5908
58.5931
58.5941
58.5921
58.5897
58.575
58.5774
58.5844
58.5721
54.9965
55.9248
56.8772
57.6805
58.2217
58.4956
58.5689
58.568
58.5739
58.6015
58.6013
58.6077
58.6232
58.6137
58.6188
58.63
58.6168
58.62
58.6311
58.6188
58.6195
58.6289
58.6209
58.627
58.6348
58.6338
58.6336
58.6221
58.6278
58.6356
58.6269
58.6306
58.6325
58.631
58.6277
58.6283
58.6287
58.6248
58.6248
58.6236
58.623
58.6206
58.6177
58.6094
58.5902
58.5828
58.5777
58.5622
58.5638
58.5722
58.5711
58.5652
58.5666
58.5828
58.5833
58.581
58.5752
58.5703
58.5775
58.5842
58.5805
58.5813
58.5783
58.566
58.5674
58.5712
58.5646
58.5604
58.5695
58.5857
58.5812
58.5844
58.5852
58.5829
58.5788
58.578
58.5721
58.5672
58.5833
58.5979
58.5908
58.5958
58.5978
58.5947
58.5939
58.5918
58.5924
58.593
58.5877
58.5688
54.9949
55.929
56.8774
57.6763
58.2206
58.489
58.5959
58.6079
58.6076
58.6074
58.5965
58.604
58.6164
58.6119
58.6142
58.6147
58.6062
58.6075
58.6284
58.6329
58.6299
58.6218
58.6184
58.6252
58.6249
58.6326
58.6367
58.6336
58.6273
58.621
58.6253
58.6263
58.6242
58.625
58.6224
58.6185
58.6157
58.6105
58.5968
58.5938
58.5927
58.59
58.5854
58.5837
58.5797
58.5711
58.5637
58.5761
58.5902
58.5807
58.5852
58.5909
58.591
58.5909
58.5839
58.5723
58.573
58.5756
58.5733
58.5662
58.5694
58.5807
58.5804
58.5807
58.5789
58.5737
58.5798
58.5981
58.5974
58.5948
58.5986
58.6014
58.6003
58.6002
58.5987
58.5977
58.5802
58.5808
58.5941
58.5952
58.593
58.5842
58.5887
58.5924
58.5873
58.5867
58.586
58.5864
58.5842
58.5695
54.9967
55.9264
56.878
57.6792
58.2122
58.4976
58.6035
58.6144
58.6141
58.6139
58.6022
58.6003
58.6164
58.6431
58.642
58.6306
58.6289
58.6349
58.6285
58.6297
58.6497
58.6547
58.6512
58.6417
58.6385
58.6394
58.6297