/*--------------------------------*- C++ -*----------------------------------*\
  =========                 |
  \\      /  F ield         | OpenFOAM: The Open Source CFD Toolbox
   \\    /   O peration     | Website:  https://openfoam.org
    \\  /    A nd           | Version:  11
     \\/     M anipulation  |
\*---------------------------------------------------------------------------*/
FoamFile
{
    format      ascii;
    class       volScalarField;
    location    "0.076";
    object      p;
}
// * * * * * * * * * * * * * * * * * * * * * * * * * * * * * * * * * * * * * //

dimensions      [0 2 -2 0 0 0 0];

internalField   nonuniform List<scalar> 
287084
(
1.68977
1.40268
1.34556
1.27643
1.20673
1.15395
1.10367
1.05726
1.01254
0.968898
0.925086
0.881278
0.838026
0.79416
0.749315
0.703821
0.657897
0.611848
0.565806
0.520059
0.474711
0.430259
0.386628
0.344539
0.303361
0.264497
0.230622
0.200319
0.173338
0.15153
0.129853
0.109435
0.0919608
0.0779665
0.0681451
0.0611802
0.0569738
0.0552307
0.0556118
0.0578146
0.06154
0.0665072
0.0724288
0.0790627
0.0861745
0.0935375
0.101015
0.108355
0.115484
0.122303
0.128025
0.134058
0.140694
0.14576
0.150452
0.154254
0.157392
0.159936
0.161504
0.162466
0.1628
0.162636
0.16186
0.160572
0.158724
0.156338
0.153491
0.150087
0.146379
0.141912
0.137372
0.132876
0.12746
0.12159
0.115675
0.109331
0.102768
0.0959632
0.0889199
0.0817341
0.0742061
0.0665674
0.0588084
0.0507983
0.0425381
0.0344453
0.0255968
0.0157381
0.00505601
0.000366221
1.55401
1.36176
1.3141
1.256
1.19504
1.14583
1.09804
1.05309
1.00933
0.966237
0.922914
0.879479
0.835928
0.791652
0.746608
0.701047
0.65508
0.608879
0.562638
0.516657
0.471093
0.426439
0.382665
0.340583
0.299598
0.261163
0.227733
0.198333
0.170256
0.144095
0.121588
0.101889
0.0856784
0.0728194
0.0633688
0.0568164
0.0529615
0.051537
0.0522213
0.054721
0.0587295
0.0639669
0.070144
0.0770193
0.0843528
0.0919347
0.0995904
0.107154
0.11448
0.121505
0.128033
0.134167
0.139997
0.145095
0.149571
0.153451
0.156646
0.159231
0.161013
0.162085
0.16254
0.162402
0.161689
0.160415
0.158587
0.156256
0.153382
0.150076
0.146295
0.142096
0.137519
0.132587
0.127243
0.121543
0.11558
0.109253
0.102779
0.0959981
0.0889104
0.081707
0.0742259
0.0665833
0.058778
0.050847
0.0426441
0.0343461
0.0258177
0.0169333
0.0074568
0.00166294
1.52752
1.35552
1.3062
1.25008
1.19142
1.14279
1.09546
1.05056
1.00664
0.963298
0.91969
0.875997
0.832154
0.787466
0.742079
0.69614
0.649757
0.603093
0.556364
0.509862
0.463812
0.418636
0.374563
0.332081
0.291472
0.253349
0.21843
0.186513
0.157857
0.132605
0.110563
0.0916707
0.0760299
0.0635728
0.0544702
0.04837
0.0450203
0.0441242
0.0453652
0.0484258
0.0529859
0.0587533
0.0654424
0.0727972
0.0805789
0.0885804
0.0966175
0.104526
0.112177
0.119457
0.126234
0.132603
0.1386
0.143891
0.14856
0.152536
0.15578
0.15842
0.160306
0.161507
0.162056
0.16201
0.161324
0.160106
0.158316
0.155994
0.153196
0.149898
0.146159
0.141953
0.137376
0.132505
0.127188
0.121472
0.115532
0.109275
0.102729
0.0959137
0.0889109
0.0816962
0.0742596
0.0666531
0.0588379
0.0508432
0.0427836
0.034305
0.0254311
0.0164771
0.00759742
0.00240929
1.47985
1.32089
1.27718
1.22612
1.1732
1.12826
1.08387
1.04104
0.99859
0.956156
0.91325
0.869765
0.825685
0.780707
0.734991
0.688592
0.641648
0.594351
0.546931
0.499678
0.452892
0.406959
0.362197
0.319092
0.277995
0.239322
0.203837
0.171767
0.142741
0.117005
0.0947477
0.0759883
0.0608087
0.0491074
0.040759
0.0354951
0.0330004
0.0329805
0.0350968
0.0390241
0.0444286
0.0510078
0.0584632
0.0665381
0.0749893
0.0836099
0.0922185
0.100652
0.108791
0.116532
0.123796
0.130512
0.136667
0.142139
0.146927
0.151087
0.15452
0.157261
0.1593
0.160644
0.161315
0.161348
0.160789
0.159633
0.157916
0.155685
0.1529
0.149652
0.145944
0.141796
0.137254
0.132315
0.127031
0.121387
0.115443
0.109176
0.102669
0.0959068
0.0888725
0.0816509
0.0742231
0.0665889
0.0588086
0.0508853
0.042755
0.034395
0.0258358
0.0170297
0.00827376
0.00293345
1.4568
1.30641
1.26519
1.21621
1.16545
1.12142
1.07763
1.03498
0.992488
0.949853
0.906607
0.862709
0.818064
0.772512
0.726115
0.678931
0.631146
0.582912
0.534511
0.486236
0.438403
0.391447
0.345712
0.301694
0.259799
0.220492
0.184226
0.151251
0.121809
0.0960216
0.07403
0.0558154
0.0413281
0.0304358
0.0229833
0.0186985
0.0172683
0.0183566
0.0216004
0.0266466
0.0331497
0.0407851
0.0492501
0.0582726
0.0676054
0.0770394
0.0863883
0.0955045
0.10425
0.11253
0.120262
0.127391
0.133904
0.139738
0.144853
0.149261
0.152901
0.155842
0.15806
0.159557
0.160376
0.160552
0.160081
0.159023
0.157389
0.155196
0.152505
0.149315
0.14565
0.141548
0.137033
0.132129
0.12687
0.121242
0.11531
0.10909
0.102598
0.0958363
0.0888585
0.0816642
0.0742555
0.0666828
0.058913
0.0509792
0.0428993
0.0344691
0.0259174
0.0171224
0.00832103
0.00290349
1.43228
1.28356
1.24402
1.1972
1.14888
1.10689
1.06488
1.0236
0.982067
0.940036
0.897062
0.853109
0.808138
0.762037
0.714925
0.666881
0.618073
0.568732
0.51912
0.469568
0.420453
0.372178
0.325209
0.279995
0.237047
0.196781
0.15973
0.126195
0.096393
0.0705218
0.0486925
0.0309239
0.0171439
0.00721306
0.000885541
-0.00213108
-0.00221131
0.000282236
0.00495032
0.0114102
0.0192891
0.0282457
0.0379601
0.0481543
0.0585736
0.0690065
0.0792713
0.089215
0.098716
0.107673
0.11602
0.123694
0.130666
0.136888
0.142337
0.147033
0.150962
0.154137
0.156566
0.158264
0.159255
0.159566
0.159238
0.158288
0.156749
0.154664
0.152033
0.148896
0.145288
0.141226
0.136754
0.131883
0.126647
0.121063
0.115161
0.108963
0.102486
0.0957543
0.088779
0.0815907
0.0742086
0.0666352
0.0588936
0.0509993
0.0429166
0.0345439
0.0260588
0.0172672
0.00849481
0.00309111
1.41417
1.26813
1.23034
1.18495
1.13807
1.09694
1.05552
1.01446
0.972909
0.930645
0.887313
0.842826
0.797131
0.750173
0.702057
0.652853
0.60279
0.552043
0.500956
0.449862
0.399156
0.349327
0.300812
0.254181
0.209921
0.168545
0.130547
0.0962876
0.0661111
0.0401817
0.0186573
0.00151571
-0.0113439
-0.0201155
-0.025093
-0.026618
-0.0250988
-0.0209466
-0.0145983
-0.00647391
0.00302512
0.0135339
0.0247209
0.0362952
0.0479928
0.0595988
0.0709316
0.0818472
0.0922196
0.10196
0.110997
0.119284
0.126792
0.133489
0.139367
0.144439
0.14869
0.152145
0.154822
0.156741
0.15793
0.15842
0.158238
0.15742
0.155999
0.153998
0.151461
0.148407
0.144867
0.140874
0.136456
0.131629
0.12643
0.120878
0.115004
0.108827
0.102377
0.0956638
0.0887156
0.0815499
0.074181
0.066638
0.0589094
0.0510201
0.0429641
0.0346332
0.0261366
0.0173018
0.00852006
0.00308244
1.39723
1.2515
1.21428
1.16989
1.12396
1.08376
1.04312
1.00265
0.961429
0.919212
0.875704
0.830756
0.784374
0.736503
0.687277
0.636793
0.585257
0.532933
0.480131
0.427245
0.374723
0.323043
0.272772
0.224447
0.178681
0.135994
0.0969465
0.0619595
0.0313791
0.00544239
-0.0157357
-0.0321626
-0.043979
-0.0514209
-0.0548297
-0.0546092
-0.0512228
-0.0451397
-0.0368422
-0.0267916
-0.0154242
-0.00312996
0.00974266
0.0228882
0.0360382
0.0489793
0.0615282
0.0735401
0.0849007
0.0955245
0.105352
0.114338
0.122463
0.129701
0.136054
0.141533
0.146151
0.149931
0.152892
0.15506
0.156466
0.157143
0.157127
0.156455
0.155159
0.153272
0.150829
0.147855
0.144388
0.140454
0.136088
0.131308
0.12615
0.12064
0.1148
0.108661
0.102237
0.0955511
0.0886253
0.0814826
0.0741373
0.0666112
0.0589075
0.0510463
0.0430066
0.0347119
0.0262397
0.0173161
0.00850313
0.00309222
1.38247
1.2375
1.20107
1.15734
1.11213
1.0724
1.03207
0.99166
0.950301
0.90772
0.863655
0.817969
0.770626
0.721611
0.671047
0.619031
0.565826
0.511653
0.456901
0.401972
0.347343
0.293595
0.241274
0.191063
0.143569
0.0994134
0.0592038
0.0233865
-0.00758696
-0.0335231
-0.054248
-0.0698259
-0.0804136
-0.0863078
-0.0879203
-0.0857108
-0.0802137
-0.0719545
-0.0614713
-0.049266
-0.0358072
-0.0215205
-0.00677529
0.00811836
0.0228811
0.0372934
0.0511818
0.0644037
0.0768509
0.0884472
0.0991358
0.108888
0.117684
0.125517
0.132396
0.138339
0.143365
0.147496
0.150764
0.153202
0.15485
0.15574
0.155911
0.155396
0.154239
0.152471
0.150132
0.147251
0.143868
0.140009
0.135704
0.13098
0.125868
0.120397
0.114593
0.108481
0.10209
0.0954313
0.0885286
0.0814059
0.0740802
0.0665756
0.0588859
0.0510364
0.0430198
0.0347833
0.0263587
0.0174087
0.00849399
0.0030778
1.36886
1.22403
1.18786
1.1445
1.09965
1.06023
1.02008
0.979724
0.93821
0.895252
0.850606
0.804087
0.755707
0.705424
0.65338
0.599689
0.544595
0.488399
0.431465
0.374265
0.317328
0.261243
0.206696
0.154351
0.104962
0.0591825
0.0176889
-0.018977
-0.050385
-0.0762517
-0.0964559
-0.111051
-0.120251
-0.124415
-0.124006
-0.119583
-0.111734
-0.101061
-0.088158
-0.073577
-0.0578305
-0.0413663
-0.024576
-0.00778785
0.00872064
0.0247307
0.0400655
0.0545944
0.0682137
0.080856
0.0924807
0.103056
0.112579
0.121052
0.128494
0.134928
0.140385
0.144895
0.148498
0.151231
0.153131
0.15424
0.154602
0.15426
0.153251
0.151614
0.149389
0.146609
0.143307
0.139518
0.135275
0.130609
0.12555
0.120128
0.114365
0.108288
0.101924
0.0952943
0.0884174
0.0813193
0.074014
0.0665287
0.0588584
0.0510292
0.0430147
0.0347519
0.0263005
0.0173594
0.00851367
0.00309676
1.35639
1.21173
1.17581
1.1327
1.08807
1.04873
1.00857
0.967997
0.926106
0.882574
0.837133
0.789635
0.74003
0.688322
0.634619
0.579057
0.521916
0.463467
0.404158
0.34447
0.284978
0.226372
0.169342
0.114711
0.0632424
0.0157109
-0.0271379
-0.0647344
-0.0965385
-0.122312
-0.141872
-0.15535
-0.162984
-0.165212
-0.162587
-0.155727
-0.145317
-0.132024
-0.116508
-0.0993739
-0.0811689
-0.0623743
-0.0434011
-0.0245878
-0.00621764
0.0114861
0.0283595
0.0442678
0.0591208
0.0728631
0.0854634
0.0969091
0.107196
0.116344
0.124381
0.131341
0.137255
0.142163
0.146115
0.149152
0.151322
0.152665
0.153234
0.15307
0.152217
0.150714
0.148607
0.145927
0.142717
0.139011
0.134837
0.130231
0.125224
0.119846
0.114122
0.108082
0.10175
0.095147
0.0882983
0.0812231
0.0739365
0.0664722
0.0588163
0.0509955
0.0429938
0.0347524
0.0262814
0.0173359
0.0085388
0.00313822
1.34482
1.20018
1.16433
1.12132
1.0767
1.03732
0.996992
0.956115
0.913749
0.869537
0.823233
0.774626
0.723707
0.670433
0.614944
0.55738
0.498005
0.437165
0.375288
0.312937
0.250723
0.189385
0.129743
0.0726271
0.0189608
-0.030433
-0.0747243
-0.113249
-0.145466
-0.171054
-0.189898
-0.202125
-0.208044
-0.208174
-0.203136
-0.19366
-0.180498
-0.164406
-0.146105
-0.126258
-0.105457
-0.0842061
-0.0629401
-0.0420105
-0.0217
-0.00222629
0.0162395
0.0335812
0.0497194
0.0646075
0.0782258
0.0905695
0.101651
0.111496
0.120146
0.127639
0.134021
0.139343
0.143655
0.147008
0.149454
0.151039
0.151818
0.151845
0.151152
0.149787
0.147799
0.145226
0.142109
0.138483
0.134382
0.129836
0.124881
0.11955
0.113869
0.107868
0.101566
0.0949926
0.0881702
0.08112
0.0738568
0.066405
0.058764
0.0509637
0.0429752
0.0347568
0.0263458
0.0173693
0.00848953
0.0030954
1.33406
1.18943
1.15358
1.1106
1.06591
1.02636
0.985756
0.944445
0.901476
0.856485
0.809171
0.759367
0.707
0.652066
0.594669
0.534969
0.473251
0.40985
0.345276
0.280084
0.21499
0.150791
0.088353
0.0286646
-0.0273234
-0.0786543
-0.124418
-0.163894
-0.196455
-0.221819
-0.239824
-0.250678
-0.254737
-0.252603
-0.245002
-0.232745
-0.216688
-0.197662
-0.17646
-0.153797
-0.130302
-0.106516
-0.0828859
-0.0597783
-0.0374744
-0.0161921
0.00390744
0.0227146
0.0401611
0.056212
0.0708607
0.0841171
0.0960037
0.106561
0.115834
0.123877
0.130742
0.136484
0.141163
0.144836
0.147564
0.149395
0.150387
0.150592
0.150062
0.148841
0.146977
0.144513
0.141488
0.137945
0.133916
0.129437
0.124538
0.119252
0.113614
0.107651
0.101384
0.0948373
0.0880364
0.0810088
0.0737658
0.0663357
0.0587074
0.0509129
0.0429304
0.0346945
0.0262189
0.0172891
0.008545
0.00317101
1.32406
1.1794
1.14351
1.10045
1.05557
1.01578
0.974806
0.932981
0.889342
0.843479
0.795115
0.744017
0.690146
0.633452
0.574069
0.512146
0.447971
0.381938
0.314539
0.246433
0.178335
0.111158
0.0458626
-0.0165149
-0.0748738
-0.128187
-0.175443
-0.215835
-0.248728
-0.273773
-0.290866
-0.300232
-0.302312
-0.297801
-0.287515
-0.272376
-0.25332
-0.231274
-0.20709
-0.181543
-0.155305
-0.12894
-0.102918
-0.0776055
-0.053293
-0.0301914
-0.00845046
0.0118339
0.0305972
0.0478184
0.0635037
0.077674
0.0903688
0.101637
0.111535
0.120123
0.127465
0.133629
0.138676
0.142668
0.145671
0.147745
0.148951
0.149348
0.148979
0.1479
0.146158
0.143801
0.140871
0.137409
0.133453
0.129032
0.124188
0.118952
0.113355
0.107428
0.101191
0.0946773
0.0879053
0.0808977
0.0736772
0.0662616
0.0586445
0.0508668
0.0428845
0.0346783
0.0262098
0.017266
0.00853072
0.00315838
1.3148
1.1701
1.1341
1.09093
1.04585
1.00574
0.964336
0.921926
0.877536
0.830758
0.781265
0.728835
0.673392
0.614904
0.553469
0.489264
0.422587
0.353835
0.283576
0.212452
0.141317
0.071109
0.00288402
-0.0621921
-0.122956
-0.178235
-0.226956
-0.268236
-0.301375
-0.326039
-0.342119
-0.349911
-0.349926
-0.342952
-0.32991
-0.311825
-0.289732
-0.264638
-0.237461
-0.209024
-0.180042
-0.15111
-0.122701
-0.0951969
-0.0688883
-0.0439804
-0.0206147
0.00112054
0.0211789
0.0395551
0.0562615
0.0713344
0.0848233
0.0967925
0.107304
0.116431
0.124244
0.130817
0.136224
0.140531
0.143816
0.146133
0.147548
0.148121
0.147911
0.146973
0.145353
0.143101
0.140259
0.136878
0.132992
0.128637
0.123848
0.118658
0.113103
0.107213
0.101009
0.0945203
0.0877689
0.0807861
0.0735815
0.0661859
0.0585841
0.0508201
0.0428545
0.0346485
0.0262072
0.0172676
0.00852582
0.00316276
1.30625
1.16151
1.12539
1.08206
1.03669
0.996233
0.954351
0.911347
0.866187
0.818447
0.767811
0.714028
0.657002
0.596691
0.533211
0.466713
0.397518
0.32606
0.252898
0.178799
0.104591
0.031363
-0.0397701
-0.107541
-0.170668
-0.227881
-0.278011
-0.320112
-0.353443
-0.377645
-0.392658
-0.398815
-0.396717
-0.387255
-0.371449
-0.350425
-0.325309
-0.297193
-0.267054
-0.235772
-0.204095
-0.172642
-0.141907
-0.112269
-0.0840181
-0.0573536
-0.0324093
-0.00925782
0.0120623
0.0315566
0.049258
0.0652036
0.079463
0.0921067
0.103213
0.112865
0.121134
0.128106
0.133863
0.138473
0.142016
0.144561
0.146181
0.146935
0.146878
0.146074
0.144574
0.142425
0.139675
0.13637
0.13255
0.128249
0.123513
0.118372
0.112855
0.106996
0.100823
0.0943624
0.0876371
0.0806733
0.0734892
0.0661079
0.058521
0.0507615
0.0428087
0.0346003
0.0261626
0.0172418
0.00851288
0.00317552
1.29846
1.15365
1.1174
1.07388
1.02825
0.987396
0.945044
0.90138
0.855445
0.806756
0.75498
0.69984
0.641244
0.579141
0.513624
0.44487
0.373198
0.299057
0.223076
0.14601
0.068825
-0.00737791
-0.0813527
-0.151734
-0.217143
-0.276188
-0.327649
-0.370471
-0.403913
-0.427592
-0.441485
-0.445984
-0.441779
-0.429849
-0.411327
-0.387431
-0.359379
-0.328336
-0.29534
-0.261318
-0.227052
-0.193184
-0.160214
-0.12853
-0.09842
-0.0700762
-0.0436243
-0.0191263
0.00339287
0.0239532
0.042595
0.0593739
0.0743612
0.0876493
0.099322
0.109469
0.118172
0.12552
0.131606
0.136508
0.140306
0.143077
0.144892
0.145811
0.1459
0.145222
0.143831
0.141779
0.139114
0.135882
0.132126
0.127888
0.123202
0.118102
0.112624
0.106797
0.100652
0.0942176
0.0875133
0.0805735
0.073402
0.0660375
0.0584624
0.0507233
0.0427858
0.0346129
0.0262112
0.0172427
0.00846687
0.00313092
1.29142
1.14655
1.11015
1.06645
1.0205
0.979284
0.936415
0.892158
0.845417
0.79582
0.742943
0.686485
0.626372
0.562539
0.495079
0.424146
0.350095
0.273394
0.194674
0.114795
0.034718
-0.0442999
-0.120998
-0.193851
-0.261406
-0.322175
-0.374837
-0.418301
-0.451771
-0.474883
-0.487643
-0.490509
-0.484252
-0.469948
-0.448826
-0.422192
-0.391353
-0.357537
-0.32184
-0.285234
-0.24853
-0.212387
-0.17732
-0.14372
-0.111869
-0.0819558
-0.0540933
-0.0283316
-0.00468645
0.0168664
0.0363859
0.0539404
0.0696163
0.0835034
0.095701
0.106307
0.11541
0.123114
0.129513
0.134682
0.138714
0.14169
0.14368
0.144756
0.144982
0.144425
0.143138
0.141177
0.138592
0.135431
0.131739
0.127548
0.122906
0.117845
0.112402
0.106606
0.100487
0.0940746
0.0873915
0.0804674
0.0733109
0.06596
0.0584016
0.0506748
0.0427444
0.0345926
0.0262175
0.0172679
0.0084432
0.00309846
1.28518
1.14024
1.10368
1.05981
1.01357
0.971962
0.92864
0.883757
0.83633
0.785841
0.731885
0.674213
0.612679
0.547214
0.477909
0.404939
0.328643
0.249527
0.168264
0.0857218
0.00297861
-0.078701
-0.157904
-0.233045
-0.302575
-0.364882
-0.418619
-0.462589
-0.49603
-0.518538
-0.530189
-0.531485
-0.523289
-0.506756
-0.483207
-0.454033
-0.42061
-0.384239
-0.346059
-0.307081
-0.268143
-0.229921
-0.192937
-0.157584
-0.124143
-0.0927929
-0.0636437
-0.0367371
-0.0120716
0.0103954
0.0307174
0.0489813
0.0652763
0.0797098
0.0923905
0.103421
0.112897
0.120919
0.127597
0.133016
0.137263
0.140425
0.142584
0.1438
0.144151
0.143701
0.142509
0.14063
0.138115
0.135016
0.131377
0.127237
0.122637
0.117616
0.112205
0.106437
0.100341
0.0939513
0.0872911
0.0803843
0.0732394
0.0659033
0.0583507
0.0506324
0.042716
0.034562
0.0261674
0.0172017
0.00844747
0.00313947
1.27973
1.13475
1.09808
1.05399
1.00749
0.965529
0.921753
0.876353
0.82826
0.776918
0.72201
0.663218
0.600381
0.533435
0.462464
0.38763
0.30931
0.228
0.144405
0.0594692
-0.0257264
-0.10977
-0.191256
-0.268434
-0.339717
-0.403394
-0.458029
-0.502424
-0.535764
-0.55768
-0.56828
-0.568125
-0.558154
-0.539599
-0.513861
-0.482405
-0.44668
-0.408023
-0.367625
-0.326528
-0.285595
-0.245515
-0.206821
-0.169906
-0.135047
-0.102421
-0.0721201
-0.0441873
-0.0186102
0.00465899
0.0256976
0.0445947
0.061447
0.0763628
0.0894634
0.100862
0.110662
0.118973
0.125899
0.131534
0.135972
0.139301
0.141601
0.142948
0.143409
0.143056
0.141945
0.140139
0.137691
0.134649
0.131059
0.12696
0.122398
0.117405
0.112022
0.106282
0.100207
0.0938341
0.087187
0.0802935
0.0731638
0.0658356
0.0582937
0.0505849
0.0426702
0.0345296
0.0261297
0.0171735
0.00844421
0.00314258
1.27517
1.13011
1.09327
1.04909
1.00231
0.960046
0.915873
0.869981
0.821302
0.769273
0.713513
0.653723
0.589746
0.521491
0.449048
0.372589
0.292472
0.209235
0.123615
0.0365694
-0.0507319
-0.136876
-0.220325
-0.299262
-0.372055
-0.436859
-0.492244
-0.536934
-0.570157
-0.591507
-0.601153
-0.599708
-0.588177
-0.567857
-0.540219
-0.506787
-0.469062
-0.428437
-0.386129
-0.343214
-0.300568
-0.258896
-0.218734
-0.18048
-0.144407
-0.110681
-0.0793991
-0.0505893
-0.0242335
-0.000270062
0.021375
0.0408061
0.0581323
0.0734715
0.0869386
0.098658
0.108743
0.1173
0.124443
0.130266
0.134869
0.138339
0.140765
0.142219
0.142776
0.142506
0.14147
0.139723
0.137329
0.134336
0.130787
0.126727
0.122198
0.117235
0.111873
0.106149
0.100094
0.0937417
0.0871105
0.0802302
0.0731104
0.0657943
0.0582587
0.0505606
0.0426552
0.0345151
0.0261372
0.0171771
0.00843463
0.00313314
1.27145
1.12636
1.08943
1.04509
0.998113
0.955577
0.911081
0.864766
0.815599
0.76296
0.706493
0.645889
0.580955
0.511618
0.437954
0.360127
0.278532
0.193692
0.106373
0.0175835
-0.0715042
-0.15935
-0.244444
-0.324822
-0.398839
-0.464582
-0.520493
-0.565408
-0.598496
-0.619351
-0.628191
-0.62566
-0.612825
-0.591042
-0.561836
-0.526779
-0.487422
-0.44518
-0.401309
-0.356898
-0.312845
-0.269865
-0.228498
-0.189142
-0.152068
-0.117449
-0.0853609
-0.0558284
-0.0288299
-0.00430238
0.0178465
0.0377218
0.0554439
0.0711233
0.0848864
0.0968627
0.107174
0.115936
0.123252
0.129227
0.133963
0.137551
0.140077
0.141624
0.142257
0.142051
0.141071
0.139378
0.137028
0.134072
0.130558
0.126527
0.122026
0.117085
0.111746
0.106043
0.100001
0.0936583
0.0870371
0.0801662
0.0730548
0.0657415
0.058217
0.050519
0.0426241
0.0344871
0.0261016
0.0171581
0.00842341
0.00313846
1.26864
1.12353
1.08652
1.04206
0.994915
0.952193
0.907423
0.860791
0.811227
0.758141
0.701127
0.639876
0.574208
0.504021
0.429401
0.350526
0.267769
0.181685
0.0930618
0.00291812
-0.0875237
-0.176698
-0.263045
-0.344509
-0.419521
-0.485889
-0.542205
-0.587233
-0.620232
-0.640685
-0.64888
-0.645507
-0.631666
-0.608759
-0.578347
-0.542045
-0.501433
-0.457959
-0.412893
-0.367342
-0.322216
-0.278239
-0.235952
-0.195758
-0.157925
-0.122615
-0.0899128
-0.0598302
-0.0323457
-0.0073851
0.015146
0.0353573
0.0533731
0.0693178
0.0833126
0.0954924
0.105976
0.114886
0.12234
0.128433
0.133272
0.136947
0.139554
0.141163
0.141856
0.141705
0.140772
0.139119
0.136804
0.133878
0.130389
0.126384
0.121897
0.116974
0.111651
0.105958
0.0999303
0.0935959
0.0869846
0.0801247
0.0730199
0.0657185
0.0581978
0.0505089
0.0426088
0.0344752
0.0260755
0.0171246
0.0084301
0.00314524
1.26677
1.12163
1.08455
1.04003
0.992771
0.949894
0.904965
0.858102
0.808274
0.754863
0.697471
0.635801
0.569624
0.498873
0.42361
0.344008
0.260471
0.173546
0.0840209
-0.0070394
-0.0984323
-0.188482
-0.275721
-0.357907
-0.433686
-0.500427
-0.55684
-0.601945
-0.634923
-0.655101
-0.662865
-0.658912
-0.644388
-0.620716
-0.589491
-0.552349
-0.510894
-0.466588
-0.420715
-0.374395
-0.328546
-0.283892
-0.240983
-0.200222
-0.161873
-0.126101
-0.0929831
-0.0625326
-0.034716
-0.00946324
0.0133251
0.0337636
0.0519801
0.0680967
0.082246
0.0945592
0.105166
0.114182
0.121725
0.1279
0.132808
0.136545
0.139202
0.140863
0.141596
0.141476
0.14057
0.138943
0.136647
0.133739
0.13027
0.126276
0.121807
0.116898
0.111585
0.105902
0.0998794
0.0935553
0.0869497
0.0800908
0.0729907
0.065688
0.0581741
0.0504867
0.0426006
0.0344771
0.0261173
0.0171763
0.00841214
0.00312687
1.26582
1.12068
1.08357
1.03901
0.991704
0.948744
0.903759
0.856728
0.806798
0.753245
0.695629
0.633745
0.567317
0.496265
0.420666
0.340705
0.256762
0.169409
0.0794372
-0.0120891
-0.10394
-0.194455
-0.282119
-0.364682
-0.440883
-0.507863
-0.564111
-0.609349
-0.642322
-0.662362
-0.669907
-0.665665
-0.650792
-0.626736
-0.595098
-0.557531
-0.515648
-0.470922
-0.424644
-0.37794
-0.331728
-0.286737
-0.243519
-0.202473
-0.163865
-0.127857
-0.0945307
-0.0638919
-0.0359105
-0.0105096
0.0124128
0.0329693
0.0512841
0.0674883
0.0817138
0.0940968
0.104761
0.113826
0.121417
0.12763
0.132573
0.13634
0.139021
0.140699
0.141456
0.141355
0.140467
0.138852
0.136571
0.133677
0.130212
0.126226
0.121761
0.116858
0.111548
0.105869
0.099859
0.0935357
0.0869322
0.0800752
0.0729772
0.0656846
0.0581693
0.0504844
0.042594
0.0344635
0.0260768
0.0171187
0.00840994
0.00314508
1.26583
1.12068
1.08357
1.03901
0.991708
0.948743
0.903762
0.856732
0.806805
0.753243
0.695617
0.633748
0.567319
0.496274
0.42068
0.340716
0.256782
0.169423
0.0794506
-0.0120722
-0.103931
-0.194439
-0.282108
-0.36467
-0.440877
-0.507847
-0.564084
-0.609348
-0.642305
-0.662346
-0.66989
-0.665645
-0.650775
-0.626718
-0.595083
-0.557517
-0.515634
-0.470908
-0.42463
-0.377926
-0.331714
-0.286724
-0.243505
-0.20246
-0.163853
-0.127849
-0.0945267
-0.0638912
-0.0359064
-0.0105051
0.0124131
0.0329635
0.0512784
0.0674838
0.0817115
0.0940937
0.104759
0.113826
0.121417
0.127629
0.132571
0.136341
0.139025
0.140705
0.14146
0.141362
0.140469
0.138856
0.136572
0.133671
0.130209
0.126224
0.121761
0.116859
0.11155
0.105872
0.0998542
0.0935326
0.0869295
0.0800723
0.072976
0.0656749
0.0581619
0.0504794
0.0425896
0.0344655
0.0260936
0.0171469
0.00841
0.00312786
1.26677
1.12164
1.08456
1.04004
0.992793
0.949909
0.905008
0.858104
0.808291
0.75489
0.69748
0.635813
0.56964
0.498887
0.423614
0.344024
0.260481
0.173561
0.0840369
-0.00701535
-0.0983947
-0.188447
-0.275676
-0.357848
-0.433646
-0.50033
-0.556753
-0.601946
-0.634875
-0.655049
-0.66281
-0.658858
-0.644334
-0.620666
-0.589444
-0.552305
-0.510851
-0.466546
-0.420677
-0.374362
-0.328518
-0.283868
-0.240962
-0.200202
-0.161856
-0.126086
-0.0929691
-0.0625192
-0.0347038
-0.0094504
0.013339
0.0337786
0.0519983
0.068115
0.0822602
0.0945743
0.105177
0.114188
0.121728
0.127899
0.132806
0.136542
0.1392
0.140855
0.141589
0.14147
0.140566
0.138939
0.136646
0.13374
0.130266
0.126273
0.1218
0.116891
0.111577
0.105894
0.0998787
0.0935539
0.086948
0.0800888
0.0729868
0.065688
0.0581682
0.050487
0.0425906
0.0344632
0.0260738
0.0171178
0.00841347
0.00314172
1.26866
1.12354
1.08653
1.04207
0.994937
0.952205
0.907449
0.860819
0.811245
0.758153
0.701129
0.639899
0.57423
0.504051
0.429436
0.350558
0.267815
0.181731
0.0931083
0.002974
-0.0874734
-0.176626
-0.262985
-0.344431
-0.419458
-0.485756
-0.542107
-0.587197
-0.620149
-0.640604
-0.648794
-0.645421
-0.631579
-0.608672
-0.578265
-0.541967
-0.501362
-0.457893
-0.412832
-0.367288
-0.322165
-0.278192
-0.235909
-0.195719
-0.157888
-0.122583
-0.0898855
-0.0598067
-0.0323232
-0.00736545
0.0151631
0.035371
0.0533855
0.0693251
0.0833162
0.0954934
0.105982
0.114892
0.122342
0.128435
0.133272
0.136951
0.139555
0.141166
0.141863
0.141712
0.140775
0.139121
0.136803
0.133871
0.130383
0.126375
0.12189
0.116968
0.111645
0.105951
0.0999228
0.0935904
0.086977
0.0801112
0.0730089
0.0657021
0.058184
0.0504945
0.0425982
0.0344464
0.0260648
0.0171511
0.00845095
0.00317085
1.27147
1.12639
1.08946
1.04511
0.998137
0.955602
0.911124
0.864787
0.815626
0.762998
0.706525
0.645921
0.580989
0.511663
0.437992
0.360179
0.278574
0.193743
0.106432
0.0176439
-0.0714199
-0.159273
-0.244342
-0.324725
-0.39873
-0.464453
-0.520385
-0.565299
-0.598372
-0.619225
-0.628063
-0.625536
-0.612705
-0.590927
-0.561724
-0.526675
-0.487323
-0.44509
-0.40123
-0.356828
-0.312783
-0.269806
-0.228443
-0.18909
-0.152021
-0.117405
-0.0853219
-0.0557926
-0.0287993
-0.0042753
0.0178694
0.0377416
0.0554612
0.0711401
0.0849029
0.0968792
0.107189
0.115946
0.12326
0.129233
0.133967
0.137551
0.140078
0.14162
0.142255
0.142047
0.14107
0.139379
0.137026
0.134068
0.130553
0.126523
0.122016
0.117074
0.111734
0.106031
0.0999934
0.0936504
0.0870315
0.0801612
0.0730454
0.0657345
0.0582061
0.0505184
0.0426094
0.0344762
0.0260949
0.0171378
0.00842723
0.00313969
1.27518
1.13014
1.09333
1.04909
1.00234
0.960066
0.915908
0.870016
0.821335
0.769303
0.713535
0.653764
0.589789
0.521543
0.449106
0.372645
0.292548
0.209312
0.123694
0.0366656
-0.0506407
-0.136759
-0.220213
-0.299139
-0.371918
-0.436717
-0.49209
-0.536796
-0.569998
-0.591355
-0.600998
-0.599556
-0.588024
-0.56771
-0.540078
-0.506654
-0.468941
-0.428327
-0.386032
-0.343127
-0.300484
-0.258818
-0.218661
-0.18041
-0.14434
-0.110622
-0.079348
-0.0505422
-0.0241918
-0.000234177
0.0214114
0.0408371
0.0581587
0.0734926
0.0869562
0.098671
0.108751
0.117305
0.124445
0.130271
0.134874
0.138346
0.140768
0.14222
0.142779
0.14251
0.141469
0.139724
0.137328
0.134328
0.130777
0.126715
0.122184
0.117223
0.111863
0.106139
0.100086
0.0937258
0.0870913
0.0802122
0.073093
0.0657728
0.0582395
0.0505389
0.0426338
0.0344966
0.0261095
0.0171612
0.00843941
0.00315121
1.27976
1.13479
1.0981
1.05402
1.00752
0.96556
0.921798
0.876379
0.82829
0.776975
0.72206
0.66327
0.600436
0.533503
0.462532
0.387711
0.309389
0.22808
0.144507
0.0595639
-0.0255966
-0.109655
-0.191109
-0.268297
-0.339556
-0.403229
-0.457857
-0.502244
-0.535583
-0.557495
-0.568098
-0.567946
-0.557979
-0.53943
-0.513697
-0.482249
-0.446532
-0.407885
-0.367501
-0.326414
-0.285491
-0.245418
-0.206732
-0.169824
-0.13497
-0.102351
-0.0720589
-0.0441328
-0.018564
0.00469938
0.0257267
0.0446131
0.0614623
0.0763804
0.0894802
0.100875
0.110678
0.118991
0.125915
0.131545
0.135981
0.139304
0.141604
0.142949
0.143411
0.143053
0.141944
0.140141
0.137688
0.134643
0.131053
0.126955
0.122388
0.117397
0.112009
0.106268
0.100197
0.0938242
0.0871745
0.0802811
0.0731464
0.0658194
0.0582786
0.0505761
0.0426524
0.0345107
0.0261073
0.0171523
0.00844505
0.0031338
1.2852
1.14027
1.10373
1.05984
1.0136
0.971996
0.928672
0.883817
0.836391
0.785867
0.731921
0.674267
0.612738
0.547283
0.477996
0.405028
0.328747
0.249635
0.168374
0.0858561
0.0031123
-0.0785434
-0.157743
-0.232874
-0.302385
-0.364697
-0.418413
-0.462394
-0.49582
-0.518333
-0.529983
-0.531283
-0.523089
-0.506562
-0.48302
-0.453854
-0.420447
-0.38409
-0.34592
-0.306957
-0.268026
-0.229813
-0.192839
-0.157496
-0.124061
-0.092716
-0.0635709
-0.0366672
-0.0120078
0.0104497
0.0307671
0.0490227
0.0653155
0.0797479
0.092417
0.103435
0.112905
0.120929
0.127603
0.13302
0.137268
0.140431
0.142584
0.143801
0.144152
0.143703
0.142508
0.14063
0.138115
0.135012
0.13137
0.127227
0.122623
0.117599
0.112189
0.106421
0.100325
0.0939317
0.087267
0.0803583
0.0732136
0.0658743
0.0583206
0.0506054
0.0426742
0.034521
0.0260949
0.0171511
0.00846911
0.00315232
1.29147
1.14659
1.11016
1.0665
1.02055
0.979313
0.936483
0.892189
0.845492
0.795879
0.742975
0.686554
0.626451
0.562628
0.49517
0.424246
0.350208
0.273498
0.194811
0.114915
0.0348824
-0.0441536
-0.120812
-0.193668
-0.261206
-0.321969
-0.374618
-0.418071
-0.451544
-0.47465
-0.487416
-0.490285
-0.48404
-0.46974
-0.448621
-0.421995
-0.391166
-0.357362
-0.321678
-0.285084
-0.248394
-0.212262
-0.177208
-0.143619
-0.111777
-0.0818675
-0.0540105
-0.0282621
-0.00462365
0.0169257
0.0364358
0.0539814
0.069648
0.0835302
0.0957208
0.10632
0.115428
0.123132
0.129526
0.134693
0.138724
0.141694
0.143683
0.144756
0.144984
0.144425
0.143138
0.141176
0.138588
0.135425
0.13173
0.12754
0.122893
0.117833
0.112385
0.10659
0.10047
0.0940579
0.0873722
0.080448
0.0732885
0.0659354
0.0583746
0.050648
0.0427138
0.0345152
0.0261255
0.0172245
0.0084938
0.00316622
1.29849
1.15369
1.11745
1.07393
1.02828
0.987452
0.94508
0.901466
0.855511
0.806814
0.755022
0.69991
0.641322
0.579225
0.513727
0.444979
0.373321
0.299198
0.223219
0.146174
0.0689926
-0.00719647
-0.0811527
-0.151531
-0.216918
-0.275967
-0.327408
-0.370233
-0.403669
-0.427344
-0.44124
-0.445741
-0.441543
-0.429623
-0.41111
-0.387224
-0.359183
-0.328155
-0.295169
-0.261161
-0.226904
-0.193047
-0.160091
-0.128421
-0.0983189
-0.0699826
-0.0435368
-0.0190451
0.00346801
0.0240221
0.0426544
0.0594275
0.0744105
0.0876888
0.0993505
0.10949
0.118187
0.125534
0.131617
0.136518
0.140313
0.143078
0.144893
0.145813
0.145902
0.145225
0.143833
0.141779
0.139113
0.135879
0.132118
0.127876
0.123185
0.118085
0.112604
0.106775
0.100628
0.0941907
0.087485
0.0805411
0.0733663
0.0660014
0.058427
0.0506859
0.0427432
0.0345573
0.0261349
0.0171767
0.00847735
0.0031708
1.30632
1.16155
1.1254
1.08213
1.03675
0.996287
0.95441
0.911395
0.866252
0.818521
0.767882
0.714108
0.657089
0.596792
0.533323
0.466832
0.397661
0.326187
0.253069
0.178946
0.104783
0.0315436
-0.0395618
-0.107326
-0.170439
-0.227642
-0.277764
-0.319854
-0.353185
-0.377382
-0.3924
-0.398556
-0.396474
-0.387013
-0.371213
-0.350199
-0.325096
-0.296994
-0.26687
-0.235602
-0.203941
-0.172499
-0.141779
-0.112153
-0.0839106
-0.0572516
-0.0323101
-0.00917081
0.0121434
0.0316325
0.0493199
0.0652565
0.0795061
0.0921441
0.103245
0.112886
0.121154