/*--------------------------------*- C++ -*----------------------------------*\
  =========                 |
  \\      /  F ield         | OpenFOAM: The Open Source CFD Toolbox
   \\    /   O peration     | Website:  https://openfoam.org
    \\  /    A nd           | Version:  11
     \\/     M anipulation  |
\*---------------------------------------------------------------------------*/
FoamFile
{
    format      ascii;
    class       volScalarField;
    location    "0.084";
    object      k;
}
// * * * * * * * * * * * * * * * * * * * * * * * * * * * * * * * * * * * * * //

dimensions      [0 2 -2 0 0 0 0];

internalField   nonuniform List<scalar> 
287084
(
0.381496
0.393978
0.407276
0.419926
0.429821
0.436013
0.438739
0.439238
0.439207
0.439205
0.439202
0.439116
0.439178
0.439366
0.439318
0.439349
0.439408
0.439395
0.439377
0.439366
0.439334
0.439221
0.439259
0.439577
0.439594
0.439568
0.439555
0.439403
0.439394
0.439494
0.439605
0.439576
0.439419
0.439477
0.439495
0.439463
0.439469
0.439418
0.439372
0.439313
0.439183
0.439132
0.43903
0.438986
0.438908
0.438868
0.438829
0.438768
0.438727
0.43866
0.438513
0.43856
0.438785
0.438743
0.438739
0.438728
0.438732
0.43869
0.438568
0.438504
0.438611
0.438691
0.438655
0.438529
0.438609
0.438923
0.438924
0.438875
0.438708
0.438749
0.438841
0.43884
0.43884
0.438668
0.438728
0.438891
0.438788
0.438872
0.43892
0.438917
0.438915
0.438746
0.438722
0.438923
0.43904
0.439034
0.439041
0.439013
0.438956
0.438684
0.381516
0.393972
0.407094
0.419676
0.42963
0.436008
0.438909
0.439438
0.439362
0.439506
0.439762
0.439635
0.439722
0.439789
0.439786
0.439785
0.439694
0.439557
0.439565
0.439592
0.439501
0.439461
0.439674
0.439992
0.43992
0.440001
0.440039
0.439993
0.439993
0.439973
0.439937
0.439699
0.439636
0.439655
0.43952
0.439584
0.439618
0.439582
0.439561
0.43939
0.439436
0.439488
0.439463
0.439457
0.439374
0.439332
0.43916
0.439191
0.439376
0.439364
0.439331
0.439274
0.439268
0.439235
0.439201
0.439127
0.439021
0.438972
0.43894
0.438933
0.438883
0.438831
0.439026
0.43915
0.439134
0.439128
0.438991
0.439094
0.439223
0.439191
0.439117
0.439078
0.439184
0.439188
0.439248
0.439312
0.439291
0.439308
0.439265
0.439075
0.43912
0.4392
0.439156
0.439158
0.439099
0.439108
0.439094
0.439122
0.43911
0.438957
0.381519
0.393967
0.407057
0.419702
0.429559
0.435856
0.438986
0.439743
0.439741
0.439768
0.439757
0.43962
0.439663
0.43973
0.439672
0.439664
0.439568
0.439704
0.439862
0.43987
0.439872
0.439783
0.43972
0.439887
0.44004
0.440016
0.439993
0.439994
0.440002
0.439918
0.439944
0.439903
0.439877
0.43986
0.439868
0.43986
0.439866
0.439811
0.439669
0.439588
0.439512
0.439277
0.439295
0.439385
0.439387
0.439384
0.439271
0.439171
0.439265
0.439378
0.439302
0.439303
0.439311
0.439303
0.439257
0.439256
0.439199
0.439047
0.439006
0.438978
0.438857
0.438943
0.439071
0.439037
0.439033
0.438923
0.439079
0.439299
0.439212
0.43926
0.439274
0.439258
0.439263
0.439241
0.439235
0.439173
0.439124
0.438972
0.439006
0.439055
0.439003
0.438925
0.438963
0.439131
0.439015
0.439112
0.439203
0.4392
0.439197
0.438951
0.381502
0.393953
0.407103
0.419658
0.429472
0.435802
0.438988
0.439822
0.43984
0.439743
0.439743
0.439907
0.439937
0.439894
0.43981
0.439709
0.439691
0.439648
0.439766
0.439905
0.439816
0.439839
0.4398
0.439655
0.439708
0.439796
0.439795
0.439792
0.439603
0.439562
0.439793
0.439903
0.439802
0.439867
0.439889
0.439876
0.439874
0.43984
0.43983
0.439746
0.439719
0.439671
0.43963
0.439578
0.439499
0.439245
0.439235
0.439288
0.439282
0.439275
0.439092
0.439129
0.43919
0.439132
0.439132
0.43914
0.439159
0.439115
0.438966
0.439031
0.439219
0.439151
0.439149
0.439151
0.439139
0.439051
0.439034
0.439011
0.438962
0.439105
0.439274
0.43923
0.439248
0.439221
0.43918
0.439039
0.439064
0.439263
0.439208
0.439282
0.43936
0.439321
0.439184
0.439204
0.439285
0.439276
0.439278
0.439216
0.439169
0.438963
0.381496
0.393953
0.407124
0.419571
0.429508
0.435891
0.438738
0.43977
0.439836
0.43982
0.439815
0.439659
0.439738
0.439803
0.439712
0.439702
0.439699
0.439561
0.439602
0.439696
0.439692
0.439692
0.439542
0.439666
0.439845
0.43979
0.439807
0.439788
0.439701
0.43976
0.439844
0.439725
0.439773
0.439807
0.439788
0.439773
0.439633
0.439513
0.43961
0.439682
0.439634
0.439661
0.439663
0.439622
0.439595
0.439593
0.439613
0.439586
0.439549
0.439496
0.439393
0.439328
0.439285
0.439197
0.439148
0.439108
0.439043
0.438828
0.438836
0.439002
0.43904
0.439006
0.438872
0.438858
0.438849
0.438851
0.438755
0.438826
0.439002
0.438988
0.438986
0.438869
0.438997
0.439292
0.439192
0.439292
0.439366
0.439224
0.43927
0.439337
0.439258
0.439306
0.439317
0.439263
0.439126
0.439044
0.439145
0.439186
0.439138
0.438972
0.381501
0.393951
0.407069
0.419624
0.429609
0.435768
0.438544
0.43933
0.439799
0.439793
0.439653
0.439699
0.439724
0.439694
0.439675
0.439505
0.439508
0.439686
0.439691
0.439743
0.439756
0.43971
0.43956
0.439533
0.439668
0.439689
0.439593
0.439623
0.439863
0.439884
0.439814
0.439863
0.439879
0.439842
0.439814
0.439726
0.439651
0.439425
0.439437
0.439532
0.439402
0.439448
0.439501
0.439455
0.43945
0.439411
0.439349
0.439148
0.439118
0.439183
0.439212
0.439215
0.439141
0.439078
0.439133
0.439216
0.43921
0.43921
0.439137
0.439081
0.43905
0.439044
0.439092
0.439108
0.439071
0.438939
0.438997
0.439216
0.439133
0.439228
0.439291
0.439283
0.439281
0.439181
0.439163
0.439026
0.439078
0.439248
0.439146
0.439224
0.439262
0.43922
0.439145
0.439064
0.439098
0.439093
0.439198
0.439248
0.439199
0.439033
0.381489
0.393941
0.407085
0.419599
0.429655
0.435648
0.438671
0.439581
0.439614
0.439601
0.439594
0.4395
0.439434
0.439638
0.439744
0.439695
0.439909
0.440191
0.440159
0.440143
0.440216
0.440263
0.440217
0.440126
0.440023
0.440018
0.440016
0.440057
0.440067
0.440037
0.440007
0.439999
0.439949
0.439746
0.439743
0.439781
0.439782
0.439773
0.439518
0.439514
0.439589
0.439601
0.439595
0.439448
0.439431
0.439415
0.439358
0.43933
0.43932
0.43932
0.439289
0.439079
0.439061
0.439118
0.43913
0.439133
0.439092
0.439083
0.438929
0.439016
0.439147
0.439133
0.439135
0.439106
0.439094
0.438911
0.438965
0.439094
0.439069
0.439065
0.438943
0.438999
0.43909
0.439067
0.438997
0.439047
0.439187
0.439132
0.439159
0.439122
0.43902
0.438992
0.439156
0.439226
0.43921
0.439207
0.439056
0.43911
0.439177
0.439005
0.38151
0.3939
0.407155
0.419654
0.429338
0.435687
0.438989
0.440209
0.440365
0.440329
0.440187
0.440234
0.440335
0.440261
0.440262
0.440227
0.440293
0.440321
0.440274
0.44011
0.440087
0.440182
0.440104
0.440184
0.440276
0.440218
0.440259
0.440271
0.440255
0.440257
0.440201
0.440194
0.44016
0.440124
0.440114
0.440078
0.440025
0.439926
0.439642
0.439659
0.439737
0.439696
0.439701
0.439682
0.439652
0.439483
0.439422
0.439411
0.439383
0.439405
0.439393
0.439307
0.439198
0.439302
0.439386
0.439345
0.439206
0.439233
0.439342
0.439254
0.439322
0.439394
0.439387
0.4394
0.439376
0.439334
0.439249
0.439106
0.439063
0.438949
0.43898
0.439241
0.439297
0.439272
0.439228
0.439094
0.439148
0.439329
0.43934
0.439347
0.439326
0.439312
0.439096
0.439093
0.43922
0.439237
0.439238
0.439221
0.439211
0.438998
0.3815
0.393935
0.407072
0.419669
0.42949
0.435723
0.43877
0.439616
0.439647
0.439609
0.439548
0.439442
0.439642
0.439968
0.439847
0.439935
0.44001
0.439852
0.439913
0.440173
0.440095
0.440201
0.440289
0.440088
0.440129
0.440269
0.440143
0.440214
0.440305
0.440205
0.440268
0.440292
0.440264
0.440255
0.440162
0.440107
0.44001
0.439955
0.439879
0.439719
0.439541
0.439475
0.439438
0.439326
0.439396
0.439499
0.439331
0.439402
0.439524
0.439504
0.43951
0.439429
0.439404
0.439418
0.439418
0.43933
0.439086
0.439032
0.439112
0.439176
0.439144
0.438957
0.439038
0.43919
0.439123
0.439125
0.439135
0.439123
0.438949
0.438943
0.439264
0.43936
0.439302
0.439294
0.439265
0.439254
0.439088
0.439102
0.439308
0.439242
0.439348
0.439439
0.439432
0.439431
0.439348
0.439338
0.439273
0.439257
0.439193
0.43898
0.381553
0.393837
0.407103
0.419694
0.429488
0.435732
0.438698
0.439361
0.439358
0.439325
0.43947
0.439761
0.439754
0.439721
0.439566
0.439612
0.439706
0.439788
0.439879
0.439841
0.43984
0.439772
0.439782
0.439709
0.439805
0.439893
0.439869
0.439796
0.439785
0.439923
0.439885
0.439899
0.439901
0.439861
0.439824
0.439815
0.439776
0.439668
0.439618
0.43959
0.439488
0.439545
0.439559
0.439539
0.439534
0.439456
0.439303
0.439207
0.439166
0.4391
0.438928
0.438875
0.4389
0.438917
0.438918
0.438775
0.438808
0.438827
0.438673
0.438675
0.438994
0.439141
0.439095
0.439099
0.439109
0.4391
0.438978
0.438859
0.438966
0.439149
0.439136
0.439105
0.439079
0.438949
0.438955
0.438982
0.438832
0.438846
0.439157
0.439235
0.439219
0.439213
0.439041
0.439124
0.439317
0.439232
0.439281
0.439304
0.439252
0.439051
0.381518
0.393913
0.407096
0.419621
0.429485
0.435794
0.438777
0.43944
0.439347
0.439425
0.439606
0.439584
0.439586
0.43952
0.439539
0.439567
0.439559
0.43966
0.439804
0.439838
0.440152
0.440211
0.440168
0.440077
0.439991
0.439993
0.439871
0.43991
0.440053
0.440058
0.440039
0.43982
0.439816
0.439926
0.439824
0.439899
0.439924
0.439801
0.439841
0.439896
0.439875
0.439864
0.439753
0.439671
0.43959
0.439449
0.439107
0.439
0.439091
0.439108
0.438992
0.439038
0.439128
0.439117
0.439127
0.439086
0.439048
0.439015
0.438983
0.438868
0.438972
0.439083
0.439045
0.438952
0.438908
0.439049
0.4391
0.439059
0.438958
0.438891
0.438987
0.439028
0.438905
0.438968
0.43917
0.439159
0.439127
0.439084
0.438986
0.439052
0.439156
0.439012
0.439072
0.439295
0.439335
0.439303
0.439243
0.439239
0.439188
0.439027
0.381487
0.393948
0.407084
0.419629
0.429515
0.435691
0.438805
0.439788
0.43983
0.439808
0.439802
0.439691
0.439667
0.439968
0.440094
0.43999
0.440051
0.440078
0.440054
0.439988
0.440006
0.44024
0.440253
0.440212
0.440087
0.440095
0.440265
0.440293
0.440279
0.440261
0.440278
0.440222
0.440206
0.440209
0.440211
0.440184
0.440188
0.440151
0.440096
0.439982
0.439854
0.439743
0.43964
0.439423
0.439218
0.439098
0.439077
0.439049
0.439039
0.439019
0.438879
0.438852
0.438989
0.438996
0.439116
0.43918
0.439073
0.43913
0.439203
0.439155
0.439158
0.439146
0.439084
0.43888
0.438965
0.439199
0.439196
0.439189
0.439029
0.439002
0.439198
0.439264
0.43922
0.439059
0.439038
0.43919
0.439214
0.439177
0.439029
0.439003
0.439155
0.439227
0.439192
0.439077
0.439152
0.439294
0.439292
0.439292
0.439231
0.439021
0.381518
0.393878
0.407187
0.419618
0.42933
0.435724
0.439024
0.439887
0.439815
0.43983
0.439959
0.43996
0.440005
0.440012
0.439957
0.439917
0.440125
0.440325
0.440331
0.440332
0.44018
0.44026
0.440348
0.440207
0.440282
0.440467
0.440301
0.440376
0.440466
0.440336
0.440384
0.440417
0.440388
0.44038
0.440304
0.44012
0.44001
0.439955
0.439912
0.439851
0.43972
0.439657
0.439616
0.439574
0.439503
0.43937
0.439317
0.43917
0.439226
0.439326
0.439292
0.439272
0.439274
0.439278
0.439235
0.439111
0.439084
0.439096
0.439083
0.439008
0.438976
0.439081
0.439039
0.439151
0.439238
0.43923
0.43923
0.439157
0.439137
0.43896
0.438951
0.43918
0.439229
0.439206
0.439195
0.439043
0.439123
0.439296
0.439305
0.439304
0.439123
0.439109
0.439215
0.439285
0.439252
0.439147
0.439102
0.439073
0.439069
0.438991
0.381516
0.393925
0.407043
0.41964
0.429641
0.435645
0.438644
0.439405
0.439285
0.439307
0.439425
0.439289
0.439357
0.439512
0.439484
0.439419
0.439448
0.439619
0.439713
0.439883
0.439893
0.439887
0.439813
0.439912
0.440269
0.440312
0.440107
0.440161
0.440285
0.440184
0.440223
0.44028
0.44025
0.440253
0.440209
0.44012
0.440032
0.4398
0.439665
0.439599
0.43942
0.439385
0.439439
0.439437
0.439471
0.439434
0.439343
0.439249
0.439321
0.439381
0.43937
0.439369
0.439307
0.439136
0.439077
0.439053
0.439062
0.43907
0.438974
0.439075
0.439135
0.439089
0.438964
0.43893
0.439007
0.439067
0.439036
0.438942
0.438931
0.438863
0.438965
0.439217
0.439214
0.439212
0.439188
0.43918
0.439106
0.438974
0.438956
0.438943
0.438961
0.439206
0.439454
0.439434
0.439437
0.439419
0.439282
0.439289
0.43931
0.439127
0.38151
0.393904
0.407144
0.41967
0.429314
0.435664
0.439072
0.44003
0.439977
0.440018
0.440159
0.44003
0.440037
0.440154
0.440097
0.440129
0.44014
0.440134
0.440126
0.440121
0.440069
0.440122
0.440332
0.44034
0.440327
0.44045
0.440542
0.440369
0.440439
0.440476
0.440325
0.44038
0.440389
0.440305
0.440313
0.440313
0.440313
0.440256
0.440126
0.439994
0.439892
0.439762
0.439463
0.439251
0.439113
0.439107
0.43911
0.439068
0.439071
0.439086
0.439091
0.439039
0.438871
0.438856
0.439008
0.438959
0.439042
0.439136
0.439142
0.439143
0.438958
0.438938
0.439132
0.439225
0.439198
0.439113
0.439214
0.439315
0.439304
0.439296
0.4391
0.439133
0.439194
0.439176
0.43917
0.439005
0.43912
0.439289
0.439288
0.439285
0.439174
0.439155
0.439052
0.439141
0.439243
0.439223
0.439215
0.439133
0.439082
0.438923
0.381492
0.393986
0.407093
0.419544
0.429583
0.435638
0.438778
0.439753
0.439839
0.439799
0.43966
0.439691
0.439773
0.439742
0.439642
0.439688
0.439914
0.439926
0.439935
0.439871
0.439883
0.43991
0.439881
0.440003
0.440129
0.439973
0.440054
0.440235
0.440202
0.4402
0.440157
0.440122
0.439892
0.439898
0.439917
0.43982
0.439822
0.439813
0.439822
0.439767
0.439731
0.439692
0.439686
0.439637
0.439602
0.439566
0.439513
0.439366
0.439294
0.439122
0.43888
0.438946
0.439059
0.439025
0.438961
0.438875
0.438936
0.438935
0.439054
0.439535
0.439586
0.439538
0.439373
0.439369
0.43942
0.439248
0.439316
0.439459
0.439391
0.439424
0.439439
0.439407
0.439351
0.439345
0.439319
0.439264
0.439083
0.439116
0.439179
0.439155
0.439141
0.439052
0.439235
0.439331
0.43929
0.43914
0.439164
0.439225
0.439186
0.439062
0.381502
0.393924
0.407134
0.419691
0.42932
0.435556
0.439049
0.440325
0.440433
0.440393
0.440249
0.440257
0.440385
0.440299
0.440321
0.440414
0.440423
0.440435
0.440412
0.440287
0.440338
0.440453
0.440426
0.440377
0.440288
0.440311
0.440312
0.440384
0.440441
0.440389
0.440421
0.440424
0.440385
0.440373
0.44033
0.44029
0.440249
0.440201
0.44012
0.440049
0.439985
0.439874
0.439619
0.439419
0.43929
0.439224
0.439176
0.439144
0.439081
0.438949
0.438737
0.438782
0.438889
0.438871
0.438869
0.438779
0.439002
0.439225
0.439203
0.439201
0.439198
0.439176
0.439048
0.439132
0.439201
0.4391
0.439125
0.439245
0.439254
0.439232
0.439229
0.439149
0.439054
0.439168
0.439295
0.439288
0.439288
0.439244
0.439226
0.439064
0.439092
0.439287
0.439293
0.439295
0.439263
0.439189
0.439164
0.439176
0.439145
0.438968
0.381503
0.393926
0.407101
0.419729
0.429295
0.435592
0.439123
0.4402
0.440176
0.440286
0.440419
0.440424
0.440425
0.440236
0.440202
0.440263
0.440284
0.440249
0.44031
0.440402
0.440281
0.440375
0.440566
0.440407
0.440465
0.44068
0.440687
0.440656
0.440616
0.440634
0.440578
0.44054
0.440503
0.440514
0.440476
0.44043
0.440367
0.440283
0.440127
0.439941
0.439824
0.439713
0.43956
0.439456
0.439381
0.439312
0.439188
0.438851
0.43881
0.439024
0.439052
0.439059
0.439064
0.43903
0.438901
0.438994
0.439185
0.439002
0.438984
0.43911
0.43904
0.439094
0.439358
0.439393
0.43937
0.439365
0.439352
0.439332
0.439277
0.439101
0.439059
0.439288
0.439454
0.439442
0.439453
0.439411
0.439413
0.439418
0.439351
0.439354
0.439314
0.43923
0.439077
0.43916
0.439271
0.439252
0.439247
0.439168
0.43911
0.438936
0.381507
0.393907
0.407166
0.419655
0.429314
0.435655
0.438983
0.440183
0.440268
0.440151
0.440122
0.440154
0.440147
0.44017
0.440264
0.440269
0.440227
0.440228
0.440165
0.440304
0.440474
0.440448
0.440379
0.440353
0.440419
0.440399
0.440408
0.440354
0.44038
0.440384
0.440327
0.440323
0.440323
0.440302
0.440225
0.440053
0.439763
0.439604
0.439611
0.439648
0.439616
0.439576
0.439549
0.439548
0.439566
0.439532
0.439489
0.439389
0.439167
0.438821
0.438835
0.43894
0.438942
0.438943
0.438845
0.438777
0.438967
0.439187
0.439034
0.439048
0.43918
0.439078
0.43911
0.439386
0.43942
0.439368
0.439189
0.439189
0.439253
0.439066
0.439087
0.439209
0.439077
0.439045
0.439225
0.439293
0.439262
0.439216
0.439105
0.43922
0.439348
0.439297
0.439324
0.43929
0.439244
0.43912
0.439081
0.439075
0.43906
0.438915
0.381456
0.393997
0.407119
0.419614
0.429386
0.435734
0.438941
0.439842
0.439871
0.439761
0.439765
0.439845
0.439824
0.439842
0.439895
0.439884
0.439737
0.439817
0.440079
0.44007
0.440073
0.439998
0.440081
0.440511
0.440664
0.440552
0.440633
0.440664
0.440553
0.440549
0.440556
0.440545
0.440501
0.440458
0.44041
0.440362
0.440273
0.44019
0.440088
0.439999
0.439851
0.439745
0.439636
0.439486
0.439381
0.439162
0.439011
0.438891
0.438851
0.438794
0.438646
0.438604
0.438993
0.439358
0.439245
0.439242
0.439505
0.439675
0.439683
0.439649
0.439569
0.439585
0.439541
0.439353
0.439379
0.439473
0.439463
0.439463
0.439421
0.439412
0.439292
0.439382
0.439477
0.439455
0.439444
0.439357
0.439325
0.439268
0.439207
0.439184
0.439169
0.439223
0.439241
0.439133
0.439142
0.439147
0.439104
0.439074
0.439047
0.43887
0.381509
0.393934
0.407087
0.419615
0.429517
0.435821
0.438635
0.43917
0.439139
0.439304
0.43967
0.439668
0.439669
0.439615
0.439497
0.439599
0.439799
0.439776
0.439785
0.439734
0.439949
0.440501
0.440436
0.440555
0.440707
0.44064
0.440632
0.44061
0.44061
0.440594
0.440568
0.440535
0.440527
0.440502
0.44045
0.44027
0.439995
0.439857
0.439776
0.439708
0.439652
0.439606
0.439561
0.439514
0.43942
0.439196
0.439054
0.43899
0.43881
0.438851
0.438958
0.438865
0.438913
0.438942
0.438906
0.438848
0.438733
0.43875
0.438834
0.438802
0.438679
0.438735
0.438832
0.438829
0.438829
0.438672
0.438765
0.438864
0.438854
0.438838
0.438873
0.439085
0.439216
0.439335
0.439321
0.439327
0.43928
0.43923
0.43919
0.439066
0.439141
0.439267
0.439257
0.439264
0.43922
0.43917
0.439015
0.438914
0.438919
0.438846
0.381521
0.393872
0.407199
0.419608
0.429338
0.43573
0.43903
0.440036
0.440082
0.440057
0.440053
0.439939
0.439989
0.44021
0.440234
0.440183
0.440221
0.440241
0.440211
0.440121
0.440106
0.440353
0.440431
0.440516
0.440671
0.440581
0.440593
0.440552
0.440603
0.440608
0.440572
0.44057
0.440505
0.440384
0.440287
0.440219
0.440093
0.440005
0.439926
0.439867
0.439781
0.439715
0.439634
0.439571
0.439527
0.439451
0.439298
0.439041
0.438817
0.438821
0.438836
0.4388
0.438697
0.438786
0.439254
0.439288
0.439217
0.439238
0.439386
0.439363
0.439458
0.439496
0.439336
0.439395
0.439557
0.439537
0.439536
0.439547
0.439548
0.43946
0.439433
0.439301
0.439236
0.439298
0.43927
0.439393
0.439568
0.439398
0.43945
0.43963
0.43962
0.439625
0.439627
0.439599
0.439554
0.439506
0.4394
0.439364
0.439285
0.439016
0.381507
0.393912
0.407128
0.419702
0.429278
0.435706
0.439061
0.440018
0.440293
0.440333
0.440135
0.440192
0.440283
0.440246
0.440245
0.440148
0.440268
0.440387
0.440265
0.440333
0.440544
0.440554
0.440541
0.440616
0.440824
0.440678
0.440758
0.440824
0.440725
0.440695
0.440673
0.440666
0.440662
0.440653
0.440573
0.440407
0.440236
0.440109
0.439957
0.439612
0.439405
0.439335
0.439206
0.439159
0.439131
0.439125
0.439104
0.43891
0.438945
0.43905
0.439052
0.439051
0.438847
0.438861
0.439251
0.439597
0.439581
0.439465
0.439546
0.439663
0.439653
0.439648
0.439539
0.439531
0.439465
0.439491
0.439503
0.439478
0.439484
0.439446
0.439317
0.439396
0.439572
0.439397
0.439435
0.439632
0.439641
0.439624
0.439415
0.439423
0.439493
0.439315
0.439379
0.439477
0.439477
0.439476
0.439359
0.439347
0.439282
0.439059
0.38152
0.393936
0.407017
0.419725
0.429477
0.435725
0.438742
0.439504
0.439515
0.439423
0.439471
0.439583
0.439581
0.439601
0.439527
0.43971
0.439842
0.439885
0.440263
0.440523
0.440632
0.440634
0.440563
0.440578
0.440586
0.440563
0.440435
0.440492
0.440581
0.440488
0.440477
0.440472
0.440461
0.440359
0.44032
0.440273
0.440231
0.440167
0.439963
0.439711
0.439575
0.439302
0.43915
0.439101
0.439063
0.439015
0.438867
0.43891
0.438948
0.438862
0.43887
0.43887
0.438772
0.438813
0.438839
0.438764
0.438709
0.438678
0.438662
0.438803
0.438935
0.438902
0.438903
0.438871
0.439074
0.439251
0.43928
0.439256
0.439234
0.439107
0.439049
0.439103
0.439109
0.439151
0.439239
0.43924
0.439252
0.439226
0.439082
0.439161
0.439231
0.439233
0.439233
0.439121
0.439037
0.439121
0.439302
0.439277
0.439241
0.439047
0.38148
0.393949
0.407149
0.419573
0.429453
0.435711
0.438947
0.439916
0.439994
0.439973
0.439962
0.439946
0.439877
0.439989
0.440105
0.440082
0.440082
0.439938
0.440011
0.440236
0.440187
0.440192
0.44016
0.440307
0.440444
0.440294
0.440358
0.440651
0.440687
0.440649
0.440647
0.440594
0.440452
0.440385
0.440291
0.440193
0.440109
0.440023
0.439948
0.439882
0.439752
0.439635
0.43955
0.439478
0.439335
0.439168
0.439007
0.438929
0.438891
0.438821
0.438588
0.438578
0.438869
0.438934
0.438915
0.438931
0.438904
0.438844
0.438631
0.438597
0.438745
0.438924
0.438949
0.438771
0.438796
0.439041
0.439094
0.439076
0.439067
0.438916
0.438891
0.438949
0.438827
0.438888
0.439058
0.439034
0.438938
0.43897
0.439115
0.439107
0.439098
0.438969
0.439008
0.439043
0.439035
0.439198
0.439288
0.439269
0.439261
0.438999
0.381515
0.393886
0.407177
0.419633
0.429323
0.435736
0.439042
0.439909
0.439852
0.439902
0.440094
0.440077
0.440052
0.440199
0.440345
0.44022
0.440325
0.440486
0.440327
0.440417
0.440553
0.44038
0.44038
0.440548
0.440533
0.440658
0.440795
0.440676
0.440724
0.440783
0.440757
0.440752
0.440703
0.440654
0.44055
0.440328
0.440113
0.439981
0.439848
0.439738
0.439656
0.439582
0.439535
0.439498
0.439464
0.43942
0.439332
0.439143
0.438847
0.438729
0.438769
0.43878
0.438749
0.438686
0.438814
0.438914
0.438882
0.438831
0.438694
0.438752
0.43886
0.438838
0.438769
0.438749
0.438747
0.438899
0.439083
0.439033
0.439031
0.439023
0.439048
0.439036
0.438942
0.438869
0.439084
0.439238
0.439206
0.439081
0.439107
0.439233
0.439232
0.439222
0.439105
0.438998
0.439092
0.43918
0.439125
0.439119
0.439082
0.438922
0.381503
0.393926
0.4071
0.419732
0.429292
0.435611
0.439095
0.440313
0.440402
0.440384
0.440385
0.440332
0.440164
0.440177
0.440351
0.440327
0.440277
0.440357
0.44047
0.440352
0.440454
0.440643
0.440478
0.440495
0.440674
0.440636
0.44073
0.440763
0.44068
0.440686
0.440689
0.440695
0.440668
0.440626
0.44057
0.440448
0.440296
0.440126
0.44
0.439904
0.439825
0.439764
0.439687
0.43964
0.439566
0.439397
0.439321
0.439162
0.439092
0.439067
0.439026
0.438944
0.438793
0.438992
0.439407
0.43955
0.439675
0.439639
0.439671
0.43968
0.439631
0.439466
0.439522
0.43962
0.439489
0.439525
0.439577
0.439559
0.439513
0.439482
0.43946
0.439452
0.439308
0.439334
0.43936
0.439274
0.439265
0.439269
0.439208
0.439283
0.439381
0.439384
0.439383
0.439176
0.439212
0.439343
0.439319
0.439318
0.439295
0.439099
0.381507
0.393912
0.407128
0.419703
0.429277
0.435705
0.439063
0.440021
0.440297
0.440338
0.440131
0.440156
0.440285
0.440291
0.440294
0.440174
0.440262
0.440393
0.440306
0.440306
0.440276
0.44036
0.440612
0.44052
0.440561
0.440848
0.440885
0.440825
0.440823
0.440806
0.4408
0.440753
0.440657
0.44059
0.440508
0.440351
0.440216
0.440108
0.439962
0.439619
0.439419
0.439251
0.439244
0.439249
0.439224
0.439211
0.439102
0.438917
0.438956
0.43905
0.439046
0.439043
0.438849
0.438929
0.439262
0.439172
0.439171
0.43945
0.439575
0.439574
0.439575
0.439538
0.439523
0.43938
0.439263
0.439308
0.439335
0.439391
0.439428
0.439383
0.43928
0.439235
0.439314
0.43925
0.439357
0.439479
0.439334
0.439401
0.439438
0.439395
0.439391
0.439352
0.439281
0.439172
0.439126
0.439013
0.439104
0.439257
0.439218
0.439063
0.381522
0.393869
0.407202
0.419605
0.429335
0.435761
0.438954
0.440059
0.440125
0.439993
0.44006
0.440156
0.440125
0.440048
0.440065
0.440262
0.44021
0.440283
0.440319
0.44019
0.440215
0.440501
0.440615
0.440605
0.440626
0.440606
0.440579
0.440534
0.440395
0.440446
0.440478
0.440415
0.440402
0.440401
0.440416
0.440382
0.44034
0.440296
0.440212
0.440031
0.439812
0.439675
0.43957
0.439486
0.439439
0.439366
0.439223
0.438875
0.43879
0.438878
0.43896
0.438934
0.438755
0.438861
0.439329
0.439394
0.439368
0.439289
0.439419
0.439641
0.439622
0.43959
0.439413
0.43946
0.439559
0.439507
0.439511
0.439528
0.439545
0.4395
0.43935
0.439391
0.439504
0.439494
0.4395
0.439474
0.439458
0.439366
0.439248
0.439325
0.439494
0.439447
0.439484
0.439527
0.439509
0.439468
0.43938
0.439352
0.43928
0.43904
0.381516
0.393923
0.407089
0.419634
0.4295
0.435752
0.438743
0.439423
0.439431
0.439397
0.439468
0.439692
0.439649
0.439681
0.439689
0.439638
0.439622
0.439802
0.439907
0.439809
0.439839
0.440232
0.440512
0.440493
0.440397
0.440443
0.440528
0.44031
0.440346
0.440444
0.4404
0.440396
0.440366
0.440376
0.440346
0.440292
0.440155
0.440113
0.440008
0.439771
0.439574
0.439487
0.439404
0.439198
0.439124
0.439105
0.438944
0.438997
0.439085
0.438948
0.438899
0.438983
0.43905
0.439031
0.438991
0.43906
0.439099
0.439072
0.439048
0.438808
0.438836
0.439076
0.439105
0.439061
0.438882
0.438936
0.439149
0.439064
0.43916
0.439213
0.4392
0.439198
0.439017
0.43903
0.43922
0.439125
0.439181
0.439327
0.439154
0.439163
0.439349
0.439414
0.439391
0.439375
0.439216
0.43921
0.439369
0.439378
0.439345
0.439124
0.3815
0.39398
0.407085
0.419553
0.429592
0.435637
0.438762
0.439749
0.439794
0.439711
0.43979
0.439825
0.439792
0.43975
0.43965
0.43977
0.439798
0.439916
0.440042
0.440033
0.440056
0.439986
0.440263
0.440529
0.440531
0.440532
0.440514
0.440501
0.440286
0.440308
0.440316
0.440279
0.440273
0.440219
0.440203
0.440142
0.440019
0.439927
0.439854
0.439775
0.439674
0.439602
0.439534
0.439481
0.439442
0.43937
0.439196
0.439151
0.43909
0.439107
0.439113
0.439051
0.438934
0.438867
0.438857
0.438822
0.438757
0.43875
0.439061
0.4393
0.439299
0.439286
0.439095
0.439137
0.439239
0.43921
0.439207
0.439147
0.439134
0.439113
0.439045
0.43913
0.439351
0.439349
0.439301
0.43911
0.439127
0.439302
0.439303
0.439274
0.439279
0.439273
0.439086
0.439131
0.439227
0.439209
0.43921
0.439137
0.439079
0.438887
0.381492
0.393986
0.407093
0.419545
0.429584
0.435642
0.438793
0.439668
0.439676
0.439629
0.439663
0.439751
0.439712
0.439632
0.439549
0.439804
0.440064
0.440076
0.44008
0.439947
0.440081
0.440218
0.44021
0.440192
0.440275
0.440443
0.440377
0.44044
0.440449
0.440414
0.440401
0.440304
0.440191
0.440113
0.439965
0.439856
0.439774
0.439701
0.439689
0.439704
0.43968
0.439648
0.439641
0.439601
0.439429
0.43925
0.439151
0.439109
0.439026
0.438808
0.4387
0.438765
0.438737
0.438803
0.439218
0.439388
0.439359
0.43937
0.43938
0.439366
0.43919
0.439232
0.43933
0.439264
0.439308
0.439332
0.439297
0.439131
0.43911
0.4393
0.439339
0.439279
0.43929
0.439284
0.439227
0.439141
0.439116
0.439094
0.4392
0.439248
0.43915
0.439145
0.43911
0.439171
0.439194
0.439147
0.438988
0.439007
0.439102
0.438919
0.381506
0.393916
0.407121
0.419704
0.429295
0.435644
0.43908
0.440194
0.440259
0.440239
0.44022
0.440194
0.440099
0.440186
0.440387
0.440362
0.440365
0.440301
0.440299
0.440273
0.440358
0.440396
0.440265
0.440346
0.440566
0.4404
0.440467
0.44058
0.440425
0.440486
0.440499
0.440456
0.440433
0.440323
0.440217
0.440114
0.440047
0.439923
0.439847
0.439782
0.439721
0.439673
0.439602
0.439511
0.439324
0.439047
0.439007
0.439008
0.438932
0.439052
0.439252
0.439153
0.43922
0.439249
0.43922
0.4392
0.439074
0.439029
0.439132
0.439149
0.439119
0.439106
0.439175
0.439196
0.439157
0.43907
0.439038
0.439117
0.439135
0.439059
0.439058
0.439265
0.439343
0.439422
0.439432
0.439416
0.439414
0.439291
0.439281
0.439257
0.43927
0.439232
0.439048
0.439098
0.439268
0.439274
0.439283
0.439274
0.43925
0.439003
0.381498
0.393935
0.407113
0.419734
0.429253
0.43562
0.439051
0.440202
0.440389
0.440351
0.440229
0.440194
0.440269
0.440248
0.440256
0.440285
0.440299
0.440241
0.440358
0.440629
0.440577
0.440646
0.440668
0.440494
0.440532
0.440637
0.440551
0.440573
0.440576
0.440544
0.440541
0.440507
0.440468
0.440426
0.440358
0.440318
0.440221
0.440138
0.440063
0.439909
0.439821
0.439772
0.4397
0.439542
0.439451
0.439398
0.439319
0.439276
0.43919
0.439134
0.438969
0.439004
0.439189
0.439219
0.439185
0.439027
0.439097
0.439251
0.439187
0.439217
0.439223
0.439194
0.439176
0.439168
0.439052
0.439073
0.439259
0.439189
0.439296
0.439511
0.439496
0.439475
0.439353
0.439286
0.439441
0.439523
0.439431
0.439474
0.439485
0.439429
0.439426
0.439424
0.439424
0.439401
0.439335
0.439139
0.439081
0.439084
0.439079
0.438951
0.381468
0.393966
0.407159
0.419586
0.429362
0.435795
0.438901
0.43978
0.439861
0.439836
0.439812
0.43965
0.439676
0.43972
0.439541
0.439566
0.439876
0.43996
0.439931
0.439835
0.439896
0.440151
0.440328
0.440334
0.44016
0.44024
0.440303
0.440279
0.440262
0.44005
0.440071
0.440102
0.440042
0.439909
0.439856
0.439806
0.439705
0.439656
0.43967
0.439671
0.439635
0.439632
0.439575
0.439456
0.439305
0.439136
0.439072
0.438996
0.438796
0.43873
0.438904
0.438988
0.439066
0.439075
0.439064
0.439062
0.438862
0.438849
0.439084
0.439087
0.439214
0.439346
0.439243
0.439253
0.439243
0.439111
0.439086
0.439175
0.43914
0.439143
0.439143
0.439103
0.439077
0.439129
0.43915
0.439071
0.439135
0.439272
0.439244
0.439128
0.439123
0.439237
0.439126
0.439208
0.439267
0.439236
0.439142
0.439156
0.439204
0.439
0.381509
0.393906
0.407143
0.419663
0.429339
0.435632
0.43903
0.440238
0.440389
0.440349
0.440186
0.440219
0.440346
0.440274
0.440277
0.440234
0.440088
0.440096
0.440267
0.440265
0.440248
0.440242
0.440222
0.440351
0.440589
0.440567
0.440573
0.440591
0.440595
0.440526
0.440368
0.44028
0.440235
0.440151
0.440122
0.440074
0.440037
0.440028
0.440024
0.439959
0.439868
0.43978
0.439695
0.439515
0.439372
0.439309
0.439215
0.43916
0.439077
0.438827
0.438862
0.439127
0.439124
0.439128
0.439122
0.43902
0.439054
0.439117
0.439005
0.439
0.438996
0.439001
0.438918
0.438992
0.439082
0.438904
0.438969
0.439089
0.439043
0.438975
0.439036
0.439312
0.439272
0.439344
0.439367
0.439285
0.439306
0.439358
0.439339
0.439285
0.439111
0.439114
0.439233
0.439164
0.439163
0.439161
0.439023
0.439037
0.439112
0.438931
0.38151
0.393921
0.407068
0.419658
0.429527
0.435777
0.43865
0.439272
0.439191
0.439229
0.439588
0.439665
0.43965
0.439648
0.439491
0.439588
0.439856
0.439847
0.439816
0.439927
0.440163
0.44002
0.440036
0.440247
0.440234
0.440348
0.440604
0.440587
0.440586
0.440588
0.440586
0.440533
0.440487
0.440412
0.440253
0.440127
0.440051
0.439982
0.439859
0.439781
0.439733
0.439687
0.439609
0.439572
0.439528
0.439436
0.439201
0.439204
0.43928
0.43915
0.439216
0.439249
0.439219
0.439195
0.438971
0.438958
0.439045
0.439035
0.438965
0.438877
0.438957
0.43905