/*--------------------------------*- C++ -*----------------------------------*\
  =========                 |
  \\      /  F ield         | OpenFOAM: The Open Source CFD Toolbox
   \\    /   O peration     | Website:  https://openfoam.org
    \\  /    A nd           | Version:  11
     \\/     M anipulation  |
\*---------------------------------------------------------------------------*/
FoamFile
{
    format      ascii;
    class       volScalarField;
    location    "0.084";
    object      nut;
}
// * * * * * * * * * * * * * * * * * * * * * * * * * * * * * * * * * * * * * //

dimensions      [0 2 -1 0 0 0 0];

internalField   nonuniform List<scalar> 
287084
(
0.00083636
0.000864484
0.000895025
0.000924597
0.000948243
0.000963617
0.000970918
0.000972871
0.00097333
0.000973623
0.000973755
0.000973598
0.000973719
0.00097411
0.000973969
0.000973988
0.000974054
0.000973949
0.00097383
0.00097373
0.000973593
0.000973285
0.000973326
0.000973995
0.000974024
0.000973967
0.000973952
0.000973631
0.000973637
0.000973911
0.000974251
0.000974317
0.000974177
0.000974563
0.00097486
0.000975028
0.000975271
0.000975377
0.000975488
0.000975564
0.000975472
0.000975543
0.000975492
0.000975554
0.000975525
0.000975568
0.000975598
0.000975562
0.000975555
0.000975476
0.000975218
0.000975351
0.000975861
0.000975776
0.000975766
0.000975737
0.000975731
0.000975619
0.000975322
0.000975154
0.000975376
0.000975533
0.000975426
0.000975124
0.00097527
0.000975937
0.000975918
0.00097577
0.000975356
0.000975412
0.000975599
0.000975561
0.000975518
0.000975109
0.00097522
0.00097557
0.000975324
0.000975486
0.000975579
0.000975554
0.000975529
0.000975142
0.000975068
0.000975497
0.000975744
0.000975708
0.000975693
0.000975601
0.000975459
0.000974796
0.00118218
0.00122078
0.00126182
0.00130126
0.0013327
0.0013531
0.00136258
0.00136455
0.00136451
0.00136508
0.00136593
0.00136552
0.00136575
0.00136589
0.0013658
0.00136569
0.00136529
0.00136475
0.00136466
0.00136463
0.00136425
0.00136405
0.00136464
0.00136559
0.00136536
0.00136563
0.00136577
0.00136569
0.00136583
0.00136592
0.00136597
0.00136545
0.00136549
0.00136581
0.00136567
0.00136616
0.00136655
0.00136674
0.00136697
0.00136672
0.00136715
0.00136757
0.00136774
0.00136794
0.00136789
0.00136794
0.00136757
0.00136781
0.0013685
0.00136857
0.00136854
0.00136844
0.00136847
0.0013684
0.00136833
0.0013681
0.00136777
0.0013676
0.00136748
0.00136742
0.00136724
0.00136705
0.00136763
0.00136798
0.0013679
0.00136783
0.00136736
0.00136764
0.00136801
0.00136787
0.0013676
0.00136745
0.00136775
0.00136773
0.00136789
0.00136807
0.00136798
0.001368
0.00136784
0.00136723
0.00136734
0.00136757
0.0013674
0.00136737
0.00136717
0.00136718
0.00136712
0.0013672
0.00136716
0.00136666
0.00118223
0.00122096
0.00126193
0.00130161
0.00133277
0.00135288
0.001363
0.00136562
0.00136576
0.00136593
0.00136592
0.00136548
0.00136555
0.00136569
0.0013654
0.00136527
0.00136485
0.00136514
0.00136551
0.00136542
0.00136532
0.00136496
0.0013647
0.00136517
0.00136563
0.00136558
0.00136556
0.00136566
0.0013658
0.0013657
0.00136597
0.00136605
0.00136621
0.00136641
0.00136671
0.00136698
0.0013673
0.00136743
0.00136729
0.00136733
0.00136738
0.00136691
0.00136721
0.00136772
0.00136793
0.00136811
0.00136792
0.00136774
0.00136816
0.00136861
0.00136845
0.00136852
0.00136859
0.00136861
0.00136848
0.00136849
0.00136832
0.00136785
0.00136771
0.00136759
0.00136718
0.00136742
0.00136779
0.00136764
0.0013676
0.00136722
0.00136766
0.00136831
0.001368
0.00136812
0.00136813
0.00136805
0.00136804
0.00136794
0.00136789
0.00136767
0.00136749
0.00136699
0.00136707
0.0013672
0.00136702
0.00136675
0.00136685
0.00136735
0.00136697
0.00136726
0.00136753
0.00136751
0.0013675
0.00136669
0.0011822
0.00122103
0.0012623
0.00130181
0.00133293
0.00135317
0.00136344
0.00136622
0.00136636
0.00136605
0.00136601
0.00136645
0.00136646
0.00136622
0.00136584
0.00136539
0.0013652
0.00136493
0.00136517
0.00136548
0.00136509
0.00136507
0.00136488
0.00136438
0.00136453
0.00136482
0.00136487
0.00136496
0.00136449
0.00136452
0.00136544
0.00136601
0.00136594
0.00136641
0.00136678
0.00136704
0.00136734
0.00136755
0.00136783
0.00136787
0.00136807
0.00136819
0.00136832
0.00136839
0.00136835
0.00136774
0.00136787
0.00136818
0.00136828
0.00136835
0.00136786
0.00136803
0.00136827
0.00136812
0.00136814
0.00136817
0.00136823
0.00136809
0.00136761
0.00136779
0.00136835
0.00136811
0.00136807
0.00136804
0.00136796
0.00136765
0.00136757
0.00136745
0.00136726
0.00136767
0.00136817
0.00136799
0.00136801
0.00136789
0.00136773
0.00136726
0.00136731
0.0013679
0.00136771
0.00136791
0.00136814
0.00136799
0.00136754
0.00136759
0.00136783
0.00136779
0.00136778
0.00136758
0.00136742
0.00136673
0.0011822
0.00122113
0.0012625
0.00130171
0.00133323
0.00135363
0.00136283
0.0013662
0.00136645
0.00136637
0.0013663
0.00136572
0.00136586
0.00136594
0.00136552
0.00136535
0.00136519
0.00136462
0.0013646
0.00136476
0.00136463
0.00136453
0.00136398
0.00136432
0.00136486
0.0013647
0.00136481
0.00136484
0.0013647
0.00136506
0.00136553
0.0013654
0.00136581
0.00136621
0.00136646
0.00136673
0.00136663
0.00136658
0.00136721
0.00136774
0.00136789
0.00136825
0.00136851
0.00136862
0.00136874
0.00136892
0.00136914
0.00136919
0.00136919
0.00136912
0.00136887
0.00136872
0.00136863
0.00136839
0.00136825
0.00136813
0.00136792
0.00136724
0.00136724
0.00136773
0.00136783
0.00136768
0.00136723
0.00136715
0.00136708
0.00136705
0.00136671
0.00136689
0.0013674
0.00136732
0.00136727
0.00136687
0.00136724
0.00136812
0.00136778
0.00136806
0.00136826
0.00136779
0.0013679
0.00136809
0.00136782
0.00136795
0.00136796
0.00136777
0.00136733
0.00136706
0.00136737
0.00136748
0.00136733
0.00136676
0.00118222
0.00122114
0.00126236
0.00130195
0.00133367
0.00135341
0.0013624
0.001365
0.00136647
0.0013664
0.00136587
0.0013659
0.00136584
0.0013656
0.00136538
0.00136469
0.00136454
0.00136493
0.0013648
0.00136481
0.00136472
0.00136447
0.00136393
0.00136378
0.00136418
0.00136426
0.00136402
0.00136422
0.0013651
0.00136535
0.00136535
0.00136576
0.0013661
0.00136629
0.00136653
0.0013666
0.00136672
0.00136636
0.00136674
0.00136736
0.00136726
0.00136769
0.00136812
0.00136821
0.00136841
0.00136847
0.00136843
0.00136794
0.00136796
0.00136825
0.00136841
0.00136847
0.00136827
0.00136809
0.00136827
0.00136853
0.0013685
0.00136848
0.00136823
0.00136802
0.00136789
0.00136784
0.00136795
0.00136795
0.0013678
0.00136734
0.00136749
0.00136813
0.00136783
0.00136808
0.00136824
0.00136817
0.00136813
0.00136778
0.00136769
0.00136724
0.00136737
0.00136787
0.00136752
0.00136774
0.00136784
0.00136768
0.00136743
0.00136716
0.00136725
0.00136722
0.00136754
0.00136768
0.00136752
0.00136695
0.00118218
0.00122114
0.00126246
0.00130194
0.00133391
0.00135313
0.00136288
0.00136586
0.00136597
0.00136586
0.00136573
0.00136529
0.00136493
0.00136541
0.00136557
0.00136524
0.00136572
0.00136642
0.00136616
0.00136595
0.00136603
0.00136606
0.00136583
0.00136548
0.00136514
0.00136513
0.00136519
0.00136542
0.00136561
0.0013657
0.00136585
0.00136611
0.00136626
0.00136596
0.00136631
0.0013668
0.00136717
0.00136751
0.00136708
0.00136741
0.00136796
0.0013683
0.00136855
0.00136833
0.00136849
0.00136862
0.0013686
0.00136864
0.00136871
0.00136879
0.00136876
0.00136815
0.00136812
0.00136831
0.00136835
0.00136835
0.0013682
0.00136815
0.00136764
0.00136787
0.00136824
0.00136816
0.00136812
0.00136798
0.0013679
0.00136728
0.00136741
0.00136777
0.00136764
0.00136759
0.00136717
0.0013673
0.00136755
0.00136744
0.00136718
0.00136731
0.00136771
0.00136751
0.00136757
0.00136743
0.00136708
0.00136697
0.00136747
0.00136767
0.0013676
0.00136757
0.00136709
0.00136725
0.00136745
0.00136686
0.00118225
0.00122102
0.0012627
0.00130215
0.00133297
0.00135331
0.00136395
0.00136789
0.00136837
0.00136817
0.0013676
0.00136759
0.00136773
0.00136731
0.00136713
0.00136683
0.00136683
0.00136673
0.0013664
0.00136572
0.00136549
0.00136565
0.00136531
0.00136549
0.00136574
0.00136558
0.00136577
0.00136592
0.00136603
0.00136626
0.00136634
0.00136662
0.00136686
0.00136711
0.00136746
0.00136775
0.00136799
0.00136807
0.00136757
0.00136798
0.00136856
0.00136874
0.00136903
0.00136922
0.00136934
0.00136899
0.00136895
0.00136904
0.00136905
0.0013692
0.00136921
0.00136898
0.00136866
0.00136898
0.00136924
0.0013691
0.00136864
0.00136869
0.00136899
0.00136867
0.00136884
0.00136902
0.00136895
0.00136894
0.00136881
0.00136863
0.00136832
0.00136782
0.00136764
0.00136724
0.0013673
0.00136807
0.0013682
0.00136809
0.00136791
0.00136746
0.0013676
0.00136813
0.00136814
0.00136814
0.00136804
0.00136798
0.00136729
0.00136725
0.00136764
0.00136768
0.00136766
0.0013676
0.00136756
0.00136684
0.00118222
0.00122114
0.00126245
0.00130222
0.00133348
0.00135347
0.00136331
0.00136608
0.00136616
0.00136595
0.00136562
0.00136511
0.00136555
0.00136636
0.00136578
0.00136584
0.00136586
0.00136515
0.00136514
0.00136576
0.00136535
0.00136553
0.00136569
0.001365
0.00136509
0.00136554
0.00136521
0.00136556
0.00136602
0.00136594
0.00136643
0.00136683
0.00136712
0.00136749
0.00136762
0.00136788
0.00136801
0.00136826
0.00136842
0.00136831
0.0013681
0.00136822
0.00136839
0.00136829
0.00136872
0.00136922
0.00136885
0.00136918
0.00136966
0.00136966
0.00136972
0.00136949
0.00136942
0.00136946
0.00136944
0.00136914
0.00136834
0.00136814
0.00136834
0.00136849
0.00136834
0.0013677
0.0013679
0.00136832
0.00136806
0.00136801
0.00136799
0.0013679
0.00136731
0.00136725
0.0013682
0.00136846
0.00136824
0.00136817
0.00136804
0.00136797
0.00136742
0.00136743
0.00136805
0.00136781
0.00136812
0.00136838
0.00136834
0.00136832
0.00136804
0.00136799
0.00136777
0.00136771
0.0013675
0.00136678
0.00118238
0.00122084
0.00126255
0.00130231
0.00133349
0.00135352
0.00136311
0.00136531
0.00136529
0.00136507
0.00136537
0.00136609
0.00136586
0.00136554
0.00136483
0.00136474
0.0013648
0.00136483
0.00136489
0.00136456
0.00136437
0.001364
0.00136391
0.0013636
0.00136386
0.00136415
0.00136415
0.00136405
0.00136421
0.0013649
0.0013651
0.00136551
0.00136592
0.00136623
0.00136657
0.00136701
0.00136735
0.00136747
0.00136774
0.00136806
0.00136811
0.00136862
0.00136896
0.00136915
0.00136935
0.00136928
0.00136895
0.00136876
0.00136871
0.00136856
0.00136806
0.00136791
0.00136798
0.00136802
0.001368
0.00136751
0.00136757
0.00136758
0.00136705
0.001367
0.00136793
0.00136833
0.00136813
0.00136808
0.00136805
0.00136797
0.00136753
0.00136711
0.00136739
0.00136791
0.00136782
0.00136768
0.00136755
0.00136711
0.00136709
0.00136713
0.00136663
0.00136664
0.00136758
0.0013678
0.00136772
0.00136768
0.00136712
0.00136736
0.00136794
0.00136766
0.0013678
0.00136786
0.00136769
0.00136701
0.00118227
0.00122108
0.00126254
0.00130209
0.00133349
0.00135373
0.00136337
0.00136557
0.00136525
0.00136538
0.00136577
0.0013655
0.00136529
0.00136485
0.00136466
0.0013645
0.00136422
0.00136429
0.00136449
0.00136438
0.00136514
0.00136515
0.00136488
0.0013645
0.00136419
0.00136422
0.00136392
0.00136419
0.00136485
0.00136515
0.00136543
0.00136515
0.00136558
0.0013664
0.00136659
0.00136733
0.00136791
0.00136801
0.00136859
0.00136919
0.00136951
0.00136982
0.00136977
0.00136978
0.00136974
0.00136947
0.00136854
0.00136831
0.00136867
0.00136877
0.00136843
0.00136857
0.00136884
0.00136878
0.00136877
0.00136859
0.00136842
0.00136826
0.0013681
0.00136767
0.00136793
0.00136821
0.00136803
0.00136767
0.00136747
0.00136785
0.00136795
0.00136776
0.00136739
0.00136712
0.00136738
0.00136746
0.00136703
0.00136718
0.00136777
0.0013677
0.00136756
0.00136739
0.00136706
0.00136723
0.00136753
0.00136706
0.00136722
0.0013679
0.00136801
0.00136789
0.00136769
0.00136766
0.00136749
0.00136694
0.00118218
0.00122119
0.0012625
0.00130212
0.00133359
0.00135341
0.00136346
0.00136665
0.00136674
0.00136655
0.00136635
0.0013658
0.00136548
0.00136617
0.00136629
0.0013657
0.00136561
0.00136543
0.00136509
0.00136464
0.00136447
0.00136501
0.0013649
0.00136467
0.00136423
0.00136428
0.00136489
0.00136514
0.00136534
0.00136559
0.00136602
0.00136629
0.00136673
0.00136726
0.00136781
0.00136827
0.00136882
0.00136923
0.00136955
0.00136964
0.00136965
0.00136966
0.00136965
0.00136924
0.00136881
0.00136861
0.00136867
0.00136867
0.0013687
0.00136867
0.00136825
0.00136815
0.00136855
0.00136854
0.00136886
0.001369
0.0013686
0.00136871
0.00136887
0.00136864
0.00136858
0.00136847
0.0013682
0.00136749
0.00136769
0.00136835
0.00136828
0.0013682
0.00136764
0.0013675
0.00136806
0.00136821
0.00136803
0.00136748
0.00136737
0.00136781
0.00136785
0.0013677
0.0013672
0.00136709
0.00136753
0.00136774
0.0013676
0.00136722
0.00136744
0.00136786
0.00136785
0.00136783
0.00136763
0.00136691
0.00118227
0.00122097
0.00126283
0.00130209
0.00133301
0.00135351
0.00136413
0.00136695
0.00136668
0.00136659
0.00136681
0.00136658
0.00136647
0.00136622
0.00136576
0.00136534
0.0013657
0.00136603
0.00136576
0.0013655
0.00136478
0.00136483
0.00136494
0.00136438
0.00136457
0.00136515
0.00136474
0.00136515
0.00136569
0.00136563
0.0013662
0.00136678
0.00136722
0.00136777
0.00136812
0.00136814
0.00136838
0.00136877
0.00136916
0.00136944
0.00136946
0.00136963
0.00136982
0.00136995
0.00136994
0.00136969
0.00136964
0.00136927
0.00136949
0.00136983
0.00136972
0.00136963
0.0013696
0.00136956
0.00136936
0.0013689
0.00136874
0.0013687
0.00136858
0.00136826
0.00136808
0.00136833
0.00136812
0.00136839
0.00136858
0.00136849
0.00136842
0.00136813
0.001368
0.00136739
0.00136731
0.00136797
0.00136807
0.00136795
0.00136787
0.00136736
0.00136757
0.00136807
0.00136807
0.00136804
0.00136744
0.00136737
0.00136768
0.00136788
0.00136775
0.0013674
0.00136725
0.00136715
0.00136713
0.00136683
0.00118226
0.00122112
0.00126238
0.00130215
0.00133398
0.00135326
0.00136294
0.00136543
0.00136501
0.00136493
0.0013651
0.00136443
0.00136438
0.00136457
0.00136418
0.00136367
0.00136344
0.00136366
0.00136365
0.00136389
0.00136366
0.00136341
0.001363
0.00136319
0.00136424
0.00136439
0.00136387
0.00136423
0.0013649
0.00136496
0.00136554
0.00136624
0.00136673
0.00136736
0.00136786
0.00136822
0.00136857
0.00136844
0.00136857
0.00136887
0.00136875
0.00136903
0.00136952
0.00136977
0.00137009
0.00137013
0.00136996
0.00136974
0.00137
0.0013702
0.00137014
0.0013701
0.00136985
0.00136925
0.001369
0.00136884
0.00136878
0.00136872
0.00136832
0.00136855
0.00136865
0.00136841
0.00136794
0.00136775
0.00136791
0.00136802
0.00136785
0.00136749
0.00136739
0.00136711
0.00136737
0.0013681
0.00136804
0.00136798
0.00136786
0.0013678
0.00136753
0.00136708
0.00136699
0.00136692
0.00136695
0.00136768
0.00136843
0.00136835
0.00136834
0.00136826
0.00136782
0.00136782
0.00136788
0.00136725
0.00118225
0.00122105
0.00126269
0.00130224
0.00133296
0.0013533
0.00136426
0.00136735
0.00136713
0.00136711
0.00136733
0.00136667
0.00136641
0.00136647
0.00136597
0.00136574
0.00136544
0.00136508
0.00136473
0.00136441
0.00136396
0.00136388
0.00136434
0.00136423
0.00136413
0.00136454
0.00136494
0.00136461
0.00136514
0.00136567
0.0013657
0.00136644
0.0013671
0.00136751
0.00136822
0.00136891
0.00136957
0.00137003
0.0013702
0.00137032
0.00137046
0.00137045
0.00136984
0.00136944
0.00136922
0.00136936
0.00136947
0.0013694
0.00136943
0.00136947
0.00136945
0.00136924
0.00136865
0.00136852
0.00136891
0.00136866
0.00136882
0.00136902
0.00136893
0.00136884
0.00136816
0.001368
0.00136852
0.00136872
0.00136855
0.0013682
0.00136844
0.00136868
0.00136858
0.00136849
0.00136781
0.00136786
0.00136799
0.00136789
0.00136782
0.00136726
0.00136758
0.00136807
0.00136803
0.00136799
0.00136761
0.00136753
0.00136718
0.00136744
0.00136773
0.00136765
0.00136761
0.00136734
0.00136717
0.00136662
0.00118219
0.00122131
0.00126253
0.00130185
0.00133378
0.00135322
0.00136332
0.00136646
0.00136667
0.00136638
0.00136572
0.00136555
0.00136551
0.00136509
0.00136443
0.00136423
0.00136457
0.00136425
0.00136393
0.0013634
0.00136314
0.00136296
0.00136266
0.0013629
0.00136323
0.00136277
0.00136315
0.00136394
0.00136418
0.00136462
0.00136503
0.00136554
0.0013655
0.00136624
0.00136704
0.00136747
0.00136818
0.00136882
0.00136945
0.00136983
0.00137019
0.00137047
0.00137079
0.0013709
0.00137099
0.00137102
0.00137095
0.00137054
0.00137033
0.00136977
0.00136897
0.00136912
0.00136939
0.00136919
0.00136889
0.00136851
0.0013686
0.00136848
0.00136874
0.00137014
0.00137019
0.00136994
0.00136932
0.00136922
0.00136929
0.00136866
0.00136879
0.00136916
0.00136888
0.00136891
0.00136889
0.00136873
0.0013685
0.00136843
0.0013683
0.00136808
0.00136748
0.00136754
0.0013677
0.00136759
0.00136752
0.00136721
0.00136776
0.00136803
0.00136788
0.00136739
0.00136746
0.00136763
0.0013675
0.00136706
0.00118222
0.00122111
0.00126266
0.0013023
0.00133295
0.00135295
0.00136415
0.00136822
0.00136849
0.00136819
0.0013675
0.00136725
0.00136733
0.00136672
0.00136643
0.00136635
0.001366
0.00136565
0.00136521
0.00136448
0.00136431
0.00136439
0.00136408
0.00136378
0.00136344
0.00136354
0.00136368
0.00136416
0.00136471
0.00136502
0.00136571
0.00136638
0.00136699
0.00136772
0.00136837
0.00136902
0.00136964
0.00137019
0.00137058
0.00137092
0.00137122
0.00137128
0.00137082
0.00137046
0.00137026
0.00137019
0.00137012
0.00137006
0.00136986
0.00136942
0.0013687
0.00136876
0.001369
0.00136884
0.00136872
0.00136832
0.0013689
0.00136948
0.00136929
0.00136917
0.00136904
0.00136887
0.00136836
0.00136852
0.00136864
0.00136824
0.00136823
0.00136852
0.00136847
0.00136833
0.00136825
0.00136794
0.00136759
0.00136789
0.00136824
0.00136817
0.00136812
0.00136794
0.00136785
0.00136731
0.00136737
0.00136795
0.00136794
0.00136792
0.0013678
0.00136755
0.00136746
0.00136748
0.00136737
0.00136677
0.00118222
0.00122112
0.00126255
0.00130241
0.00133287
0.00135305
0.00136436
0.00136781
0.00136765
0.00136781
0.00136797
0.0013677
0.00136737
0.00136643
0.00136595
0.00136575
0.00136542
0.00136491
0.0013647
0.00136462
0.00136391
0.0013639
0.00136425
0.0013636
0.00136371
0.00136441
0.00136459
0.00136477
0.00136504
0.00136561
0.00136606
0.00136666
0.00136732
0.00136817
0.00136888
0.00136956
0.00137015
0.00137062
0.00137079
0.0013708
0.00137094
0.00137101
0.00137087
0.00137081
0.00137077
0.00137068
0.00137037
0.00136934
0.0013692
0.00136983
0.00136984
0.00136978
0.00136968
0.00136946
0.00136893
0.00136909
0.00136956
0.00136886
0.00136868
0.00136895
0.00136861
0.00136866
0.00136938
0.00136938
0.00136921
0.00136909
0.00136896
0.00136882
0.00136857
0.00136794
0.00136774
0.00136839
0.00136885
0.00136876
0.00136874
0.00136856
0.00136852
0.00136849
0.00136825
0.00136822
0.00136807
0.00136778
0.00136727
0.00136751
0.00136783
0.00136775
0.00136772
0.00136745
0.00136726
0.00136666
0.00118224
0.00122106
0.00126275
0.00130218
0.00133292
0.00135323
0.00136391
0.00136773
0.00136791
0.00136735
0.001367
0.00136679
0.00136643
0.00136613
0.00136603
0.00136564
0.0013651
0.00136468
0.00136407
0.00136411
0.00136428
0.00136389
0.00136343
0.00136318
0.00136331
0.00136329
0.00136349
0.00136362
0.00136412
0.00136468
0.00136517
0.00136591
0.00136673
0.00136752
0.00136815
0.00136848
0.00136839
0.00136865
0.00136936
0.00137008
0.0013705
0.0013708
0.00137105
0.00137131
0.00137155
0.00137157
0.0013715
0.00137121
0.00137049
0.00136935
0.00136931
0.00136954
0.00136943
0.0013693
0.00136886
0.00136851
0.00136897
0.00136952
0.0013689
0.00136882
0.0013691
0.00136866
0.00136864
0.00136939
0.0013694
0.00136914
0.00136848
0.0013684
0.00136851
0.00136785
0.00136785
0.00136816
0.00136769
0.00136753
0.00136804
0.0013682
0.00136806
0.00136787
0.00136749
0.00136781
0.00136818
0.00136799
0.00136805
0.00136792
0.00136775
0.00136734
0.00136721
0.00136717
0.00136712
0.0013666
0.00118208
0.00122134
0.0012626
0.00130204
0.00133314
0.00135346
0.00136376
0.00136664
0.00136664
0.00136609
0.00136584
0.00136577
0.00136536
0.00136503
0.00136478
0.00136433
0.00136344
0.00136325
0.00136364
0.0013632
0.00136284
0.00136228
0.00136228
0.00136344
0.00136385
0.00136355
0.00136398
0.00136439
0.0013645
0.00136506
0.00136578
0.00136654
0.00136726
0.00136802
0.00136879
0.00136952
0.0013701
0.00137062
0.00137101
0.00137135
0.00137141
0.00137151
0.00137152
0.00137131
0.00137117
0.0013706
0.00137018
0.00136982
0.00136966
0.00136941
0.00136885
0.00136861
0.0013697
0.0013707
0.00137021
0.00137005
0.00137073
0.00137111
0.00137099
0.00137075
0.00137036
0.00137029
0.00137003
0.00136933
0.0013693
0.00136949
0.00136936
0.00136927
0.00136906
0.00136895
0.0013685
0.00136872
0.00136895
0.00136882
0.00136873
0.00136841
0.00136826
0.00136804
0.00136781
0.0013677
0.00136762
0.00136776
0.00136779
0.00136743
0.00136743
0.00136743
0.00136728
0.00136717
0.00136707
0.00136646
0.00118224
0.00122115
0.0012625
0.00130204
0.00133354
0.00135372
0.00136279
0.00136453
0.00136433
0.00136464
0.0013655
0.00136517
0.00136481
0.00136425
0.00136346
0.00136334
0.00136352
0.001363
0.00136258
0.001362
0.00136228
0.00136366
0.00136319
0.00136339
0.00136378
0.00136363
0.00136379
0.00136405
0.00136453
0.00136509
0.00136573
0.00136646
0.00136732
0.00136818
0.00136896
0.00136932
0.00136933
0.0013697
0.00137017
0.0013706
0.00137095
0.00137125
0.00137145
0.00137156
0.00137145
0.00137086
0.00137046
0.00137026
0.00136966
0.00136971
0.00136994
0.00136953
0.00136955
0.00136949
0.00136923
0.00136889
0.00136838
0.00136828
0.00136839
0.00136815
0.00136763
0.00136767
0.00136785
0.00136772
0.00136761
0.00136701
0.0013672
0.00136742
0.0013673
0.00136717
0.00136721
0.0013678
0.00136814
0.00136845
0.00136835
0.00136832
0.00136813
0.00136793
0.00136776
0.00136734
0.00136754
0.0013679
0.00136785
0.00136784
0.00136768
0.0013675
0.001367
0.00136667
0.00136668
0.00136639
0.00118228
0.00122095
0.00126285
0.00130202
0.00133297
0.00135343
0.00136401
0.00136721
0.00136724
0.00136695
0.00136666
0.00136597
0.00136575
0.00136604
0.00136568
0.00136508
0.00136473
0.00136433
0.00136378
0.00136307
0.00136262
0.00136305
0.00136301
0.0013631
0.00136351
0.00136328
0.00136352
0.00136374
0.00136439
0.00136504
0.00136568
0.00136653
0.00136725
0.00136783
0.00136849
0.00136922
0.00136972
0.00137027
0.00137076
0.00137122
0.00137149
0.00137172
0.00137182
0.00137188
0.00137191
0.00137179
0.00137135
0.00137054
0.00136979
0.00136972
0.00136966
0.00136942
0.00136895
0.00136907
0.00137038
0.00137033
0.00136995
0.00136985
0.00137016
0.00136994
0.00137009
0.00137008
0.00136945
0.00136951
0.0013699
0.00136973
0.00136963
0.00136957
0.00136948
0.00136912
0.00136896
0.00136848
0.00136821
0.00136835
0.0013682
0.00136854
0.00136903
0.00136846
0.00136858
0.0013691
0.00136904
0.00136902
0.001369
0.00136888
0.00136872
0.00136855
0.00136821
0.00136808
0.00136782
0.00136692
0.00118224
0.00122108
0.00126262
0.00130231
0.00133278
0.00135335
0.00136409
0.00136714
0.00136788
0.00136779
0.00136688
0.00136672
0.00136662
0.00136611
0.00136566
0.0013649
0.00136481
0.0013647
0.00136386
0.00136362
0.00136387
0.00136355
0.00136323
0.00136328
0.00136385
0.00136346
0.00136392
0.00136449
0.00136469
0.00136525
0.00136595
0.0013668
0.00136773
0.00136868
0.00136942
0.00136986
0.00137023
0.00137067
0.00137094
0.00137052
0.00137042
0.00137064
0.00137059
0.0013707
0.00137078
0.00137087
0.00137084
0.00137022
0.00137028
0.00137051
0.00137041
0.00137027
0.00136948
0.00136936
0.00137042
0.00137133
0.00137112
0.0013706
0.00137069
0.00137091
0.00137073
0.00137058
0.0013701
0.00136996
0.00136963
0.0013696
0.00136954
0.00136936
0.00136929
0.00136909
0.00136861
0.00136879
0.00136927
0.00136866
0.00136872
0.00136929
0.00136926
0.00136917
0.00136847
0.00136846
0.00136864
0.00136806
0.00136823
0.00136851
0.00136849
0.00136846
0.00136808
0.00136803
0.00136781
0.00136706
0.00118228
0.00122115
0.00126228
0.00130238
0.0013334
0.0013534
0.00136309
0.00136553
0.00136545
0.00136494
0.0013648
0.00136481
0.00136442
0.00136406
0.00136338
0.0013635
0.00136343
0.00136309
0.00136379
0.00136414
0.00136407
0.00136372
0.00136322
0.00136308
0.00136303
0.00136303
0.00136284
0.00136338
0.00136417
0.00136455
0.0013653
0.00136617
0.0013671
0.00136778
0.00136865
0.00136948
0.00137027
0.00137091
0.00137102
0.00137089
0.00137101
0.00137061
0.00137048
0.00137058
0.00137064
0.00137059
0.00137016
0.00137028
0.00137034
0.00136998
0.00136988
0.00136974
0.00136929
0.00136925
0.00136917
0.00136876
0.00136842
0.00136816
0.00136795
0.00136824
0.0013685
0.00136826
0.00136813
0.00136791
0.00136842
0.00136886
0.00136885
0.00136868
0.00136852
0.00136804
0.00136778
0.00136788
0.00136783
0.0013679
0.00136811
0.00136806
0.00136805
0.00136793
0.00136743
0.00136764
0.00136783
0.0013678
0.00136777
0.0013674
0.00136711
0.00136735
0.0013679
0.00136781
0.00136768
0.00136702
0.00118215
0.00122119
0.00126269
0.0013019
0.00133332
0.00135335
0.00136373
0.0013668
0.00136693
0.00136664
0.00136632
0.00136592
0.00136532
0.00136525
0.00136517
0.00136463
0.00136415
0.00136322
0.00136297
0.00136321
0.00136265
0.0013623
0.00136192
0.00136219
0.00136254
0.00136215
0.00136255
0.00136383
0.00136447
0.00136502
0.00136581
0.00136654
0.00136707
0.00136786
0.00136858
0.00136925
0.00136991
0.00137049
0.00137101
0.00137146
0.0013716
0.00137168
0.00137177
0.0013718
0.00137152
0.0013711
0.00137063
0.00137037
0.00137019
0.00136988
0.00136903
0.00136885
0.00136961
0.00136965
0.00136942
0.0013693
0.00136904
0.00136869
0.00136787
0.00136761
0.00136792
0.00136834
0.00136828
0.0013676
0.00136756
0.00136821
0.00136827
0.00136812
0.001368
0.00136744
0.00136729
0.0013674
0.00136695
0.00136708
0.00136755
0.00136742
0.00136707
0.00136713
0.00136754
0.00136748
0.00136742
0.00136698
0.00136707
0.00136716
0.00136711
0.00136759
0.00136786
0.00136778
0.00136775
0.00136687
0.00118226
0.00122099
0.00126278
0.00130209
0.00133292
0.00135343
0.00136402
0.00136679
0.00136649
0.00136642
0.00136673
0.00136633
0.00136587
0.0013659
0.00136591
0.00136506
0.00136491
0.00136492
0.00136395
0.00136378
0.00136378
0.00136289
0.0013626
0.00136294
0.00136282
0.00136328
0.00136391
0.00136391
0.00136458
0.00136544
0.00136615
0.00136703
0.00136785
0.0013687
0.00136938
0.00136967
0.00136992
0.00137036
0.0013707
0.00137101
0.0013713
0.00137152
0.00137172
0.00137186
0.00137192
0.00137188
0.00137164
0.00137104
0.00137005
0.00136959
0.00136959
0.00136949
0.00136923
0.00136887
0.00136911
0.00136924
0.00136898
0.00136865
0.00136806
0.00136809
0.00136828
0.00136807
0.00136772
0.00136753
0.00136741
0.00136777
0.00136824
0.00136799
0.00136789
0.00136778
0.00136778
0.00136767
0.00136731
0.00136702
0.00136763
0.00136806
0.00136791
0.00136747
0.00136751
0.00136787
0.00136783
0.00136777
0.00136738
0.00136701
0.00136729
0.00136754
0.00136735
0.00136732
0.00136719
0.00136663
0.00118222
0.00122112
0.00126254
0.0013024
0.00133282
0.00135304
0.00136419
0.00136804
0.00136821
0.00136793
0.00136764
0.00136714
0.00136623
0.00136585
0.00136595
0.00136541
0.00136478
0.00136455
0.00136443
0.00136361
0.00136352
0.00136374
0.00136295
0.00136282
0.0013633
0.00136325
0.00136375
0.00136422
0.00136449
0.00136516
0.00136596
0.00136687
0.00136774
0.00136861
0.00136943
0.00137002
0.00137047
0.00137078
0.00137114
0.0013715
0.0013718
0.00137205
0.00137216
0.00137227
0.00137221
0.00137178
0.00137158
0.00137107
0.00137079
0.00137062
0.00137037
0.00136997
0.00136935
0.00136981
0.00137094
0.00137122
0.00137144
0.00137117
0.00137111
0.00137098
0.00137068
0.00137002
0.00137006
0.00137024
0.00136972
0.00136972
0.00136978
0.00136962
0.00136939
0.00136921
0.00136906
0.00136896
0.00136845
0.00136847
0.00136849
0.00136817
0.00136809
0.00136806
0.00136783
0.00136802
0.0013683
0.00136827
0.00136824
0.00136757
0.00136766
0.00136804
0.00136796
0.00136794
0.00136785
0.00136718
0.00118224
0.00122108
0.00126262
0.00130231
0.00133278
0.00135334
0.0013641
0.00136715
0.00136789
0.0013678
0.00136687
0.00136661
0.00136663
0.00136624
0.00136581
0.00136499
0.00136479
0.00136472
0.00136399
0.00136354
0.00136304
0.00136295
0.00136345
0.00136298
0.00136304
0.00136399
0.00136431
0.00136448
0.00136499
0.00136559
0.00136634
0.00136707
0.00136771
0.00136848
0.00136922
0.00136968
0.00137017
0.00137067
0.00137096
0.00137054
0.00137046
0.00137038
0.00137071
0.00137098
0.00137107
0.00137113
0.00137083
0.00137024
0.00137031
0.00137052
0.00137039
0.00137024
0.00136948
0.00136957
0.00137046
0.00137001
0.00136984
0.00137055
0.00137078
0.00137063
0.00137049
0.00137023
0.00137005
0.00136948
0.001369
0.00136903
0.00136902
0.00136909
0.00136912
0.0013689
0.00136849
0.00136828
0.00136846
0.0013682
0.00136848
0.0013688
0.00136831
0.00136847
0.00136854
0.00136837
0.00136832
0.00136817
0.00136792
0.00136756
0.00136739
0.00136702
0.00136729
0.00136775
0.00136761
0.00136707
0.00118228
0.00122094
0.00126286
0.00130201
0.00133296
0.00135353
0.00136377
0.00136728
0.00136738
0.00136675
0.00136668
0.00136665
0.00136618
0.00136553
0.00136516
0.00136532
0.0013647
0.00136447
0.00136412
0.00136329
0.00136296
0.00136351
0.00136359
0.00136338
0.00136337
0.00136336
0.00136348
0.00136369
0.00136375
0.00136454
0.00136539
0.00136604
0.00136693
0.00136789
0.0013689
0.00136973
0.00137049
0.00137118
0.00137165
0.00137173
0.00137158
0.0013716
0.00137161
0.00137161
0.00137164
0.00137152
0.00137111
0.00137002
0.0013697
0.0013699
0.00137005
0.00136983
0.00136913
0.00136931
0.00137061
0.00137066
0.00137041
0.00137001
0.00137026
0.00137081
0.00137061
0.00137037
0.00136969
0.00136971
0.00136991
0.00136964
0.00136955
0.00136951
0.00136947
0.00136925
0.0013687
0.00136876
0.00136905
0.00136896
0.00136892
0.00136878
0.00136869
0.00136836
0.00136795
0.00136815
0.00136864
0.00136847
0.00136856
0.00136866
0.00136858
0.00136843
0.00136814
0.00136804
0.0013678
0.00136699
0.00118227
0.00122111
0.00126251
0.0013021
0.00133349
0.00135351
0.00136313
0.00136532
0.00136524
0.00136492
0.00136487
0.00136524
0.00136475
0.00136445
0.00136406
0.00136347
0.00136297
0.00136308
0.00136296
0.00136224
0.00136194
0.00136282
0.00136342
0.00136319
0.00136282
0.00136302
0.00136347
0.00136313
0.00136371
0.00136462
0.00136521
0.00136603
0.00136683
0.00136779
0.00136863
0.00136939
0.00136983
0.0013705
0.0013709
0.00137079
0.00137071
0.00137087
0.00137096
0.00137058
0.00137052
0.00137058
0.00137012
0.00137029
0.00137052
0.00137002
0.00136976
0.0013699
0.00136997
0.00136977
0.00136949
0.00136955
0.00136952
0.00136929
0.00136906
0.00136816
0.00136811
0.00136873
0.0013687
0.00136844
0.00136777
0.00136784
0.0013684
0.00136805
0.00136826
0.00136834
0.00136823
0.00136815
0.00136752