/*--------------------------------*- C++ -*----------------------------------*\
  =========                 |
  \\      /  F ield         | OpenFOAM: The Open Source CFD Toolbox
   \\    /   O peration     | Website:  https://openfoam.org
    \\  /    A nd           | Version:  11
     \\/     M anipulation  |
\*---------------------------------------------------------------------------*/
FoamFile
{
    format      ascii;
    class       volScalarField;
    location    "0.084";
    object      omega;
}
// * * * * * * * * * * * * * * * * * * * * * * * * * * * * * * * * * * * * * //

dimensions      [0 0 -1 0 0 0 0];

internalField   nonuniform List<scalar> 
287084
(
55.0055
55.9052
56.8484
57.7149
58.3664
58.7564
58.916
58.9404
58.9387
58.939
58.9387
58.9323
58.9369
58.9495
58.9464
58.9478
58.9516
58.9505
58.9468
58.9448
58.9426
58.9374
58.9424
58.9628
58.963
58.9608
58.9581
58.9499
58.9509
58.9564
58.9616
58.9617
58.9523
58.956
58.9569
58.9545
58.9529
58.9493
58.9461
58.9421
58.9333
58.9299
58.9232
58.9204
58.9152
58.9128
58.9101
58.9061
58.905
58.8997
58.8912
58.8968
58.9122
58.9094
58.9094
58.9063
58.9061
58.9044
58.8935
58.8908
58.8997
58.9042
58.9017
58.893
58.9005
58.9192
58.9195
58.9165
58.9049
58.9084
58.9142
58.9137
58.9136
58.9028
58.9075
58.9182
58.9115
58.9167
58.9193
58.9188
58.9186
58.9055
58.9054
58.9215
58.9276
58.9267
58.9262
58.9238
58.919
58.9022
55.0072
55.9045
56.8351
57.698
58.3544
58.757
58.9271
58.9524
58.9469
58.9574
58.9736
58.9654
58.971
58.9748
58.9743
58.9741
58.9666
58.9582
58.9595
58.9612
58.9539
58.952
58.9699
58.9895
58.985
58.9896
58.9914
58.9878
58.9876
58.9864
58.9836
58.9655
58.9639
58.9682
58.9579
58.9618
58.9636
58.9608
58.9565
58.9477
58.9523
58.9555
58.9534
58.9518
58.9458
58.9425
58.9332
58.9371
58.9473
58.9474
58.9473
58.9408
58.9406
58.938
58.9335
58.9281
58.921
58.9207
58.9209
58.9188
58.9126
58.9111
58.9268
58.9335
58.9316
58.929
58.9219
58.9305
58.9383
58.9361
58.9283
58.9276
58.9383
58.9377
58.9401
58.9438
58.942
58.9406
58.9395
58.9279
58.9313
58.9362
58.9349
58.9354
58.9309
58.9321
58.9309
58.9332
58.9307
58.9196
55.0075
55.904
56.8328
57.6997
58.3488
58.7474
58.9345
58.9741
58.9732
58.9754
58.9728
58.9632
58.9666
58.9708
58.966
58.9659
58.9611
58.9707
58.9801
58.98
58.98
58.9728
58.9693
58.9831
58.992
58.9893
58.988
58.9883
58.9888
58.9825
58.9823
58.982
58.9828
58.9818
58.9827
58.9797
58.9774
58.9747
58.9645
58.9585
58.9541
58.9404
58.9431
58.9492
58.9487
58.9484
58.9394
58.9338
58.9421
58.9489
58.945
58.9451
58.9457
58.9457
58.9398
58.9374
58.934
58.9233
58.9231
58.9235
58.9144
58.9203
58.9281
58.9249
58.9246
58.9187
58.9304
58.9439
58.9386
58.9407
58.9412
58.9399
58.9397
58.9379
58.9355
58.9311
58.9284
58.9204
58.9233
58.9264
58.9218
58.917
58.9214
58.9328
58.9248
58.9312
58.9365
58.9358
58.9356
58.9192
55.0061
55.9033
56.836
57.6962
58.343
58.7444
58.9355
58.9775
58.9777
58.9727
58.9734
58.9836
58.9847
58.9821
58.9734
58.9687
58.9702
58.967
58.9746
58.9828
58.9755
58.975
58.9743
58.9661
58.9696
58.9751
58.9746
58.9743
58.9598
58.9588
58.9773
58.9827
58.977
58.9806
58.9817
58.9807
58.9806
58.9781
58.9771
58.9709
58.9678
58.9647
58.962
58.9584
58.9536
58.9385
58.9396
58.9435
58.9418
58.9407
58.9296
58.9322
58.936
58.9337
58.9343
58.9325
58.9313
58.9286
58.9205
58.9264
58.9386
58.9348
58.9353
58.935
58.9319
58.9237
58.9223
58.9205
58.9199
58.9318
58.9419
58.9379
58.9368
58.9346
58.9341
58.9261
58.9288
58.9432
58.9384
58.9425
58.9472
58.9444
58.935
58.9372
58.9426
58.941
58.9398
58.9351
58.9315
58.9195
55.0057
55.9035
56.8371
57.6903
58.3463
58.7492
58.9179
58.9752
58.9776
58.9762
58.9758
58.9666
58.9721
58.9758
58.971
58.971
58.9705
58.9601
58.9628
58.9688
58.9677
58.9676
58.9586
58.9678
58.9788
58.9739
58.9728
58.971
58.9679
58.9732
58.9785
58.9715
58.974
58.976
58.9744
58.9726
58.962
58.9559
58.9643
58.9684
58.9647
58.9646
58.9645
58.9644
58.965
58.9628
58.9616
58.9595
58.959
58.9553
58.9465
58.942
58.9391
58.9331
58.93
58.9272
58.9234
58.9108
58.9134
58.9229
58.923
58.923
58.9154
58.9154
58.9148
58.915
58.9076
58.9125
58.924
58.9216
58.9214
58.9149
58.9248
58.9437
58.9371
58.9435
58.9476
58.9388
58.9415
58.9456
58.9416
58.9436
58.9439
58.9404
58.9282
58.925
58.9333
58.9351
58.9321
58.9205
55.0061
55.9031
56.8335
57.6948
58.3525
58.7395
58.9034
58.9462
58.9744
58.9746
58.9664
58.969
58.9703
58.9677
58.9639
58.9548
58.9573
58.9703
58.9703
58.9717
58.9721
58.9693
58.9589
58.959
58.9672
58.9674
58.9625
58.9651
58.9801
58.9808
58.9778
58.9799
58.9806
58.9776
58.9732
58.9672
58.9628
58.9499
58.9524
58.9591
58.9506
58.9532
58.9565
58.9528
58.9528
58.9512
58.9439
58.9318
58.9324
58.9376
58.9375
58.9374
58.9314
58.9279
58.9328
58.9379
58.9371
58.937
58.9311
58.9281
58.9284
58.9281
58.9295
58.9301
58.9288
58.9193
58.9245
58.9393
58.9333
58.9392
58.9426
58.9416
58.9414
58.9337
58.9324
58.9249
58.9294
58.9407
58.9339
58.9384
58.9403
58.9371
58.9293
58.9264
58.9317
58.931
58.9369
58.9394
58.936
58.9245
55.0051
55.9025
56.8346
57.6932
58.3552
58.7318
58.9138
58.9618
58.9626
58.9614
58.9601
58.953
58.9502
58.9667
58.972
58.9702
58.9858
59.0029
58.9991
58.9982
59.004
59.0065
59.0029
58.9939
58.9894
58.9919
58.9918
58.9926
58.9929
58.9922
58.9878
58.9874
58.9854
58.9718
58.9726
58.9755
58.9744
58.9736
58.9569
58.9582
58.9638
58.963
58.9621
58.9511
58.949
58.9485
58.9472
58.9473
58.9468
58.9469
58.9427
58.928
58.9287
58.933
58.9319
58.9319
58.9287
58.928
58.9189
58.9253
58.9334
58.9318
58.9316
58.9293
58.9287
58.9173
58.9214
58.9297
58.927
58.9269
58.92
58.9234
58.929
58.9274
58.9227
58.9269
58.936
58.931
58.9306
58.9305
58.9226
58.9217
58.9347
58.938
58.9365
58.9361
58.9271
58.9306
58.9347
58.9236
55.0065
55.8999
56.84
57.6952
58.3335
58.7374
58.9381
59.0064
59.014
59.0114
59.0016
59.0056
59.0121
59.0083
59.0091
59.0063
59.0093
59.0105
59.0076
58.9961
58.9964
59.0037
58.9972
59.0019
59.0073
59.0049
59.0061
59.0066
59.0053
59.0044
59.0004
58.9988
58.9984
58.996
58.9937
58.9933
58.9905
58.9809
58.9639
58.967
58.9723
58.969
58.9687
58.9673
58.9659
58.9532
58.9511
58.953
58.951
58.953
58.9502
58.9412
58.9359
58.9447
58.9495
58.9467
58.9371
58.9399
58.9473
58.9418
58.9457
58.9499
58.949
58.9473
58.9454
58.9436
58.937
58.9264
58.9246
58.9192
58.9233
58.9397
58.9402
58.9409
58.9384
58.9292
58.9341
58.9462
58.9456
58.9454
58.9437
58.9432
58.9293
58.9306
58.9401
58.9386
58.9385
58.9396
58.9386
58.9226
55.0059
55.902
56.8341
57.6974
58.344
58.7381
58.9204
58.9639
58.9648
58.9623
58.9554
58.9505
58.9679
58.9881
58.9798
58.9855
58.9897
58.9796
58.9849
59.0029
58.9966
59.0032
59.0082
58.9948
58.9983
59.0077
58.9991
59.0036
59.0091
59.0035
59.007
59.0082
59.006
59.0044
58.9976
58.9929
58.9866
58.9831
58.9779
58.9667
58.955
58.9514
58.9493
58.9444
58.9505
58.957
58.9462
58.9513
58.959
58.957
58.9547
58.9517
58.9526
58.9515
58.9493
58.9431
58.9253
58.9249
58.9316
58.9325
58.9325
58.9207
58.9268
58.9364
58.9329
58.933
58.9337
58.9331
58.92
58.9211
58.9434
58.9475
58.9425
58.9424
58.9426
58.9415
58.9291
58.9314
58.9466
58.9406
58.9473
58.9525
58.9516
58.9514
58.945
58.9441
58.9393
58.9382
58.9341
58.9206
55.0095
55.8949
56.8368
57.6989
58.3438
58.7384
58.9143
58.9481
58.945
58.9428
58.9555
58.9714
58.9721
58.9721
58.9604
58.9633
58.9669
58.9724
58.9807
58.9797
58.9799
58.9722
58.9704
58.9679
58.976
58.981
58.9793
58.9744
58.9754
58.9858
58.9824
58.9839
58.9815
58.979
58.979
58.9762
58.9707
58.9636
58.9635
58.9642
58.9567
58.9598
58.9604
58.9589
58.9583
58.9518
58.9397
58.9338
58.9312
58.9274
58.9152
58.9143
58.9189
58.9188
58.9186
58.9089
58.9104
58.9114
58.9018
58.9032
58.9256
58.9331
58.9313
58.932
58.9302
58.9282
58.9187
58.9126
58.9222
58.931
58.9318
58.9293
58.9247
58.9185
58.9197
58.9214
58.9122
58.9144
58.9355
58.9387
58.9371
58.9364
58.9259
58.9324
58.9447
58.9397
58.9419
58.943
58.9401
58.9258
55.0072
55.9005
56.8356
57.6939
58.3442
58.743
58.9197
58.9536
58.946
58.9514
58.9632
58.9629
58.9633
58.9582
58.9602
58.9598
58.9589
58.967
58.9733
58.9771
59.0003
59.0027
58.9993
58.9902
58.9868
58.9898
58.9804
58.9833
58.9932
58.9917
58.9892
58.9759
58.9776
58.9858
58.9784
58.983
58.9842
58.9773
58.9795
58.983
58.9813
58.9798
58.9714
58.9648
58.9591
58.949
58.9256
58.9225
58.93
58.9305
58.9239
58.9266
58.9324
58.931
58.9299
58.9268
58.9235
58.9212
58.9187
58.9135
58.9225
58.929
58.9265
58.9174
58.9164
58.9276
58.9298
58.9274
58.9176
58.9149
58.9228
58.9247
58.9175
58.9221
58.9329
58.9333
58.9332
58.9273
58.921
58.927
58.9335
58.9244
58.9292
58.9419
58.9425
58.9427
58.9383
58.9379
58.9346
58.9241
55.005
55.903
56.8347
57.6946
58.3458
58.736
58.9237
58.9763
58.9773
58.9754
58.975
58.9666
58.9662
58.9899
58.9957
58.9895
58.9927
58.9938
58.9922
58.9877
58.9905
59.005
59.005
59.0022
58.9936
58.9959
59.0082
59.0076
59.0065
59.0068
59.0083
59.0026
59.0022
59.0028
59.0031
59.0013
58.9993
58.9968
58.993
58.9851
58.9766
58.9693
58.9622
58.947
58.9335
58.9264
58.9254
58.9253
58.9246
58.9238
58.9133
58.913
58.926
58.9253
58.9324
58.9356
58.9295
58.9327
58.9372
58.9355
58.9361
58.9331
58.9253
58.9138
58.9223
58.9373
58.9371
58.9361
58.9228
58.9227
58.9382
58.9408
58.9379
58.9267
58.9272
58.9365
58.9371
58.9362
58.9227
58.9225
58.9346
58.9382
58.9357
58.9278
58.934
58.9429
58.9422
58.9421
58.938
58.9235
55.007
55.8984
56.8422
57.6926
58.3333
58.7402
58.9389
58.9847
58.9779
58.9792
58.9887
58.9886
58.9896
58.9897
58.9851
58.9828
58.9997
59.0113
59.0107
59.0105
59.0012
59.0065
59.0116
59.0028
59.0082
59.0201
59.0087
59.0139
59.0195
59.0117
59.0145
59.0165
59.0143
59.0139
59.0085
58.9937
58.9866
58.9835
58.9808
58.9767
58.9679
58.9641
58.9615
58.9587
58.9535
58.9447
58.9418
58.9344
58.9394
58.9457
58.9426
58.9415
58.9418
58.9421
58.9391
58.9307
58.9307
58.9318
58.9292
58.9213
58.9212
58.9318
58.9276
58.9345
58.9394
58.9384
58.9382
58.9325
58.931
58.9204
58.9215
58.9366
58.9383
58.9363
58.9327
58.9249
58.9323
58.9433
58.9432
58.9429
58.9316
58.9319
58.9379
58.9393
58.9393
58.9311
58.929
58.9295
58.9294
58.9234
55.007
55.9011
56.8319
57.6962
58.3541
58.7316
58.9112
58.9516
58.9415
58.9434
58.952
58.9419
58.9466
58.9565
58.9532
58.9488
58.9525
58.9619
58.9673
58.9783
58.9789
58.9809
58.9767
58.9842
59.006
59.0085
58.9952
58.9993
59.0073
59.0016
59.0035
59.0072
59.005
59.0029
59.0014
58.995
58.988
58.972
58.9637
58.9601
58.9506
58.9508
58.9553
58.9527
58.9525
58.952
58.9449
58.9396
58.9459
58.9493
58.9482
58.9481
58.9439
58.9296
58.9282
58.929
58.9282
58.9258
58.9209
58.9293
58.9325
58.9293
58.9181
58.918
58.9243
58.925
58.9251
58.9179
58.9179
58.9151
58.9225
58.9389
58.9371
58.9369
58.9375
58.9364
58.9279
58.9201
58.9217
58.9209
58.9222
58.9392
58.9543
58.9541
58.9544
58.9503
58.9411
58.9421
58.9435
58.9318
55.0065
55.9001
56.8393
57.6963
58.3317
58.7363
58.9431
58.9948
58.989
58.9917
59.0015
58.9921
58.9933
59.0018
58.9971
58.9976
58.9979
58.9972
58.9965
58.9985
58.9944
58.998
59.0125
59.0125
59.0113
59.0191
59.0242
59.0132
59.0178
59.0199
59.0109
59.0143
59.0146
59.011
59.0126
59.0104
59.0078
59.0047
58.9954
58.9862
58.9795
58.9705
58.9496
58.9359
58.9302
58.9305
58.9307
58.93
58.9305
58.9293
58.9291
58.9257
58.9144
58.9155
58.927
58.9225
58.9272
58.9328
58.9328
58.9328
58.921
58.921
58.9341
58.9386
58.937
58.9311
58.9387
58.9446
58.9432
58.9422
58.9299
58.9322
58.936
58.9343
58.9336
58.9236
58.9325
58.9428
58.942
58.9411
58.9327
58.9319
58.9268
58.9332
58.9393
58.9372
58.934
58.9282
58.9264
58.9175
55.0055
55.9058
56.8347
57.689
58.3505
58.732
58.9219
58.9741
58.9781
58.9753
58.9659
58.9685
58.9737
58.9716
58.9646
58.9693
58.9848
58.9846
58.9837
58.9799
58.9805
58.9821
58.9813
58.9889
58.9962
58.9862
58.9922
59.0038
59.0006
59.0001
58.997
58.995
58.9809
58.9818
58.9833
58.9786
58.9799
58.9771
58.9752
58.9742
58.9743
58.9694
58.9668
58.9634
58.9612
58.961
58.9584
58.9458
58.9397
58.9273
58.9141
58.9208
58.9279
58.9251
58.918
58.9144
58.9219
58.9212
58.9301
58.9614
58.9631
58.9597
58.9482
58.9492
58.9529
58.9406
58.9455
58.9546
58.9511
58.9518
58.9525
58.9514
58.9451
58.9433
58.9412
58.9381
58.928
58.9309
58.9349
58.9327
58.929
58.9255
58.9404
58.9452
58.9425
58.932
58.934
58.9379
58.9352
58.9267
55.006
55.9015
56.8386
57.6978
58.3315
58.7289
58.9434
59.0143
59.0184
59.0154
59.0057
59.0078
59.017
59.0106
59.012
59.0184
59.0178
59.0157
59.0139
59.0074
59.0113
59.0184
59.016
59.0096
59.0059
59.0106
59.0105
59.0139
59.0173
59.0157
59.0165
59.0166
59.0139
59.0109
59.0083
59.0079
59.0052
59.0003
58.995
58.9905
58.9862
58.9786
58.9606
58.9476
58.9396
58.9356
58.9325
58.9303
58.9258
58.9161
58.9047
58.9095
58.9163
58.9145
58.9116
58.9079
58.9265
58.9395
58.9392
58.9392
58.9364
58.9318
58.9257
58.933
58.9368
58.9312
58.9329
58.9388
58.94
58.9382
58.9376
58.9312
58.9258
58.9356
58.9431
58.942
58.942
58.9385
58.9356
58.9267
58.9305
58.9442
58.9437
58.9411
58.9372
58.9348
58.935
58.9361
58.9325
58.9201
55.006
55.9015
56.8364
57.7004
58.3297
58.7318
58.9476
59.0068
59.0027
59.0095
59.0176
59.0175
59.0174
59.0026
59.002
59.0091
59.0081
59.0052
59.0096
59.0151
59.0077
59.0141
59.026
59.0153
59.02
59.032
59.0321
59.0325
59.0284
59.0274
59.0264
59.0266
59.0219
59.0206
59.0182
59.0153
59.0112
59.0054
58.9947
58.9825
58.9751
58.9677
58.9575
58.9509
58.9461
58.9412
58.932
58.912
58.9126
58.9269
58.927
58.9274
58.9278
58.9271
58.9177
58.9246
58.9367
58.9242
58.9244
58.934
58.9276
58.9317
58.9481
58.9498
58.9478
58.945
58.944
58.943
58.9404
58.9271
58.9265
58.945
58.9542
58.9538
58.952
58.9502
58.9506
58.9508
58.9457
58.9437
58.9406
58.9344
58.9269
58.9345
58.9413
58.9393
58.9361
58.9306
58.9273
58.9178
55.0063
55.9004
56.8407
57.6951
58.3317
58.7353
58.9377
59.0042
59.0071
58.9976
58.9968
59.0018
59.001
59.0018
59.0059
59.0065
59.0031
59.0029
59.0004
59.01
59.02
59.0181
59.0104
59.0104
59.018
59.0159
59.0169
59.0128
59.013
59.0132
59.0116
59.0121
59.0103
59.0062
59.0009
58.9885
58.9689
58.9624
58.9642
58.9669
58.9643
58.9621
58.9627
58.9607
58.9596
58.957
58.9545
58.9472
58.9301
58.9099
58.9131
58.9202
58.9196
58.9195
58.9117
58.908
58.9238
58.937
58.9266
58.9283
58.9379
58.9299
58.9328
58.9506
58.9516
58.948
58.9356
58.9369
58.9414
58.9279
58.9302
58.9388
58.9265
58.9255
58.9398
58.9427
58.9398
58.9339
58.9291
58.939
58.9466
58.9422
58.9418
58.9416
58.9396
58.9285
58.9277
58.9298
58.9273
58.9168
55.0028
55.9069
56.8368
57.6929
58.3372
58.7402
58.9329
58.9794
58.9799
58.9738
58.9746
58.9805
58.979
58.9792
58.9801
58.9803
58.9714
58.9776
58.9951
58.9919
58.9918
58.9883
58.995
59.0236
59.0321
59.0254
59.0303
59.0318
59.0259
59.0268
59.0251
59.0218
59.0191
59.0165
59.0137
59.0117
59.0056
58.9995
58.9929
58.987
58.9771
58.9702
58.9628
58.9528
58.9456
58.9305
58.9206
58.9131
58.9106
58.9078
58.8971
58.8965
58.9282
58.9494
58.9415
58.9421
58.9605
58.9674
58.9674
58.9675
58.9611
58.9604
58.9589
58.9473
58.9498
58.956
58.9541
58.954
58.9507
58.9503
58.9437
58.9498
58.9554
58.9532
58.9497
58.9436
58.9417
58.9376
58.9363
58.9371
58.9361
58.9381
58.9388
58.9329
58.9345
58.9322
58.9293
58.9296
58.9259
58.9134
55.0066
55.902
56.8349
57.6937
58.3466
58.744
58.9086
58.9346
58.9323
58.9445
58.9679
58.9673
58.9649
58.9594
58.9537
58.9628
58.9752
58.9748
58.9754
58.9712
58.9879
59.0234
59.0179
59.0258
59.0349
59.0316
59.0317
59.0302
59.0306
59.0271
59.0257
59.0262
59.0261
59.022
59.0162
59.0032
58.9849
58.9768
58.972
58.9678
58.9643
58.9615
58.9586
58.9554
58.9488
58.9331
58.924
58.9204
58.9105
58.9145
58.9213
58.9161
58.9183
58.9197
58.9173
58.9105
58.9048
58.9072
58.9127
58.9103
58.9017
58.9061
58.9121
58.9114
58.9113
58.9017
58.9082
58.9141
58.9127
58.9117
58.9159
58.9288
58.9359
58.9458
58.9442
58.942
58.9385
58.9351
58.933
58.927
58.9332
58.9411
58.9398
58.9388
58.9354
58.9312
58.9201
58.9161
58.9194
58.9137
55.0072
55.898
56.843
57.6918
58.3339
58.7405
58.9399
58.9931
58.9942
58.9921
58.9891
58.984
58.9894
59.0016
59.0042
59.0025
59.0033
59.004
59.0027
58.9962
58.9963
59.0129
59.0147
59.0211
59.0324
59.0274
59.0292
59.0261
59.0281
59.0282
59.0258
59.0234
59.0189
59.011
59.005
59.0008
58.9925
58.9872
58.9822
58.9785
58.9729
58.9686
58.9634
58.9594
58.9564
58.951
58.9397
58.9219
58.9104
58.9117
58.9127
58.9102
58.9032
58.9121
58.9425
58.9431
58.9399
58.9416
58.9522
58.9501
58.9553
58.9569
58.9469
58.9513
58.9619
58.9615
58.9616
58.96
58.9596
58.9527
58.9505
58.9407
58.9384
58.9458
58.943
58.9511
58.9618
58.9504
58.9547
58.9669
58.9668
58.9673
58.9659
58.9611
58.9569
58.9536
58.9464
58.9441
58.9393
58.9227
55.0063
55.9006
56.8382
57.6984
58.3292
58.7393
58.942
58.9927
59.0072
59.0112
58.9985
59.0026
59.0081
59.0073
59.0073
58.9997
59.0076
59.0143
59.0067
59.0116
59.0255
59.0252
59.0241
59.0298
59.0435
59.0334
59.0387
59.0426
59.0348
59.0339
59.0352
59.0351
59.0327
59.0315
59.0257
59.013
59.0018
58.9937
58.9832
58.9595
58.9469
58.9431
58.9345
58.9343
58.9348
58.9322
58.9288
58.9175
58.921
58.9277
58.9273
58.9271
58.9138
58.9166
58.9448
58.9655
58.9643
58.9558
58.9616
58.9687
58.9673
58.9665
58.9582
58.9562
58.9542
58.9565
58.957
58.955
58.9529
58.9517
58.9449
58.951
58.9622
58.9504
58.9541
58.9679
58.9673
58.9648
58.9506
58.9522
58.9571
58.9447
58.9491
58.9552
58.9547
58.9546
58.9455
58.9446
58.9404
58.9259
55.0075
55.9017
56.8305
57.7014
58.3428
58.7382
58.9179
58.9582
58.9581
58.951
58.954
58.9614
58.9602
58.9585
58.9559
58.9707
58.9753
58.9797
59.0084
59.0215
59.0273
59.0294
59.0263
59.0265
59.0269
59.0262
59.0169
59.0207
59.0264
59.0217
59.0221
59.0196
59.0167
59.0099
59.0077
59.0077
59.0069
59
58.9836
58.9669
58.9579
58.9395
58.9303
58.9277
58.9252
58.9224
58.9147
58.9184
58.9205
58.9161
58.9174
58.917
58.9096
58.9114
58.9128
58.9066
58.9035
58.9037
58.9026
58.9118
58.9194
58.9187
58.9189
58.9164
58.9306
58.9384
58.942
58.9412
58.938
58.9274
58.9257
58.9326
58.9325
58.9344
58.9402
58.9396
58.9378
58.9375
58.929
58.9344
58.9384
58.9383
58.9381
58.9291
58.9245
58.9322
58.941
58.941
58.9406
58.9262
55.0044
55.9035
56.839
57.6902
58.3418
58.7383
58.9338
58.9849
58.9884
58.9864
58.9833
58.9823
58.9802
58.9892
58.9959
58.9934
58.9932
58.9845
58.99
59.0048
59.0014
59.002
58.9993
59.009
59.0169
59.0073
59.0129
59.0309
59.0333
59.0306
59.0282
59.0267
59.0166
59.0113
59.0052
58.9991
58.9939
58.9884
58.9838
58.9794
58.9706
58.9631
58.9577
58.9527
58.9426
58.9313
58.9207
58.9161
58.9135
58.9092
58.8954
58.8972
58.917
58.9195
58.9177
58.9167
58.9144
58.91
58.8978
58.898
58.908
58.9164
58.9198
58.9084
58.9113
58.9269
58.9295
58.9278
58.9267
58.9152
58.9152
58.9222
58.9123
58.9167
58.9279
58.9242
58.9179
58.9218
58.9315
58.9296
58.9259
58.9198
58.9235
58.9239
58.9253
58.9369
58.9423
58.9422
58.9417
58.9223
55.0068
55.8989
56.8415
57.6936
58.3328
58.741
58.9401
58.9861
58.9804
58.9839
58.9974
58.9936
58.9919
59.0039
59.0122
59.0043
59.0115
59.0212
59.0105
59.0167
59.0247
59.0131
59.0142
59.0268
59.0247
59.0325
59.0408
59.0337
59.0364
59.0403
59.0383
59.0378
59.0344
59.0295
59.0224
59.0072
58.9933
58.9852
58.9766
58.9697
58.9645
58.9599
58.957
58.9547
58.9524
58.9493
58.943
58.929
58.9091
58.9049
58.9086
58.9089
58.9061
58.902
58.9126
58.9181
58.9152
58.9087
58.902
58.9075
58.9142
58.9127
58.9079
58.9082
58.9082
58.9183
58.9294
58.9271
58.9273
58.9267
58.9286
58.9257
58.9162
58.9134
58.9309
58.9394
58.937
58.9283
58.9312
58.9399
58.9381
58.9359
58.927
58.9218
58.9299
58.935
58.9303
58.9303
58.9295
58.9179
55.006
55.9015
56.8364
57.7006
58.3296
58.7329
58.9461
59.013
59.016
59.0143
59.0139
59.0106
58.9996
59.0022
59.0147
59.0097
59.0064
59.013
59.0197
59.0123
59.0192
59.0308
59.0197
59.0218
59.0349
59.0315
59.0367
59.0383
59.0346
59.036
59.034
59.032
59.031
59.0284
59.0242
59.0159
59.0058
58.9948
58.9869
58.981
58.976
58.9721
58.9671
58.9641
58.959
58.9474
58.9423
58.9314
58.9272
58.9256
58.9226
58.9165
58.909
58.9267
58.9512
58.9595
58.9698
58.9688
58.9692
58.9694
58.9662
58.9547
58.9594
58.9655
58.9574
58.9591
58.9623
58.9603
58.9574
58.9576
58.9537
58.9512
58.9435
58.9456
58.9471
58.9428
58.9428
58.9414
58.937
58.9427
58.9487
58.9485
58.9483
58.9349
58.9382
58.9469
58.9462
58.9463
58.943
58.929
55.0063
55.9006
56.8382
57.6984
58.3292
58.7393
58.9421
58.9929
59.0074
59.0115
58.9981
59.0007
59.0097
59.0082
59.0081
59.0013
59.007
59.0148
59.0098
59.0102
59.0076
59.0132
59.0302
59.0231
59.0267
59.0449
59.0464
59.0444
59.0449
59.0414
59.0387
59.0354
59.0293
59.0252
59.0197
59.0092
59.0007
58.9938
58.9837
58.9601
58.9474
58.9397
58.9401
58.9406
58.9387
58.9369
58.9282
58.9174
58.9217
58.9277
58.9268
58.9264
58.914
58.9213
58.9442
58.9367
58.9373
58.9568
58.9629
58.9622
58.9622
58.9592
58.9575
58.9464
58.9403
58.9444
58.945
58.9491
58.952
58.9491
58.9393
58.9384
58.947
58.9414
58.9483
58.9555
58.9463
58.9505
58.9523
58.9488
58.9487
58.947
58.9393
58.9307
58.9276
58.9227
58.931
58.9405
58.9377
58.9268
55.0072
55.8979
56.8432
57.6916
58.3339
58.7423
58.9347
58.9952
58.9973
58.9893
58.9937
58.9997
58.9964
58.9913
58.9946
59.0085
59.0041
59.0077
59.0091
59.0013
59.0037
59.0226
59.0285
59.0273
59.0267
59.0251
59.0226
59.0192
59.0129
59.0179
59.0199
59.0177
59.0178
59.0158
59.0148
59.0126
59.0099
59.0076
59.0019
58.9888
58.9741
58.9655
58.9588
58.9535
58.9504
58.9451
58.9346
58.911
58.9092
58.9166
58.9188
58.9191
58.9078
58.9173
58.9475
58.9505
58.9486
58.9432
58.9539
58.9651
58.9653
58.9652
58.9519
58.9551
58.9613
58.9593
58.9599
58.9588
58.9576
58.9547
58.9463
58.95
58.9573
58.956
58.9557
58.9536
58.9531
58.9457
58.9388
58.9459
58.9567
58.9547
58.9558
58.9562
58.9573
58.9539
58.9454
58.9433
58.9389
58.9245
55.007
55.9012
56.8351
57.6949
58.345
58.7399
58.9174
58.9524
58.9523
58.9497
58.9547
58.9699
58.9669
58.9672
58.9673
58.9631
58.9623
58.9764
58.9816
58.9759
58.9786
59.0063
59.0224
59.0209
59.014
59.0172
59.0226
59.0082
59.0112
59.0179
59.0166
59.017
59.0127
59.0114
59.0109
59.0089
58.9981
58.9945
58.9873
58.9708
58.9582
58.953
58.9482
58.9338
58.9317
58.9331
58.9209
58.9245
58.93
58.9187
58.9166
58.9235
58.9273
58.9253
58.9227
58.9283
58.9303
58.9279
58.9252
58.91
58.914
58.9286
58.9303
58.928
58.9152
58.9205
58.9349
58.9288
58.9348
58.9374
58.9362
58.9359
58.9246
58.9267
58.9406
58.9326
58.9363
58.946
58.9338
58.9355
58.9471
58.9508
58.9486
58.9444
58.9363
58.9382
58.9475
58.948
58.9478
58.9312
55.0061
55.9053
56.8342
57.6898
58.3511
58.7317
58.9208
58.9736
58.9747
58.9706
58.9753
58.977
58.9741
58.9683
58.9642
58.9738
58.9742
58.9834
58.9909
58.9895
58.9879
58.9854
59.0081
59.0235
59.0224
59.0224
59.021
59.02
59.0066
59.0082
59.0089
59.0064
59.0059
59.0022
59.0009
58.9966
58.9875
58.9818
58.9772
58.972
58.9654
58.9609
58.9565
58.9532
58.9505
58.9459
58.9339
58.9309
58.9296
58.9311
58.9314
58.926
58.9157
58.9116
58.911
58.9109
58.9085
58.9087
58.9313
58.9447
58.9434
58.9412
58.9297
58.9331
58.9397
58.9369
58.9367
58.932
58.9292
58.9274
58.9255
58.9332
58.9449
58.9462
58.9438
58.9302
58.9329
58.9428
58.943
58.9429
58.9411
58.9407
58.9289
58.9321
58.9382
58.9364
58.934
58.9287
58.9254
58.9144
55.0055
55.9058
56.8347
57.6891
58.3507
58.7323
58.9225
58.9699
58.9664
58.9631
58.9665
58.9722
58.9692
58.9609
58.9575
58.9785
58.9935
58.9931
58.993
58.985
58.9944
59.0023
59.0007
58.9995
59.0067
59.0173
59.0141
59.0172
59.0174
59.0148
59.0132
59.006
58.9976
58.9926
58.9828
58.9761
58.9711
58.9694
58.9715
58.9705
58.969
58.9692
58.9666
58.9612
58.9487
58.9368
58.9307
58.9282
58.9227
58.9071
58.9027
58.9106
58.9078
58.9129
58.9412
58.9504
58.9498
58.9509
58.949
58.9459
58.9359
58.9397
58.9459
58.9427
58.9443
58.9455
58.9447
58.9325
58.9325
58.9449
58.9459
58.9434
58.9448
58.9422
58.9354
58.9317
58.9326
58.9311
58.9372
58.9395
58.9342
58.9346
58.932
58.9347
58.9356
58.9326
58.9216
58.924
58.9305
58.9176
55.0062
55.9009
56.8378
57.6986
58.3301
58.7351
58.9444
59.0045
59.0064
59.0049
59.0012
59
58.9959
59.0029
59.0156
59.0126
59.0124
59.0099
59.0104
59.0082
59.0125
59.014
59.006
59.0121
59.0266
59.0148
59.0195
59.0267
59.017
59.0208
59.0214
59.0182
59.0143
59.0068
59
58.9936
58.9893
58.9812
58.9766
58.9725
58.9687
58.9657
58.9608
58.9545
58.9409
58.9254
58.9255
58.9259
58.9207
58.9291
58.9415
58.9354
58.9391
58.9404
58.938
58.9344
58.9254
58.9251
58.9332
58.9334
58.9308
58.9302
58.9356
58.9364
58.9342
58.9256
58.9253
58.9315
58.932
58.9284
58.9289
58.9426
58.9446
58.9498
58.9519
58.9506
58.9504
58.9434
58.9439
58.9397
58.9381
58.9379
58.9264
58.9307
58.9422
58.941
58.9409
58.94
58.9386
58.9226
55.0057
55.9022
56.8372
57.7005
58.327
58.7336
58.9426
59.0057
59.0157
59.013
59.002
59.0017
59.01
59.0077
59.0083
59.008
59.0077
59.0057
59.0143
59.0315
59.0285
59.0316
59.0323
59.0213
59.024
59.031
59.0259
59.026
59.0261
59.0259
59.0235
59.0193
59.017
59.0158
59.0112
59.0076
59.0011
58.9959
58.991
58.9806
58.9753
58.9722
58.9674
58.9566
58.9507
58.9473
58.942
58.9391
58.9332
58.9301
58.9212
58.9252
58.9354
58.9357
58.9357
58.9261
58.9312
58.941
58.9377
58.9381
58.9383
58.938
58.9343
58.933
58.927
58.9298
58.9432
58.9374
58.9448
58.9583
58.9578
58.9545
58.9439
58.9417
58.9542
58.9583
58.9533
58.9551
58.9554
58.9534
58.9537
58.9511
58.9485
58.9466
58.9431
58.9289
58.9276
58.9305
58.9295
58.9199
55.0036
55.9048
56.8396
57.6906
58.3359
58.7443
58.9297
58.9754
58.9795
58.9792
58.9758
58.965
58.9672
58.9699
58.9583
58.9614
58.9819
58.9858
58.9836
58.9768
58.9826
58.9979
59.0076
59.0096
58.9987
59.0042
59.0078
59.0056
59.004
58.991
58.9928
58.995
58.9907
58.9794
58.976
58.9741
58.9671
58.9663
58.9678
58.968
58.9654
58.9647
58.9608
58.9507
58.9399
58.9289
58.9251
58.9206
58.9064
58.9048
58.9188
58.9211
58.9261
58.9285
58.9276
58.9273
58.9145
58.9152
58.9331
58.9314
58.9393
58.9471
58.941
58.9426
58.9402
58.9307
58.9308
58.9378
58.9343
58.9348
58.9347
58.929
58.9277
58.9319
58.9328
58.929
58.933
58.9418
58.9396
58.9315
58.9326
58.9411
58.9324
58.9375
58.9408
58.9386
58.9322
58.9336
58.9368
58.9229
55.0064
55.9002
56.8392
57.6959
58.3333
58.7339
58.9413
59.0083
59.0156
59.0127
59.0015
59.0049
59.0134
59.0066
59.0046
59.0021
58.9943
58.9966
59.0089
59.0057
59.0044
59.0063
59.0047
59.0132
59.028
59.0277
59.0284
59.0274
59.0263
59.0213
59.0092
59.0037
59.0014
58.996
58.9941
58.994
58.994
58.9915
58.9887
58.9842
58.9781
58.9723
58.9664
58.954
58.9449
58.9409
58.9346
58.931
58.9254
58.9108
58.916
58.9347
58.9341
58.9344
58.9322
58.9249
58.9275
58.9314
58.9249
58.9255
58.9252
58.9255
58.9191
58.9235
58.9289
58.9172
58.9219
58.9294
58.9249
58.9207
58.9273
58.9462
58.9431
58.9467
58.9475
58.9436
58.9439
58.9447
58.9454
58.9419
58.9299
58.9318
58.9404
58.9353
58.9358
58.9355
58.925
58.9264
58.9317
58.9185
55.0066
55.901
56.8338
57.6968
58.3469
58.7411
58.9104
58.942
58.9355
58.939
58.9632
58.9664
58.9649
58.9648
58.9552
58.9628
58.9803
58.9777
58.9755
58.9851
58.9999
58.9902
58.9922
59.0076
59.0055
59.013
59.0296
59.0294
59.0296
59.0274
59.0246
59.021
59.02
59.0146
59.0023
58.9942
58.9896
58.985
58.9768
58.9721
58.9692
58.9662
58.9611
58.9588
58.9579
58.9503
58.9358
58.9378
58.9431
58.9347
58.9386
58.9403
58.9377
58.935
58.9211
58.9221
58.9286
58.9261
58.9183
58.9144
58.9213
58.9268
58.9245
58.9165
58.9236
58.9323
58.9325
58.9325
58.927
58.9258
58.9152
58.9159
58.9328
58.9353
58.9328
58.9275
58.9226
58.9261
58.928
58.9228
58.9206
58.9245
58.9239
58.933
58.9418
58.9309
58.9363
58.9417
58.9381
58.9249
55.0068
55.899
56.8416
57.693
58.333
58.7422
58.9295
59.0055
59.0148
59.0129
59.0105
59.0031
58.9995
58.9967
58.9881
58.9926
59.0043
58.9932
58.9988
59.0077
59.0021
59.0024
59.0024
58.9965
59.0015
59.0137
59.004
59.0093
59.0119
59.0098
59.0098
59.0068
59.0001
58.9975
58.9951
58.9933
58.9895
58.9804
58.9667
58.9625
58.9609
58.9596
58.96
58.9579
58.9569
58.9533
58.9424
58.9365
58.938
58.9359
58.94
58.9424
58.9411
58.9397
58.9427
58.944
58.9424
58.9412
58.9282
58.9217
58.9206
58.9218
58.9201
58.9229
58.9244
58.9172
58.9129
58.9207
58.9279
58.9185
58.918
58.9358
58.9428
58.9416
58.9411
58.9293
58.9347
58.9431
58.942
58.9412
58.9334
58.9322
58.9269
58.9336
58.9395
58.9374
58.9341
58.9284
58.9267
58.9176
55.005
55.903
56.8347
57.6946
58.3458
58.736
58.9236
58.9758
58.9795
58.9776
58.9771
58.9675
58.9669
58.9894
59.0047
58.9981
59.0041
59.0075
59.0066
59.0066
59.0037
58.998
58.9936
59.0006
59.0141
59.012
58.9991
59.0006
59.0099
59.0109
59.0103
59.0097
59.0099
59.0058
59.0054
59.0049
59.003
58.9931
58.9874
58.9767
58.9536
58.9469
58.9454
58.9441
58.9401
58.9438
58.9505
58.9508
58.9508
58.9459
58.9464
58.9447
58.9423
58.9397
58.9392
58.9374
58.9334
58.9317
58.9298
58.9259
58.913
58.9153
58.92
58.9092
58.9113
58.9259
58.9268
58.9245
58.9149
58.9154
58.9347
58.9401
58.937
58.9256
58.9259
58.9375
58.9379
58.9352
58.9245
58.9209
58.9355
58.9509
58.9503
58.9467
58.9473
58.9459
58.9349
58.9301
58.9302
58.9226
55.0075
55.8998
56.8336
57.6958
58.3493
58.7439
58.9017
58.9295
58.9315
58.9507
58.9618
58.9653
58.9746
58.9668
58.9707
58.983
58.9724
58.9718
58.9802
58.9801
58.9787
58.9785
58.9751
58.9821
58.9986
58.9986
58.9953
58.9823
58.9854
58.9946
58.9836
58.988
58.9914
58.9897
58.9853
58.9834
58.983
58.9811
58.9781
58.9761
58.9762
58.9762
58.9761
58.9708
58.9588
58.9502
58.9433
58.9277
58.9169
58.9189
58.92
58.9166
58.915
58.9266
58.9341
58.9337
58.9335
58.9221
58.9256
58.9344
58.9287
58.9295
58.9284
58.9202
58.9169
58.9193
58.9201
58.9138
58.9155
58.9303
58.9276
58.9347
58.9385
58.9337
58.9359
58.9365
58.9339
58.9232
58.9284
58.9464
58.9393
58.9457
58.951
58.9464
58.9459
58.9407
58.9451
58.9472
58.9427
58.9263
55.0055
55.903
56.8358
57.6922
58.35
58.732
58.9169
58.9644
58.965
58.9625
58.9525
58.9557
58.9693
58.9637
58.9698
58.9732
58.9659
58.9631
58.9766
58.9899
58.9904
58.9904
58.9794
58.9823
58.9852
58.9909
58.9966
58.9962
58.9959
58.9824
58.9847
58.9864
58.9818
58.9823
58.9776
58.9753
58.9754
58.9742
58.9654
58.9616
58.9591
58.9566
58.952
58.9493
58.9461
58.9399
58.9211
58.9216
58.936
58.9283
58.9323
58.9424
58.9392
58.9389
58.9383
58.9331
58.9306
58.9283
58.9253
58.9194
58.9171
58.9246
58.9267
58.9306
58.9315
58.9227
58.9242
58.9444
58.9488
58.942
58.9481
58.9536
58.9522
58.9535
58.9526
58.9504
58.9408
58.9342
58.9417
58.9481
58.9458
58.9378
58.9402
58.9456
58.9399
58.9393
58.9366
58.9367
58.936
58.9238
55.0074
55.9011
56.8347
57.6972
58.3415
58.7361
58.9241
58.9709
58.9715
58.9694
58.9678
58.9607
58.963
58.9907
58.9937
58.992
58.9901
58.9891
58.9853
58.9823
58.9974
59.0113
59.0113
59.0115
59.0073
59.0044
58.9897
58.9922