/*--------------------------------*- C++ -*----------------------------------*\
  =========                 |
  \\      /  F ield         | OpenFOAM: The Open Source CFD Toolbox
   \\    /   O peration     | Website:  https://openfoam.org
    \\  /    A nd           | Version:  11
     \\/     M anipulation  |
\*---------------------------------------------------------------------------*/
FoamFile
{
    format      ascii;
    class       volScalarField;
    location    "0.084";
    object      p;
}
// * * * * * * * * * * * * * * * * * * * * * * * * * * * * * * * * * * * * * //

dimensions      [0 2 -2 0 0 0 0];

internalField   nonuniform List<scalar> 
287084
(
1.68818
1.40122
1.34492
1.27495
1.20557
1.15258
1.10187
1.05511
1.01005
0.965953
0.922246
0.877667
0.83373
0.790683
0.746178
0.700541
0.654507
0.608204
0.56201
0.516197
0.470819
0.426436
0.382939
0.341119
0.300652
0.261829
0.226852
0.195868
0.169118
0.147815
0.127135
0.106324
0.0888659
0.0758126
0.0663088
0.0596542
0.0557908
0.054366
0.055049
0.0575418
0.0615422
0.0667634
0.0729254
0.0797797
0.0870974
0.0946529
0.102279
0.109819
0.116987
0.123993
0.12986
0.135818
0.142597
0.147846
0.15221
0.155894
0.159274
0.161799
0.163398
0.164453
0.164731
0.164503
0.16368
0.162327
0.160449
0.158013
0.155115
0.151666
0.147899
0.143577
0.13888
0.133967
0.128514
0.122713
0.116723
0.11034
0.103708
0.0968509
0.0897254
0.0824179
0.0748617
0.0671466
0.0592281
0.0511301
0.0426996
0.0340775
0.025104
0.0155744
0.00520402
0.00068708
1.55261
1.36011
1.31297
1.25476
1.19385
1.14439
1.09616
1.05083
1.0067
0.963219
0.919856
0.875893
0.832111
0.788271
0.743267
0.697535
0.651444
0.605119
0.558771
0.512742
0.467153
0.422566
0.378939
0.337087
0.297003
0.258879
0.223929
0.192727
0.165616
0.140769
0.118458
0.0990799
0.0831782
0.0707651
0.0616088
0.0553499
0.0518166
0.0507071
0.0516948
0.0544853
0.0587709
0.064264
0.0706817
0.0777787
0.0853155
0.0930845
0.100901
0.10862
0.116054
0.123184
0.129835
0.136072
0.141988
0.147104
0.151535
0.155343
0.158545
0.161046
0.162815
0.163957
0.16442
0.164258
0.163498
0.16218
0.160312
0.157926
0.155009
0.151631
0.147815
0.143572
0.138905
0.133855
0.128426
0.122678
0.116682
0.110306
0.103685
0.09684
0.089714
0.0824072
0.0748637
0.0671557
0.0592356
0.0511829
0.0428732
0.0344311
0.0256885
0.0168144
0.0074483
0.00186669
1.52592
1.35399
1.30509
1.24862
1.19001
1.14122
1.0936
1.04842
1.00419
0.960503
0.916833
0.872816
0.828581
0.7839
0.738531
0.6925
0.646003
0.599238
0.552417
0.505864
0.459791
0.414644
0.370649
0.328299
0.287914
0.249765
0.214721
0.182631
0.153949
0.129244
0.10756
0.0888697
0.0734932
0.0614348
0.0526997
0.0469342
0.0439174
0.0433463
0.044897
0.0482535
0.053095
0.0591254
0.0660575
0.073633
0.0816175
0.0898002
0.098
0.10606
0.113825
0.12124
0.128115
0.134512
0.140571
0.145882
0.15052
0.154475
0.157752
0.160363
0.16222
0.163424
0.163948
0.163869
0.163155
0.161885
0.160057
0.157682
0.154827
0.151461
0.147673
0.14342
0.138753
0.133771
0.128393
0.122639
0.116619
0.110278
0.103665
0.0967985
0.0897129
0.0824142
0.0748888
0.0671955
0.0593216
0.051222
0.0429713
0.0344984
0.0257528
0.0167271
0.00762075
0.00236759
1.47813
1.31927
1.27587
1.22435
1.1715
1.12636
1.08168
1.03855
0.995827
0.953099
0.910056
0.866385
0.822099
0.777068
0.731285
0.684789
0.637739
0.590348
0.542849
0.495548
0.448732
0.40282
0.358108
0.315089
0.274115
0.235551
0.199987
0.167879
0.139062
0.113645
0.0917044
0.0732286
0.0583602
0.0470167
0.0390266
0.0341019
0.0319502
0.0322655
0.0347036
0.0389355
0.0446275
0.0514749
0.0591777
0.0674771
0.0761309
0.0849322
0.0937006
0.102277
0.11053
0.118367
0.125703
0.132473
0.138673
0.144187
0.148985
0.153111
0.156539
0.159269
0.161277
0.162599
0.16325
0.163249
0.162641
0.161441
0.159665
0.157372
0.154541
0.15123
0.147462
0.14325
0.138635
0.13362
0.128251
0.122534
0.116523
0.110192
0.103603
0.0967728
0.0896813
0.082385
0.0748809
0.0671888
0.0593243
0.0513122
0.0431095
0.0346906
0.0261338
0.0171437
0.00820393
0.00287614
1.45498
1.30483
1.26391
1.21448
1.16384
1.11968
1.07564
1.03272
0.989943
0.946973
0.903533
0.859417
0.814566
0.768864
0.722338
0.675028
0.627117
0.578782
0.53029
0.481958
0.434091
0.387132
0.341433
0.297479
0.255675
0.216451
0.180281
0.147411
0.11814
0.0926387
0.070956
0.0530504
0.0389056
0.0283788
0.0212983
0.0173758
0.0163017
0.0177367
0.0213137
0.0266764
0.0334764
0.0413859
0.0501002
0.0593482
0.0688819
0.0784937
0.0879981
0.0972461
0.106103
0.114475
0.122278
0.129462
0.136013
0.14186
0.146972
0.151362
0.154997
0.157917
0.160101
0.161572
0.162354
0.162489
0.161974
0.160861
0.159173
0.156923
0.154163
0.150906
0.147179
0.143007
0.13842
0.133449
0.128114
0.122416
0.116414
0.110115
0.103543
0.096709
0.0896512
0.0823811
0.0748945
0.0672406
0.0594061
0.0513763
0.0432277
0.0347908
0.026173
0.017216
0.00831261
0.00296691
1.43029
1.28179
1.24253
1.19514
1.14689
1.10473
1.06246
1.02093
0.979158
0.936814
0.893689
0.849572
0.804435
0.758195
0.710948
0.66278
0.613856
0.564408
0.51471
0.465093
0.415942
0.367662
0.32072
0.275566
0.23271
0.19256
0.155627
0.122269
0.0926997
0.0671116
0.0456004
0.0281666
0.0147466
0.0051912
-0.000750014
-0.00338574
-0.00308861
-0.000229555
0.0047898
0.0115792
0.0197647
0.0290042
0.0389732
0.0493938
0.0600141
0.0706215
0.0810368
0.0911069
0.100712
0.109753
0.118162
0.12588
0.132875
0.139108
0.144557
0.149235
0.153141
0.156287
0.158676
0.160334
0.161285
0.16155
0.161168
0.160164
0.158561
0.156407
0.153715
0.150513
0.14684
0.14271
0.138166
0.133221
0.12791
0.12225
0.116274
0.109998
0.103445
0.0966395
0.0895908
0.082327
0.0748649
0.067215
0.0593958
0.0514101
0.0432767
0.0348459
0.0262932
0.0173669
0.00850854
0.00316351
1.41211
1.26635
1.22885
1.18295
1.13619
1.09492
1.05325
1.01194
0.970156
0.927575
0.884002
0.839292
0.793394
0.746253
0.697966
0.648609
0.598404
0.547539
0.496348
0.445184
0.394432
0.344588
0.296099
0.249523
0.205364
0.164118
0.12629
0.092239
0.0623138
0.0366905
0.0155063
-0.0012663
-0.0137335
-0.0220983
-0.0266598
-0.027775
-0.0258533
-0.0213154
-0.0146007
-0.00613066
0.00368805
0.0144869
0.0259315
0.0377323
0.0496287
0.0614063
0.0728835
0.0839169
0.0943831
0.104195
0.113282
0.121602
0.129126
0.135826
0.141694
0.146742
0.150965
0.154385
0.157019
0.158892
0.160029
0.160463
0.160222
0.15934
0.157853
0.155783
0.153175
0.15005
0.146438
0.142371
0.137877
0.132978
0.127705
0.122076
0.116127
0.109873
0.103345
0.096556
0.0895323
0.0822937
0.0748487
0.0672294
0.0594301
0.0514528
0.0433361
0.0349311
0.0263614
0.0174098
0.00855953
0.00317195
1.39501
1.24953
1.21257
1.1676
1.12176
1.08139
1.04048
0.999767
0.958334
0.915847
0.872117
0.826977
0.780407
0.732365
0.682967
0.632326
0.580645
0.528191
0.475284
0.422313
0.369744
0.318047
0.267801
0.219541
0.173884
0.131349
0.0924952
0.0577528
0.0274637
0.00186252
-0.0189406
-0.0349644
-0.0463532
-0.0533551
-0.0563191
-0.0556582
-0.0518416
-0.045348
-0.0366616
-0.0262476
-0.0145481
-0.00195468
0.0111813
0.0245548
0.0379001
0.0510052
0.063691
0.0758121
0.0872575
0.0979422
0.107809
0.116816
0.124947
0.132178
0.13851
0.143956
0.148534
0.152268
0.155176
0.157288
0.158636
0.15925
0.159167
0.158426
0.157057
0.155096
0.152576
0.149529
0.145988
0.141979
0.137538
0.132681
0.127444
0.121856
0.115938
0.109719
0.103217
0.0964547
0.0894515
0.0822323
0.0748104
0.0672049
0.0594246
0.0514773
0.0433744
0.034991
0.0264624
0.0174474
0.00856581
0.00319598
1.38014
1.23547
1.19932
1.15501
1.10992
1.07003
1.02943
0.988769
0.947178
0.90432
0.859997
0.814087
0.766533
0.717314
0.666555
0.61436
0.560986
0.50667
0.451796
0.396777
0.34209
0.28832
0.236027
0.185878
0.13851
0.0945213
0.0545364
0.0189956
-0.0116553
-0.0372157
-0.057528
-0.0726596
-0.0827798
-0.0881919
-0.0893187
-0.0866317
-0.0806695
-0.0719695
-0.061073
-0.0484872
-0.0346849
-0.0200898
-0.00507523
0.0100458
0.0250017
0.0395726
0.0535869
0.0669064
0.0794247
0.0910693
0.101785
0.111545
0.120333
0.128145
0.13499
0.140888
0.145862
0.149937
0.153144
0.155518
0.157097
0.157913
0.158011
0.157421
0.156186
0.154339
0.151921
0.148961
0.145496
0.141559
0.137176
0.132373
0.127183
0.121632
0.115748
0.109555
0.103082
0.0963465
0.0893665
0.082167
0.0747632
0.0671794
0.0594139
0.0514772
0.0433853
0.0350171
0.0265027
0.0174989
0.00860793
0.00324532
1.36639
1.22183
1.18592
1.14197
1.0972
1.0576
1.01716
0.976547
0.934812
0.891605
0.846713
0.799978
0.751383
0.700894
0.648644
0.594765
0.539493
0.483137
0.426072
0.368765
0.311765
0.255653
0.201133
0.148865
0.0996116
0.0540235
0.0127799
-0.0235791
-0.0546209
-0.0800747
-0.0998187
-0.113919
-0.122601
-0.126237
-0.1253
-0.120357
-0.112007
-0.10086
-0.0875163
-0.0725352
-0.0564289
-0.0396476
-0.0225856
-0.00556834
0.0111293
0.0272882
0.0427362
0.057349
0.0710264
0.0837009
0.0953365
0.105907
0.115408
0.123847
0.131241
0.137618
0.143011
0.147453
0.150983
0.153641
0.155464
0.15649
0.15677
0.156345
0.155252
0.153529
0.151218
0.148354
0.144971
0.141099
0.136774
0.132024
0.126883
0.121378
0.115533
0.109376
0.102931
0.096223
0.0892667
0.0820889
0.0747045
0.0671384
0.0593905
0.0514725
0.0433909
0.0350267
0.0265033
0.0174774
0.00860372
0.00323424
1.35381
1.20943
1.17377
1.13007
1.08552
1.04601
1.00554
0.96471
0.922576
0.878794
0.833088
0.785348
0.735511
0.683573
0.629648
0.573875
0.516536
0.457914
0.398455
0.338651
0.279085
0.220446
0.163446
0.108891
0.0575773
0.0102535
-0.0323132
-0.0695647
-0.100964
-0.126274
-0.145328
-0.158257
-0.165321
-0.166967
-0.163761
-0.156334
-0.145379
-0.131577
-0.115591
-0.0980337
-0.079455
-0.060336
-0.0410878
-0.0220489
-0.0034976
0.014345
0.0313189
0.0472993
0.0621954
0.0759537
0.0885475
0.0999692
0.110217
0.119314
0.127288
0.134175
0.140013
0.144843
0.14871
0.15166
0.153741
0.154994
0.155472
0.155217
0.154274
0.15268
0.15048
0.147713
0.144414
0.140622
0.136363
0.131671
0.12658
0.121118
0.115311
0.109185
0.102771
0.0960883
0.089158
0.0820038
0.0746368
0.0670908
0.0593586
0.0514502
0.0433747
0.0350363
0.0264882
0.0174406
0.00862312
0.00327595
1.3421
1.19774
1.16213
1.11854
1.07398
1.03441
0.993765
0.952618
0.910003
0.865545
0.81897
0.770115
0.718951
0.665438
0.609707
0.551916
0.492327
0.431291
0.369251
0.306764
0.24447
0.183093
0.12348
0.0664536
0.0129513
-0.0362077
-0.0801884
-0.118331
-0.150095
-0.175171
-0.193449
-0.205071
-0.210358
-0.209847
-0.204173
-0.194078
-0.18033
-0.163692
-0.144892
-0.124599
-0.103408
-0.0818252
-0.0602824
-0.0391294
-0.0186464
0.000955244
0.0195106
0.0369078
0.0530703
0.0679547
0.0815478
0.0938496
0.104875
0.114653
0.123224
0.130631
0.136923
0.142151
0.146365
0.149619
0.151965
0.15345
0.154128
0.154054
0.153267
0.151805
0.149721
0.147053
0.143842
0.140126
0.135936
0.131302
0.126259
0.120842
0.115076
0.108987
0.102602
0.0959455
0.089041
0.0819115
0.0745667
0.0670349
0.0593156
0.0514283
0.0433701
0.0350588
0.0265675
0.0174767
0.00858411
0.00325102
1.33123
1.18687
1.15127
1.10768
1.06306
1.02332
0.982389
0.940796
0.897552
0.852312
0.804719
0.754647
0.702017
0.646819
0.589163
0.529211
0.467258
0.403644
0.338885
0.273548
0.208356
0.144114
0.0817069
0.0221093
-0.0336943
-0.084772
-0.130191
-0.169244
-0.201305
-0.226096
-0.243475
-0.253658
-0.257023
-0.254185
-0.245888
-0.23296
-0.216269
-0.196657
-0.174924
-0.151793
-0.127893
-0.103768
-0.0798604
-0.0565331
-0.0340648
-0.0126672
0.00750562
0.026351
0.043804
0.0598312
0.0744332
0.0876274
0.0994381
0.10991
0.119087
0.127026
0.133786
0.13942
0.14399
0.147551
0.150168
0.151889
0.152773
0.152873
0.152237
0.150912
0.148947
0.146382
0.143259
0.13962
0.135499
0.130927
0.125939
0.120566
0.114838
0.108786
0.102433
0.0958046
0.0889211
0.0818112
0.0744841
0.066973
0.0592687
0.0513873
0.0433333
0.0350169
0.0264732
0.0174115
0.00861859
0.00329503
1.3211
1.17672
1.14107
1.09741
1.05259
1.01259
0.971287
0.929166
0.885233
0.839117
0.790453
0.739074
0.684922
0.627947
0.56828
0.506085
0.441651
0.375382
0.307778
0.239506
0.171306
0.104075
0.038808
-0.0234654
-0.0816306
-0.134665
-0.181542
-0.221466
-0.253804
-0.278221
-0.294621
-0.303251
-0.304568
-0.299284
-0.288239
-0.272373
-0.252635
-0.229961
-0.205218
-0.179178
-0.15252
-0.125806
-0.099506
-0.073981
-0.0495133
-0.0263094
-0.00451386
0.0157874
0.0345362
0.0517133
0.0673328
0.0814202
0.0940173
0.105179
0.114965
0.123435
0.130656
0.136696
0.141621
0.14549
0.148371
0.150325
0.151412
0.151694
0.151214
0.150024
0.148176
0.145713
0.142681
0.139119
0.135066
0.13055
0.125612
0.120285
0.114597
0.108579
0.102254
0.0956548
0.0887993
0.0817103
0.0744057
0.0669108
0.0592165
0.0513536
0.0433037
0.0350155
0.0264879
0.0174075
0.0086013
0.00327382
1.31173
1.1673
1.13155
1.08776
1.04274
1.00243
0.960681
0.917964
0.873244
0.826214
0.776412
0.723677
0.667929
0.609135
0.547398
0.482893
0.415936
0.346923
0.276436
0.205134
0.133875
0.0636116
-0.00458932
-0.0695585
-0.130111
-0.185085
-0.23339
-0.274157
-0.306687
-0.330659
-0.345981
-0.352963
-0.352143
-0.344329
-0.330464
-0.311592
-0.288765
-0.263
-0.235232
-0.206282
-0.176866
-0.147581
-0.118898
-0.0911878
-0.0647348
-0.0397382
-0.0163339
0.00539897
0.025421
0.0437303
0.0603472
0.0753149
0.0886864
0.100531
0.110912
0.119904
0.127582
0.134017
0.139287
0.143458
0.146606
0.148795
0.150086
0.150537
0.150206
0.14915
0.147417
0.145055
0.142107
0.13862
0.134632
0.130178
0.125295
0.120012
0.114363
0.108381
0.102089
0.095514
0.0886763
0.0816084
0.0743175
0.0668397
0.0591626
0.0513124
0.0432809
0.0349903
0.0264926
0.0174135
0.00859126
0.0032806
1.30308
1.15861
1.12274
1.07878
1.03347
0.992802
0.950567
0.907233
0.861728
0.813726
0.762763
0.70865
0.651299
0.59066
0.52685
0.460033
0.390529
0.318789
0.245379
0.171077
0.0967349
0.0234363
-0.0476719
-0.11533
-0.178231
-0.235111
-0.284788
-0.326328
-0.358995
-0.382442
-0.396627
-0.401904
-0.3989
-0.388524
-0.371827
-0.349958
-0.324057
-0.295229
-0.264467
-0.23265
-0.200527
-0.168714
-0.137702
-0.107866
-0.0794843
-0.0527497
-0.0277881
-0.00466138
0.016601
0.0360061
0.0535965
0.0694174
0.0835395
0.0960389
0.106995
0.116495
0.124612
0.131433
0.137042
0.141505
0.144902
0.147307
0.148791
0.149415
0.14923
0.148302
0.146683
0.144419
0.141558
0.138144
0.13422
0.129818
0.124982
0.119744
0.114131
0.10818
0.101916
0.0953679
0.0885552
0.0815058
0.0742348
0.0667715
0.0591079
0.0512641
0.0432419
0.0349616
0.0264559
0.0173768
0.0085769
0.00329347
1.29519
1.15065
1.11464
1.0705
1.02492
0.983854
0.941133
0.897139
0.850854
0.801885
0.749766
0.694259
0.635312
0.572856
0.506986
0.437884
0.365882
0.291431
0.215177
0.137892
0.0605514
-0.0157244
-0.0896832
-0.159944
-0.225115
-0.283801
-0.334771
-0.376985
-0.409703
-0.432562
-0.445556
-0.449102
-0.443917
-0.431005
-0.411526
-0.386727
-0.357839
-0.326047
-0.292397
-0.257819
-0.223095
-0.188863
-0.155622
-0.123747
-0.0935191
-0.065122
-0.0386708
-0.0142186
0.00821995
0.0286703
0.0471805
0.063815
0.078646
0.0917692
0.103273
0.113252
0.121789
0.128972
0.134895
0.139638
0.14328
0.1459
0.147572
0.148353
0.148308
0.1475
0.145984
0.143812
0.14103
0.137686
0.133822
0.129478
0.124691
0.119493
0.113918
0.107998
0.10176
0.0952355
0.0884407
0.081414
0.0741577
0.0667085
0.059055
0.0512297
0.0432218
0.0349613
0.0264928
0.0173821
0.00854618
0.00326607
1.28806
1.14346
1.1073
1.06298
1.01708
0.97564
0.932383
0.887785
0.840629
0.790845
0.737601
0.680712
0.620224
0.55601
0.48817
0.416867
0.342454
0.265422
0.186406
0.106288
0.026041
-0.0530655
-0.129746
-0.202477
-0.269774
-0.330158
-0.382296
-0.425104
-0.457798
-0.480026
-0.49182
-0.49366
-0.486351
-0.470995
-0.448853
-0.421259
-0.389535
-0.354935
-0.318555
-0.281372
-0.244199
-0.20769
-0.172354
-0.138571
-0.106616
-0.0766662
-0.0488254
-0.023131
0.000415788
0.0218409
0.0412086
0.0585975
0.0740976
0.0878013
0.0998125
0.110235
0.119157
0.12668
0.132904
0.137905
0.141773
0.144591
0.146428
0.147356
0.147441
0.146748
0.145332
0.143245
0.140539
0.137261
0.133459
0.129162
0.124415
0.119253
0.11371
0.10782
0.101607
0.0951031
0.0883289
0.0813173
0.0740745
0.0666383
0.0589999
0.0511858
0.0431862
0.0349373
0.0265085
0.0174183
0.00852243
0.00323892
1.28174
1.13707
1.10076
1.05625
1.01007
0.96823
0.924511
0.879274
0.831451
0.780665
0.72633
0.668252
0.606321
0.540457
0.470749
0.397381
0.320703
0.241227
0.159646
0.0768484
-0.00608557
-0.0878582
-0.167057
-0.242064
-0.311328
-0.373225
-0.426401
-0.469673
-0.50228
-0.523843
-0.53446
-0.534662
-0.525347
-0.507698
-0.483071
-0.452886
-0.418535
-0.381343
-0.342452
-0.302879
-0.26346
-0.224869
-0.18762
-0.152094
-0.11856
-0.0871893
-0.0580782
-0.0312564
-0.00671358
0.015603
0.0357566
0.053837
0.069939
0.0841719
0.0966495
0.10748
0.116763
0.124594
0.131084
0.136324
0.140398
0.143393
0.145392
0.146455
0.146657
0.146066
0.144739
0.142732
0.140092
0.136873
0.133121
0.12887
0.124163
0.11904
0.113529
0.107663
0.101471
0.0949886
0.0882364
0.081243
0.0740109
0.0665883
0.0589559
0.0511475
0.0431546
0.0349047
0.0264333
0.0173372
0.00854351
0.00328854
1.27623
1.13152
1.09507
1.05037
1.00391
0.961723
0.917536
0.871741
0.823175
0.771611
0.716372
0.6571
0.593841
0.52647
0.45507
0.379817
0.301085
0.219402
0.135465
0.0502534
-0.035147
-0.119299
-0.200776
-0.277821
-0.348821
-0.412068
-0.466111
-0.509764
-0.542225
-0.563138
-0.572643
-0.571332
-0.560178
-0.540448
-0.513577
-0.48106
-0.444365
-0.404857
-0.363727
-0.32202
-0.2806
-0.240149
-0.201192
-0.164111
-0.129171
-0.0965386
-0.0662931
-0.0384613
-0.0130206
0.0100823
0.0309325
0.0496286
0.0662721
0.0809734
0.0938585
0.105045
0.114638
0.122744
0.129473
0.134919
0.139174
0.142329
0.144461
0.145648
0.145958
0.145459
0.14421
0.14227
0.139693
0.136528
0.132823
0.128612
0.12394
0.118842
0.113357
0.107518
0.101348
0.0948819
0.0881418
0.0811593
0.0739416
0.0665277
0.0589042
0.0511052
0.0431135
0.0348673
0.0264028
0.017327
0.00854722
0.00328885
1.27161
1.12682
1.09022
1.04541
0.998675
0.956174
0.911587
0.865289
0.816125
0.763847
0.707716
0.647453
0.583039
0.514342
0.441449
0.36455
0.284005
0.20037
0.114389
0.027052
-0.0604714
-0.146726
-0.23018
-0.308975
-0.381477
-0.44583
-0.500596
-0.544507
-0.576803
-0.597101
-0.605597
-0.602938
-0.590171
-0.568625
-0.539807
-0.505274
-0.466545
-0.425039
-0.381978
-0.338437
-0.295296
-0.253251
-0.21283
-0.174417
-0.138273
-0.104553
-0.0733394
-0.0446453
-0.0184431
0.00533908
0.0267828
0.0459972
0.0630979
0.0782084
0.0914484
0.102942
0.112808
0.121152
0.12809
0.133716
0.13813
0.141419
0.143671
0.14496
0.14536
0.14494
0.143762
0.141881
0.139356
0.136236
0.132568
0.128393
0.123752
0.118683
0.11322
0.107397
0.101244
0.0947947
0.0880699
0.0811021
0.0738939
0.0664904
0.0588736
0.0510827
0.0431006
0.034851
0.0264103
0.0173302
0.00853564
0.00328275
1.26784
1.12303
1.08633
1.04135
0.994431
0.951657
0.906742
0.860016
0.81038
0.757426
0.700564
0.639495
0.57411
0.504313
0.430183
0.351899
0.269852
0.184602
0.0969033
0.0078111
-0.0815112
-0.16948
-0.254574
-0.334816
-0.40853
-0.473802
-0.529073
-0.57318
-0.605304
-0.625062
-0.632705
-0.628915
-0.614798
-0.591746
-0.561319
-0.525125
-0.484733
-0.441588
-0.396948
-0.351903
-0.307349
-0.263994
-0.222369
-0.18286
-0.145723
-0.111118
-0.0791096
-0.0497073
-0.0228738
0.0014597
0.0233938
0.04304
0.0605234
0.0759653
0.0894918
0.101233
0.111316
0.119856
0.126961
0.132732
0.137272
0.140672
0.14302
0.144399
0.144873
0.144515
0.143389
0.141558
0.139073
0.135987
0.132352
0.128203
0.12359
0.118543
0.113101
0.107299
0.101158
0.0947197
0.0880051
0.0810443
0.0738438
0.0664428
0.0588358
0.0510478
0.0430726
0.0348432
0.0263897
0.0173039
0.00852012
0.00328532
1.26499
1.12017
1.08338
1.03828
0.991196
0.948225
0.90304
0.855991
0.805922
0.752546
0.69515
0.63339
0.567255
0.496597
0.421497
0.342149
0.258932
0.172422
0.0834039
-0.00705402
-0.0977444
-0.187046
-0.273403
-0.354726
-0.429429
-0.495308
-0.550959
-0.595162
-0.627166
-0.646487
-0.653452
-0.648784
-0.633625
-0.609414
-0.577752
-0.540287
-0.498617
-0.454221
-0.408372
-0.362179
-0.316547
-0.272193
-0.229651
-0.189306
-0.151417
-0.116129
-0.0835148
-0.0535709
-0.0262606
-0.00150448
0.0208022
0.0407755
0.0585423
0.0742393
0.0879904
0.0999271
0.110175
0.118858
0.126095
0.131979
0.136618
0.140101
0.142525
0.143963
0.144494
0.144187
0.143107
0.141313
0.138862
0.135806
0.132194
0.128072
0.123472
0.118441
0.113015
0.107221
0.101092
0.0946619
0.0879553
0.0810056
0.0738106
0.0664213
0.0588185
0.051039
0.0430626
0.0348371
0.026387
0.017293
0.00851468
0.00327305
1.2631
1.11824
1.08139
1.03622
0.989026
0.945899
0.90054
0.853269
0.80289
0.749242
0.691471
0.629244
0.562594
0.491361
0.415611
0.33553
0.251517
0.16416
0.0742309
-0.0171496
-0.108799
-0.198984
-0.286232
-0.368277
-0.443746
-0.509991
-0.565722
-0.609971
-0.641946
-0.66097
-0.66748
-0.662208
-0.646342
-0.621343
-0.588845
-0.550519
-0.50799
-0.462751
-0.416087
-0.369118
-0.322761
-0.277731
-0.234567
-0.193659
-0.155256
-0.119512
-0.0864884
-0.0561802
-0.028544
-0.00350193
0.0190543
0.0392462
0.0572097
0.0730739
0.086972
0.0990383
0.109405
0.118189
0.125511
0.131473
0.136177
0.139719
0.14219
0.143677
0.144248
0.143973
0.142918
0.141148
0.138716
0.135676
0.132083
0.12797
0.123387
0.118372
0.112954
0.107169
0.101046
0.0946236
0.0879236
0.0809752
0.0737853
0.0663939
0.0587955
0.0510172
0.0430531
0.0348323
0.0264035
0.0173206
0.00851577
0.00328573
1.26214
1.11728
1.08039
1.03519
0.987944
0.944736
0.899307
0.851914
0.801481
0.747542
0.689526
0.627156
0.560244
0.488711
0.412619
0.332172
0.247752
0.159958
0.0695774
-0.0222745
-0.114389
-0.205035
-0.292723
-0.375138
-0.451027
-0.517563
-0.573068
-0.617378
-0.649378
-0.668264
-0.674543
-0.66897
-0.652744
-0.62735
-0.594431
-0.555672
-0.512707
-0.46704
-0.419964
-0.372608
-0.325885
-0.280517
-0.237045
-0.195854
-0.157196
-0.12122
-0.0879975
-0.0575006
-0.0296904
-0.00450536
0.0181756
0.0384841
0.0565449
0.0724928
0.0864651
0.0985987
0.10902
0.11785
0.125216
0.131216
0.135955
0.139525
0.14202
0.143523
0.144115
0.143858
0.142818
0.141061
0.138643
0.135618
0.132029
0.127924
0.123345
0.118334
0.11292
0.107138
0.101026
0.0946074
0.0879089
0.0809623
0.0737718
0.066389
0.0587916
0.051016
0.0430466
0.0348232
0.0263659
0.0172662
0.00851002
0.00329459
1.26215
1.11727
1.08038
1.03519
0.987945
0.944735
0.899304
0.851914
0.801483
0.74754
0.689517
0.627156
0.560241
0.488711
0.412626
0.332178
0.247765
0.159968
0.0695833
-0.0222626
-0.114386
-0.205026
-0.292717
-0.375131
-0.451037
-0.51755
-0.573045
-0.617386
-0.649368
-0.668255
-0.674535
-0.668959
-0.652736
-0.627341
-0.594422
-0.555665
-0.5127
-0.467034
-0.419958
-0.3726
-0.325876
-0.280509
-0.237034
-0.195843
-0.157186
-0.121212
-0.0879883
-0.0574991
-0.0296947
-0.00450773
0.0181745
0.0384778
0.0565374
0.0724867
0.0864608
0.098593
0.109016
0.117849
0.125215
0.131214
0.135952
0.139524
0.14202
0.143527
0.144118
0.143864
0.142823
0.141065
0.138646
0.135615
0.132027
0.127923
0.123345
0.118335
0.112921
0.107141
0.101022
0.0946042
0.0879074
0.0809597
0.0737726
0.0663831
0.0587845
0.0510101
0.0430448
0.0348225
0.0263835
0.0173024
0.00851275
0.00328059
1.2631
1.11824
1.08139
1.03622
0.989039
0.945908
0.900568
0.853284
0.802913
0.74924
0.691462
0.629244
0.562593
0.491361
0.415602
0.335529
0.251514
0.164158
0.0742306
-0.0171467
-0.108783
-0.198968
-0.286214
-0.368237
-0.443727
-0.509915
-0.565663
-0.609995
-0.641916
-0.660941
-0.667449
-0.662176
-0.646309
-0.621314
-0.588819
-0.550496
-0.507969
-0.462729
-0.416065
-0.3691
-0.322745
-0.277719
-0.234558
-0.19365
-0.155252
-0.119508
-0.0864838
-0.0561768
-0.0285417
-0.00349926
0.0190601
0.0392546
0.0572209
0.0730879
0.0869846
0.099051
0.109414
0.118194
0.125511
0.13147
0.136173
0.139714
0.142188
0.143669
0.144239
0.143965
0.142912
0.141143
0.138713
0.135677
0.13208
0.127968
0.123381
0.118365
0.112947
0.107161
0.101045
0.094625
0.0879251
0.0809774
0.0737842
0.066397
0.0587921
0.0510168
0.0430445
0.0348224
0.0263655
0.0172714
0.00851472
0.00328835
1.265
1.12016
1.08338
1.03828
0.991205
0.948229
0.90305
0.85601
0.805985
0.752523
0.695089
0.633388
0.567251
0.496598
0.421507
0.342157
0.258949
0.172442
0.0834214
-0.00702711
-0.097724
-0.187006
-0.273376
-0.354682
-0.429402
-0.495225
-0.550904
-0.595152
-0.627115
-0.646443
-0.653405
-0.648735
-0.633576
-0.609365
-0.577708
-0.540244
-0.498579
-0.454187
-0.40834
-0.362151
-0.31652
-0.272169
-0.229628
-0.189287
-0.151398
-0.116113
-0.0835025
-0.0535613
-0.0262509
-0.00149667
0.0208086
0.0407793
0.0585461
0.0742409
0.0879894
0.0999239
0.110177
0.11886
0.126091
0.131976
0.136614
0.1401
0.142521
0.14396
0.144494
0.14419
0.143108
0.141314
0.138863
0.135803
0.132189
0.128064
0.123466
0.118437
0.113011
0.107215
0.101088
0.0946613
0.0879537
0.080998
0.073805
0.0664099
0.0588059
0.0510215
0.0430515
0.0348092
0.0263517
0.0172907
0.00854563
0.00332139
1.26784
1.12304
1.08634
1.04135
0.994441
0.951664
0.906767
0.860037
0.810424
0.757419
0.700536
0.639494
0.574108
0.504319
0.430186
0.351914
0.269863
0.184615
0.0969255
0.00783046
-0.0814699
-0.169445
-0.254524
-0.334766
-0.408475
-0.473725
-0.529016
-0.573119
-0.60523
-0.624988
-0.632631
-0.628843
-0.61473
-0.591681
-0.561257
-0.525068
-0.484679
-0.441539
-0.396905
-0.351866
-0.307318
-0.263967
-0.222345
-0.182838
-0.145704
-0.111099
-0.0790929
-0.049691
-0.0228597
0.00147134
0.023403
0.0430467
0.0605276
0.0759709
0.0895004
0.101243
0.111325
0.11986
0.126963
0.132732
0.137271
0.140668
0.143015
0.144389
0.144864
0.144505
0.143382
0.141553
0.13907
0.135985
0.132349
0.128203
0.123585
0.118537
0.113093
0.107288
0.101153
0.0947161
0.0880025
0.0810451
0.0738409
0.0664415
0.0588282
0.0510475
0.0430668
0.0348364
0.0264013
0.0173043
0.00852014
0.00327816
1.2716
1.12683
1.09025
1.04539
0.998686
0.956179
0.911602
0.865311
0.816196
0.763818
0.707656
0.647448
0.583037
0.514346
0.441462
0.36456
0.284033
0.200403
0.114419
0.0270974
-0.0604325
-0.146666
-0.230124
-0.308914
-0.381404
-0.44575
-0.500506
-0.544433
-0.576711
-0.597014
-0.605511
-0.602855
-0.590084
-0.568542
-0.539728
-0.5052
-0.466478
-0.42498
-0.381927
-0.338396
-0.295256
-0.253215
-0.212796
-0.174385
-0.138241
-0.104525
-0.0733144
-0.044621
-0.0184218
0.00535398
0.0268
0.0460125
0.0631104
0.078219
0.0914583
0.102949
0.112809
0.121151
0.128083
0.133709
0.138125
0.141416
0.143667
0.144955
0.145356
0.14494
0.143759
0.141878
0.139355
0.136231
0.13256
0.128383
0.12374
0.118674
0.113213
0.10739
0.101242
0.0947887
0.0880598
0.0810918
0.073884
0.0664764
0.0588593
0.0510665
0.0430847
0.0348384
0.0263781
0.0173068
0.00854945
0.00331153
1.27623
1.13153
1.09507
1.05037
1.00392
0.961726
0.917561
0.871759
0.823263
0.771609
0.716295
0.657094
0.593842
0.526482
0.455084
0.379841
0.301113
0.219424
0.135509
0.0502882
-0.035083
-0.119249
-0.200704
-0.277756
-0.348737
-0.411976
-0.466017
-0.509664
-0.542122
-0.563033
-0.57254
-0.571229
-0.560079
-0.540355
-0.513488
-0.480977
-0.444286
-0.404782
-0.363661
-0.321961
-0.280546
-0.2401
-0.201149
-0.164073
-0.129136
-0.0965053
-0.066263
-0.0384331
-0.013
0.0100991
0.0309433
0.0496297
0.0662696
0.0809749
0.0938621
0.105045
0.114639
0.122751
0.12948
0.13492
0.139174
0.142322
0.144455
0.145642
0.145952
0.145451
0.144204
0.142267
0.139691
0.136525
0.132817
0.128608
0.123935
0.118839
0.11335
0.107509
0.101343
0.094879
0.0881376
0.0811564
0.0739344
0.0665191
0.0588941
0.0511029
0.0431096
0.0348683
0.0264153
0.0173284
0.00853367
0.0032629
1.28173
1.13708
1.10077
1.05625
1.01007
0.968236
0.924512
0.879286
0.831456
0.780661
0.726333
0.668256
0.606326
0.540465
0.470771
0.397407
0.320739
0.241272
0.159688
0.0769082
-0.00602572
-0.0877814
-0.166975
-0.241979
-0.311223
-0.373124
-0.426284
-0.469565
-0.502162
-0.523728
-0.534344
-0.534549
-0.525235
-0.507592
-0.482969
-0.452789
-0.418445
-0.381262
-0.342379
-0.302816
-0.263403
-0.224817
-0.187574
-0.152055
-0.118525
-0.087157
-0.0580455
-0.0312221
-0.00668133
0.0156294
0.0357818
0.0538574
0.0699587
0.0841956
0.0966673
0.107486
0.11676
0.124592
0.131078
0.136313
0.140388
0.143386
0.145381
0.146445
0.146651
0.146063
0.144735
0.142727
0.140091
0.136872
0.133114
0.128862
0.124154
0.119027
0.113517
0.107652
0.101464
0.0949799
0.0882242
0.0812276
0.073995
0.0665702
0.0589352
0.0511319
0.0431307
0.0348887
0.0264094
0.0173206
0.00854868
0.00327342
1.28807
1.14347
1.10729
1.06299
1.01709
0.975639
0.932414
0.887783
0.840724
0.790829
0.737534
0.68072
0.620237
0.556032
0.488194
0.416893
0.342496
0.265451
0.186466
0.106329
0.0261177
-0.0530038
-0.129657
-0.202385
-0.269673
-0.33005
-0.382178
-0.424977
-0.457672
-0.479892
-0.49169
-0.493531
-0.486231
-0.470882
-0.448743
-0.421154
-0.389434
-0.354838
-0.318467
-0.281292
-0.244128
-0.207626
-0.172298
-0.138525
-0.106576
-0.0766274
-0.048784
-0.0230956
0.000442494
0.0218662
0.0412311
0.0586151
0.0741084
0.0878111
0.0998198
0.110233
0.119157
0.126684
0.132903
0.1379
0.141769
0.144582
0.14642
0.147346
0.147434
0.146741
0.145326
0.143241
0.140535
0.137257
0.133451
0.129155
0.124407
0.119248
0.113703
0.107812
0.101599
0.095096
0.0883211
0.0813101
0.0740652
0.0666264
0.0589836
0.0511669
0.0431697
0.0348792
0.0264282
0.0173789
0.00856913
0.0032986
1.29519
1.15066
1.11466
1.07051
1.02492
0.983872
0.941131
0.897162
0.850873
0.801902
0.749743
0.694267
0.635324
0.572868
0.507011
0.437913
0.365918
0.291486
0.215235
0.137965
0.0606276
-0.0156417
-0.0895845
-0.159844
-0.224994
-0.283683
-0.334639
-0.376855
-0.409569
-0.432424
-0.44542
-0.448967
-0.443785
-0.43088
-0.411408
-0.386615
-0.357733
-0.32595
-0.292307
-0.257737
-0.223017
-0.188792
-0.155558
-0.123694
-0.0934724
-0.0650804
-0.0386323
-0.014181
0.00825517
0.0287034
0.0472107
0.063843
0.0786735
0.0917923
0.103287
0.113256
0.121787
0.128967
0.134887
0.139629
0.143273
0.14589
0.147558
0.148341
0.148299
0.147495
0.14598
0.143809
0.14103
0.137685
0.133817
0.129469
0.124679
0.119484
0.113909
0.107985
0.101746
0.0952205
0.0884265
0.0813969
0.0741353
0.066685
0.0590318
0.0512053
0.0431914
0.0349253
0.026432
0.0173259
0.00856065
0.00329841
1.3031
1.15861
1.12271
1.07881
1.03349
0.992814
0.950584
0.907238
0.861745
0.813741
0.762767
0.708665
0.651316
0.590682
0.526881
0.460063
0.390585
0.318823
0.245451
0.171128
0.0968215
0.0235163
-0.0475752
-0.115226
-0.178116
-0.234985
-0.284657
-0.326187
-0.358853
-0.382295
-0.396483
-0.401758
-0.398765
-0.388392
-0.371698
-0.349834
-0.32394
-0.295119
-0.264367
-0.232559
-0.200446
-0.168641
-0.137638
-0.10781
-0.0794355
-0.0527057
-0.0277421
-0.00462111
0.0166375
0.036044
0.0536283
0.0694442
0.0835605
0.0960562
0.107008
0.116496
0.12461
0.131431
0.137034