/*--------------------------------*- C++ -*----------------------------------*\
  =========                 |
  \\      /  F ield         | OpenFOAM: The Open Source CFD Toolbox
   \\    /   O peration     | Website:  https://openfoam.org
    \\  /    A nd           | Version:  11
     \\/     M anipulation  |
\*---------------------------------------------------------------------------*/
FoamFile
{
    format      ascii;
    class       volScalarField;
    location    "0.066";
    object      k;
}
// * * * * * * * * * * * * * * * * * * * * * * * * * * * * * * * * * * * * * //

dimensions      [0 2 -2 0 0 0 0];

internalField   nonuniform List<scalar> 
287084
(
0.381231
0.39497
0.408424
0.418643
0.424642
0.427052
0.427427
0.427401
0.427271
0.427269
0.427439
0.427374
0.427477
0.427551
0.427544
0.427543
0.427463
0.427448
0.427294
0.427331
0.427561
0.427464
0.427562
0.427654
0.427655
0.427654
0.427445
0.42749
0.427648
0.427629
0.427637
0.427651
0.427648
0.427557
0.427507
0.427448
0.427266
0.427267
0.427271
0.427221
0.427072
0.427085
0.427108
0.427065
0.42706
0.427012
0.42693
0.426836
0.426891
0.426816
0.426865
0.427068
0.427128
0.427097
0.427043
0.426884
0.426876
0.426929
0.426793
0.426896
0.426995
0.426959
0.426862
0.426882
0.427165
0.427189
0.427151
0.42697
0.426969
0.427114
0.427121
0.427111
0.426959
0.426997
0.427115
0.427205
0.427179
0.427124
0.427128
0.427049
0.427057
0.427032
0.427163
0.427256
0.427253
0.427248
0.427047
0.426966
0.426953
0.426837
0.381281
0.394908
0.408206
0.418477
0.424579
0.427114
0.427534
0.427387
0.427418
0.427673
0.427737
0.427708
0.427685
0.427646
0.427585
0.427443
0.427377
0.427449
0.427521
0.427509
0.427427
0.427576
0.427946
0.427933
0.427902
0.427899
0.427871
0.427831
0.427623
0.427564
0.427624
0.427548
0.427629
0.427658
0.427562
0.427557
0.427547
0.427488
0.427326
0.427427
0.427532
0.427508
0.427493
0.427293
0.427336
0.427456
0.427348
0.42741
0.427437
0.427423
0.427406
0.427172
0.427102
0.427101
0.427074
0.427108
0.427071
0.427035
0.426967
0.426967
0.426946
0.427089
0.427251
0.427241
0.427239
0.427069
0.42715
0.427325
0.427309
0.427296
0.427183
0.427312
0.427457
0.427394
0.427391
0.427378
0.427238
0.427162
0.427197
0.427177
0.427229
0.42724
0.427213
0.427141
0.427232
0.427328
0.427242
0.427234
0.427212
0.427008
0.381285
0.394893
0.408197
0.418469
0.424457
0.42715
0.427727
0.42773
0.427725
0.427636
0.427613
0.427568
0.427626
0.427641
0.427617
0.427548
0.427622
0.427783
0.427786
0.427785
0.427587
0.42761
0.427712
0.427831
0.427955
0.427935
0.427941
0.427877
0.427814
0.427816
0.427829
0.427798
0.427809
0.427759
0.427722
0.427645
0.427529
0.427491
0.427381
0.427455
0.427525
0.427347
0.427416
0.427457
0.427442
0.427436
0.427249
0.427323
0.427438
0.427438
0.427437
0.427379
0.427365
0.427264
0.427068
0.427109
0.427181
0.427038
0.427016
0.427076
0.427071
0.427152
0.427171
0.427136
0.427066
0.427149
0.427421
0.427424
0.427392
0.427302
0.427286
0.42729
0.427277
0.427098
0.427116
0.427166
0.427065
0.42704
0.427074
0.427082
0.426954
0.426998
0.427206
0.427185
0.427184
0.42723
0.427242
0.427216
0.427186
0.426969
0.381258
0.394923
0.408209
0.418372
0.424425
0.42719
0.427807
0.427812
0.427806
0.427709
0.427797
0.427862
0.42783
0.427807
0.427646
0.427723
0.427859
0.427754
0.427798
0.427827
0.427798
0.427829
0.427789
0.427608
0.427645
0.427675
0.427593
0.427589
0.427518
0.427674
0.427895
0.427868
0.427831
0.427759
0.427759
0.427763
0.427771
0.427693
0.427411
0.427406
0.427474
0.427445
0.427356
0.427298
0.427346
0.427339
0.427381
0.427387
0.427343
0.427158
0.427193
0.427241
0.427237
0.427237
0.427174
0.427167
0.427111
0.426999
0.427094
0.427341
0.427323
0.427288
0.427197
0.427183
0.427055
0.427144
0.427339
0.427148
0.42721
0.427376
0.427346
0.427273
0.427215
0.427203
0.42708
0.427123
0.427362
0.427479
0.427449
0.427471
0.427453
0.427297
0.427228
0.427317
0.427352
0.427307
0.427154
0.427197
0.427246
0.427035
0.381254
0.394933
0.40819
0.418335
0.424522
0.427064
0.427477
0.42758
0.427717
0.427673
0.427587
0.427651
0.42775
0.427707
0.427602
0.427565
0.427609
0.427525
0.427571
0.427596
0.427564
0.427483
0.427535
0.42774
0.427748
0.427725
0.427747
0.427668
0.427669
0.427717
0.427738
0.4277
0.427669
0.427672
0.427612
0.427468
0.427392
0.427616
0.427757
0.427752
0.427747
0.42763
0.42762
0.427565
0.427537
0.427497
0.427447
0.427407
0.427347
0.427223
0.42709
0.427119
0.427142
0.427093
0.427105
0.427095
0.427102
0.426986
0.42706
0.427132
0.427081
0.427098
0.427026
0.426999
0.426981
0.426996
0.426945
0.427051
0.427126
0.427107
0.427053
0.427077
0.427388
0.427461
0.427441
0.427426
0.427386
0.427299
0.427292
0.427265
0.427224
0.4272
0.427149
0.426986
0.426984
0.427193
0.42725
0.427229
0.427181
0.427032
0.381252
0.394908
0.408199
0.418443
0.424447
0.426747
0.427157
0.427254
0.42761
0.427685
0.427662
0.427667
0.427618
0.4275
0.427353
0.427428
0.427498
0.427567
0.427649
0.427641
0.427659
0.427619
0.427488
0.427553
0.427665
0.427467
0.427467
0.427732
0.427812
0.427781
0.427734
0.427693
0.427635
0.427611
0.427463
0.427523
0.427591
0.427456
0.42751
0.427568
0.427545
0.427557
0.427513
0.427427
0.427363
0.427229
0.427138
0.427216
0.427289
0.427274
0.42727
0.427161
0.427106
0.42722
0.427299
0.427272
0.427271
0.42714
0.427121
0.427234
0.427297
0.427266
0.42722
0.427181
0.427015
0.427055
0.427336
0.427402
0.42738
0.427313
0.427279
0.427259
0.427105
0.42711
0.427292
0.427242
0.427298
0.427372
0.427351
0.427338
0.427289
0.427105
0.427057
0.427234
0.427345
0.427312
0.427198
0.427173
0.427167
0.427048
0.381227
0.39492
0.408208
0.418429
0.424463
0.426753
0.42751
0.427536
0.427531
0.427527
0.427358
0.427292
0.4276
0.427928
0.427795
0.427866
0.428166
0.428179
0.428139
0.428026
0.42799
0.427987
0.427954
0.42787
0.427977
0.428048
0.427998
0.427824
0.427839
0.427898
0.427776
0.427726
0.427705
0.42765
0.427707
0.42773
0.427671
0.427473
0.427448
0.427634
0.427661
0.427611
0.427413
0.427449
0.427523
0.427483
0.427414
0.427326
0.427352
0.427422
0.427377
0.427189
0.427233
0.427264
0.427241
0.427232
0.427202
0.427257
0.427203
0.427249
0.427264
0.427218
0.427047
0.427041
0.427176
0.427106
0.427154
0.427196
0.427155
0.427018
0.427074
0.427175
0.42713
0.427066
0.427123
0.427314
0.42726
0.427264
0.427255
0.427189
0.427105
0.427183
0.42727
0.427256
0.427249
0.427097
0.427146
0.427326
0.427299
0.427161
0.381245
0.394917
0.408267
0.418257
0.424314
0.427286
0.428151
0.428347
0.428315
0.428329
0.428258
0.428286
0.428309
0.428276
0.428273
0.428274
0.428259
0.428205
0.428161
0.428033
0.428116
0.428195
0.428144
0.428133
0.428099
0.428059
0.428041
0.428041
0.428032
0.42807
0.428021
0.427984
0.427958
0.427813
0.427717
0.427674
0.427637
0.427518
0.427605
0.427765
0.427766
0.427761
0.427533
0.427548
0.427635
0.427583
0.427588
0.427549
0.427479
0.427396
0.427389
0.427312
0.427421
0.427564
0.427485
0.427475
0.42738
0.427457
0.427495
0.42748
0.427479
0.427419
0.427219
0.427197
0.427202
0.427126
0.427046
0.427121
0.427271
0.427172
0.427229
0.427324
0.427306
0.427292
0.427118
0.42716
0.427444
0.427449
0.427421
0.427426
0.427361
0.427119
0.427085
0.427328
0.427388
0.427339
0.427163
0.427198
0.427284
0.427055
0.38124
0.394908
0.408221
0.418411
0.424368
0.426983
0.42753
0.427536
0.427528
0.427438
0.427358
0.427545
0.427959
0.427978
0.427913
0.427905
0.427896
0.427891
0.428069
0.428232
0.42817
0.428187
0.428186
0.428038
0.428101
0.428173
0.428149
0.428142
0.428112
0.428108
0.428039
0.428033
0.427948
0.427709
0.42765
0.427655
0.427629
0.42765
0.427602
0.427445
0.427507
0.427662
0.427448
0.427469
0.427605
0.42761
0.427599
0.427607
0.427618
0.427592
0.427571
0.427379
0.427318
0.427286
0.427227
0.427033
0.42706
0.427258
0.427269
0.427256
0.427048
0.427095
0.42731
0.427314
0.427277
0.427223
0.42718
0.426996
0.426986
0.427311
0.427407
0.427383
0.427374
0.427267
0.427225
0.427086
0.427107
0.42745
0.427527
0.42751
0.427531
0.427498
0.42743
0.427205
0.42722
0.427329
0.427223
0.427233
0.427217
0.427047
0.38126
0.39482
0.408325
0.41839
0.424347
0.426915
0.427373
0.42737
0.427325
0.427388
0.42769
0.427707
0.427668
0.427486
0.42754
0.427749
0.427683
0.427727
0.427784
0.427748
0.427585
0.427652
0.427763
0.427685
0.427681
0.42768
0.427621
0.427593
0.42778
0.42788
0.427822
0.42783
0.427806
0.427611
0.427645
0.427719
0.427675
0.427704
0.42766
0.427625
0.427617
0.427616
0.427574
0.427509
0.427274
0.427091
0.427115
0.427202
0.427155
0.427039
0.426966
0.427061
0.427109
0.427059
0.426888
0.426927
0.427018
0.426886
0.426835
0.42705
0.427222
0.427206
0.427195
0.427079
0.427033
0.426887
0.426859
0.427012
0.427031
0.427094
0.427127
0.427084
0.426953
0.427005
0.427133
0.427007
0.426957
0.427148
0.42728
0.427272
0.42727
0.427086
0.427142
0.427401
0.427414
0.42738
0.427304
0.427288
0.427229
0.427037
0.381257
0.394885
0.408229
0.418367
0.424437
0.427012
0.427459
0.427456
0.427411
0.427472
0.42758
0.427533
0.427488
0.427574
0.42769
0.427528
0.427607
0.42787
0.42777
0.427889
0.428006
0.428002
0.428002
0.427803
0.427877
0.427954
0.427735
0.4278
0.427869
0.427842
0.427842
0.427733
0.427826
0.427917
0.427889
0.427859
0.427822
0.42778
0.427736
0.427735
0.427691
0.427597
0.427363
0.427267
0.427201
0.427003
0.427038
0.42725
0.42727
0.427273
0.427171
0.427244
0.427275
0.427228
0.42708
0.427106
0.427138
0.427051
0.426979
0.427067
0.427209
0.42718
0.427134
0.427012
0.427117
0.427192
0.427147
0.427054
0.426968
0.427072
0.427187
0.427159
0.427069
0.427156
0.427211
0.427172
0.427166
0.427032
0.427098
0.427317
0.427218
0.427171
0.427291
0.427407
0.427364
0.427201
0.427234
0.427291
0.427245
0.427095
0.38123
0.394929
0.408201
0.418388
0.424406
0.426994
0.427704
0.427742
0.427717
0.427711
0.427576
0.427613
0.42789
0.428098
0.428125
0.427993
0.428004
0.427996
0.427869
0.427904
0.428073
0.428023
0.428009
0.427981
0.427929
0.428057
0.428174
0.428152
0.428138
0.428125
0.428132
0.428077
0.428069
0.428036
0.428016
0.427952
0.427893
0.427793
0.427631
0.427501
0.427398
0.427316
0.427256
0.427077
0.427126
0.427202
0.427178
0.42717
0.427082
0.427127
0.427078
0.427181
0.427375
0.427362
0.427369
0.427308
0.427145
0.42708
0.427063
0.427011
0.426962
0.426953
0.42692
0.427025
0.427332
0.427328
0.427285
0.427149
0.427071
0.427249
0.427356
0.427311
0.427212
0.427126
0.427231
0.427303
0.427251
0.427127
0.427032
0.427187
0.427278
0.427244
0.427138
0.427193
0.427326
0.427325
0.427324
0.427221
0.427193
0.427005
0.381247
0.394909
0.408286
0.418214
0.424359
0.427281
0.427963
0.427967
0.427885
0.427962
0.428133
0.427926
0.427936
0.428074
0.427937
0.428016
0.428192
0.428193
0.428195
0.428005
0.428084
0.428262
0.428117
0.428065
0.428217
0.4283
0.428194
0.428248
0.428263
0.428217
0.428134
0.428092
0.428007
0.42794
0.427745
0.427716
0.4278
0.4278
0.427759
0.427515
0.427506
0.427546
0.427555
0.427551
0.427331
0.427373
0.427495
0.427454
0.427478
0.427481
0.427459
0.427435
0.427423
0.427291
0.42716
0.42721
0.427308
0.427258
0.427066
0.42704
0.427268
0.427367
0.427345
0.427326
0.427293
0.427224
0.427079
0.427125
0.42724
0.427141
0.427203
0.427276
0.427258
0.427255
0.427102
0.427166
0.427383
0.42739
0.427377
0.427172
0.427223
0.427372
0.427342
0.427306
0.427242
0.427167
0.427209
0.427259
0.427215
0.427078
0.381252
0.394872
0.408216
0.418475
0.42442
0.426734
0.427407
0.427428
0.427246
0.427338
0.427439
0.427294
0.42738
0.427438
0.427272
0.427318
0.427559
0.427486
0.427609
0.427767
0.427646
0.427596
0.427699
0.427734
0.42785
0.42811
0.427945
0.428027
0.428084
0.428036
0.427886
0.427873
0.427873
0.427837
0.427709
0.427695
0.42774
0.427564
0.427609
0.427664
0.427633
0.427663
0.427618
0.42759
0.427602
0.427598
0.427407
0.427448
0.427491
0.427482
0.427477
0.427323
0.427186
0.42718
0.427263
0.42724
0.427159
0.427058
0.427173
0.427255
0.42723
0.427219
0.427059
0.427113
0.42718
0.427152
0.427072
0.427078
0.427214
0.427165
0.42725
0.42729
0.427265
0.427251
0.427108
0.427108
0.427043
0.427124
0.427376
0.427217
0.427285
0.427493
0.427487
0.427484
0.427446
0.427284
0.427337
0.427475
0.427429
0.427252
0.381246
0.394916
0.408264
0.418263
0.424286
0.427312
0.428141
0.428157
0.428059
0.428129
0.42827
0.428074
0.428145
0.428256
0.428127
0.428128
0.428127
0.428006
0.42804
0.428179
0.428069
0.428143
0.42834
0.428333
0.428274
0.428281
0.428281
0.428261
0.428238
0.428202
0.428158
0.428119
0.428118
0.428116
0.428052
0.428017
0.427957
0.427857
0.427669
0.427561
0.427466
0.42725
0.427132
0.427272
0.427373
0.427324
0.427321
0.427288
0.427057
0.427044
0.42716
0.427033
0.426999
0.427203
0.4273
0.427259
0.427263
0.427237
0.427216
0.427071
0.427046
0.42729
0.427412
0.427373
0.427232
0.427298
0.427429
0.427411
0.427392
0.427159
0.42719
0.427252
0.427252
0.427252
0.42705
0.427148
0.427395
0.427379
0.427344
0.427158
0.427219
0.427366
0.427272
0.427288
0.427291
0.427284
0.427127
0.427161
0.427215
0.427032
0.381267
0.394944
0.408147
0.418357
0.424468
0.426879
0.427714
0.427751
0.427606
0.427525
0.427603
0.427725
0.427685
0.427535
0.42754
0.427812
0.427879
0.427837
0.427691
0.427747
0.427832
0.427673
0.42772
0.427898
0.427896
0.427848
0.427926
0.428013
0.427801
0.427818
0.427911
0.427777
0.427723
0.42781
0.427832
0.427797
0.427755
0.427725
0.427715
0.427702
0.427672
0.427636
0.427575
0.427541
0.427506
0.427441
0.427224
0.427001
0.426965
0.426918
0.427048
0.427182
0.427179
0.427178
0.427037
0.427171
0.42734
0.427326
0.42759
0.427707
0.427679
0.427639
0.427513
0.427544
0.427565
0.427477
0.427563
0.427602
0.427581
0.427579
0.427513
0.427363
0.427238
0.427301
0.427344
0.427304
0.427175
0.427208
0.427229
0.42705
0.427036
0.427282
0.427411
0.427395
0.427387
0.427223
0.427241
0.427267
0.427219
0.427075
0.381247
0.394934
0.408253
0.418272
0.424216
0.427265
0.428335
0.428392
0.42834
0.428335
0.428256
0.42834
0.428404
0.428387
0.428389
0.428361
0.428317
0.428091
0.428038
0.428121
0.428126
0.428139
0.428141
0.428051
0.428129
0.428289
0.42827
0.428273
0.428218
0.428172
0.428111
0.428112
0.428069
0.427994
0.427947
0.427887
0.427847
0.427799
0.427752
0.427706
0.427621
0.427447
0.427129
0.427127
0.427172
0.427141
0.427123
0.427
0.426956
0.426838
0.426923
0.427118
0.427098
0.427067
0.426998
0.427141
0.427484
0.427468
0.427267
0.427233
0.427313
0.427204
0.427261
0.427403
0.427339
0.427355
0.427286
0.427257
0.427263
0.42724
0.427061
0.427033
0.427238
0.427339
0.42732
0.427301
0.427115
0.427137
0.427296
0.427241
0.427298
0.427327
0.42728
0.427162
0.427086
0.427122
0.427041
0.42704
0.427146
0.427045
0.381245
0.394922
0.408246
0.418312
0.424201
0.427342
0.428342
0.428381
0.428281
0.428352
0.428392
0.428364
0.428361
0.428164
0.428229
0.428318
0.4281
0.428156
0.42831
0.428138
0.428116
0.428263
0.428322
0.428243
0.428315
0.428374
0.428369
0.428367
0.428294
0.428286
0.428246
0.428236
0.428173
0.428109
0.428053
0.428001
0.427935
0.427803
0.42764
0.427521
0.427452
0.427326
0.427207
0.427158
0.427093
0.427046
0.426906
0.426957
0.427215
0.427239
0.427209
0.427192
0.427068
0.427018
0.427132
0.427299
0.427392
0.427233
0.427327
0.427464
0.427317
0.427405
0.427473
0.42745
0.427441
0.427249
0.427254
0.427272
0.427126
0.427117
0.427373
0.427468
0.427461
0.427461
0.427423
0.427378
0.427275
0.427252
0.427241
0.42724
0.427239
0.427122
0.427202
0.427384
0.42736
0.427324
0.427123
0.427169
0.427251
0.427042
0.381247
0.39493
0.408267
0.418235
0.424279
0.427266
0.42814
0.428318
0.428281
0.428123
0.428186
0.428271
0.428234
0.428163
0.428128
0.428166
0.428036
0.428001
0.428098
0.428154
0.428187
0.428166
0.428057
0.428145
0.428236
0.428131
0.428124
0.42811
0.428143
0.428088
0.42805
0.428027
0.427912
0.427786
0.427719
0.427539
0.427584
0.427681
0.427682
0.427679
0.427605
0.427599
0.427554
0.427513
0.427417
0.427306
0.427227
0.427071
0.426849
0.426952
0.427137
0.427158
0.42712
0.426938
0.426904
0.427114
0.427479
0.427458
0.427296
0.427369
0.427496
0.427339
0.427426
0.427505
0.427476
0.42745
0.427311
0.427346
0.427373
0.427235
0.427295
0.427375
0.427185
0.427266
0.427361
0.427337
0.427332
0.42719
0.427263
0.427361
0.427354
0.427354
0.427294
0.427174
0.427044
0.427098
0.427165
0.427138
0.427126
0.426964
0.381223
0.395002
0.408161
0.418302
0.424371
0.427189
0.42784
0.42789
0.427859
0.427724
0.427803
0.427868
0.427826
0.427687
0.427696
0.427852
0.427737
0.427845
0.427971
0.42794
0.427951
0.427902
0.428075
0.428146
0.428253
0.428329
0.428326
0.428324
0.428261
0.428259
0.428222
0.4282
0.428144
0.428101
0.428026
0.42796
0.427864
0.42778
0.427714
0.427618
0.427489
0.427414
0.427282
0.427149
0.427093
0.426936
0.426963
0.426992
0.426966
0.426965
0.426847
0.427144
0.427659
0.427658
0.427622
0.427677
0.427827
0.427827
0.42782
0.427668
0.427585
0.427602
0.427611
0.427563
0.427603
0.427624
0.427587
0.427483
0.427508
0.427597
0.427581
0.427605
0.4276
0.427569
0.427331
0.427364
0.427417
0.427293
0.427266
0.427231
0.427237
0.42723
0.427207
0.427095
0.427107
0.427148
0.427099
0.427109
0.427095
0.426946
0.381256
0.394901
0.408209
0.418388
0.424441
0.426894
0.4273
0.427197
0.427236
0.427504
0.427546
0.427523
0.42752
0.427355
0.427443
0.427698
0.427657
0.427659
0.427594
0.42769
0.428241
0.4284
0.428293
0.428367
0.428392
0.428359
0.428336
0.428284
0.428221
0.428188
0.428146
0.428107
0.428062
0.427999
0.427916
0.427633
0.427533
0.427553
0.427557
0.427518
0.427433
0.427439
0.427404
0.427327
0.42713
0.42702
0.427113
0.427178
0.427127
0.42713
0.427136
0.427152
0.427101
0.426982
0.426947
0.426845
0.426914
0.426997
0.426932
0.42694
0.426921
0.426928
0.426941
0.426937
0.426797
0.426857
0.427041
0.427015
0.42693
0.426962
0.427213
0.427167
0.427266
0.427361
0.427357
0.427355
0.427159
0.427197
0.427362
0.427285
0.427325
0.427335
0.427299
0.427147
0.427165
0.427194
0.42701
0.427075
0.427206
0.427
0.381248
0.394906
0.408293
0.418201
0.424375
0.427293
0.428018
0.428039
0.428015
0.428008
0.427887
0.427948
0.428132
0.428087
0.428085
0.428074
0.428078
0.428024
0.428018
0.427963
0.428074
0.42834
0.428273
0.428304
0.428406
0.428404
0.428419
0.428405
0.428307
0.428285
0.428189
0.427936
0.427864
0.427803
0.427782
0.427773
0.427681
0.42768
0.427638
0.427577
0.427505
0.42745
0.427388
0.427349
0.427283
0.427152
0.426894
0.426892
0.427024
0.427045
0.427048
0.42687
0.426943
0.427496
0.427656
0.427629
0.427533
0.427641
0.427816
0.427726
0.42775
0.427711
0.427592
0.427678
0.427761
0.427607
0.427571
0.427526
0.427367
0.42738
0.427515
0.427402
0.427472
0.427647
0.427571
0.427649
0.427697
0.427599
0.427668
0.427693
0.42767
0.427652
0.427426
0.427275
0.427307
0.427336
0.427311
0.427319
0.427252
0.42701
0.381245
0.394918
0.408258
0.418281
0.424255
0.427351
0.428145
0.428052
0.428152
0.428306
0.428168
0.428188
0.428202
0.428172
0.42805
0.428131
0.428306
0.428132
0.428099
0.42827
0.428335
0.428339
0.428339
0.428464
0.428582
0.42847
0.428502
0.428505
0.428474
0.428465
0.428437
0.428355
0.428245
0.428164
0.428064
0.427843
0.42775
0.427647
0.427406
0.427283
0.427393
0.427433
0.42739
0.427314
0.427248
0.427195
0.427037
0.427114
0.427236
0.42723
0.427229
0.427014
0.427026
0.42747
0.427585
0.427697
0.427862
0.4278
0.427852
0.427861
0.427814
0.427654
0.427727
0.427829
0.427625
0.427594
0.427631
0.427482
0.427521
0.427667
0.427584
0.427673
0.427721
0.427595
0.427686
0.427737
0.427715
0.427709
0.427511
0.427561
0.427593
0.427486
0.427532
0.427552
0.427498
0.427376
0.42723
0.427276
0.427305
0.427122
0.381265
0.394871
0.408215
0.418472
0.424307
0.42697
0.427502
0.427479
0.427478
0.427378
0.427456
0.427499
0.427383
0.427336
0.427586
0.427869
0.427786
0.427982
0.428367
0.428326
0.428331
0.428323
0.428324
0.428319
0.428324
0.428318
0.428207
0.428254
0.428289
0.428212
0.428237
0.428187
0.428156
0.42814
0.428071
0.428002
0.427915
0.427765
0.427422
0.427277
0.427266
0.427171
0.427255
0.427294
0.427186
0.427177
0.42717
0.427064
0.427036
0.427072
0.427002
0.426942
0.426979
0.427074
0.427033
0.426883
0.426958
0.427136
0.427038
0.427069
0.427075
0.427029
0.427002
0.427225
0.427417
0.42742
0.42742
0.427321
0.427305
0.427178
0.427268
0.427367
0.427338
0.427245
0.427244
0.42731
0.427157
0.427121
0.427203
0.427212
0.42725
0.427258
0.427222
0.427097
0.427188
0.427344
0.427316
0.427313
0.427284
0.427081
0.38123
0.394962
0.408202
0.41828
0.424437
0.427134
0.42789
0.4279
0.427884
0.427835
0.427886
0.427991
0.427968
0.427934
0.42796
0.427904
0.427873
0.427835
0.427937
0.428045
0.428021
0.427942
0.427967
0.428171
0.428063
0.428043
0.428232
0.428329
0.428315
0.428309
0.428223
0.427999
0.427839
0.427817
0.427773
0.427732
0.427721
0.427679
0.427653
0.427591
0.427428
0.427353
0.42729
0.427193
0.426979
0.426865
0.426878
0.426931
0.426895
0.42671
0.426728
0.427041
0.427098
0.427042
0.426887
0.426825
0.426875
0.426758
0.426776
0.426949
0.426914
0.427006
0.427101
0.427006
0.427069
0.427138
0.427126
0.427114
0.426885
0.426876
0.427088
0.427109
0.427026
0.427102
0.427191
0.426968
0.427013
0.427164
0.427167
0.427167
0.427017
0.427131
0.427327
0.427297
0.427299
0.427307
0.42732
0.427289
0.427244
0.42696
0.381246
0.394912
0.408279
0.418227
0.424348
0.427301
0.427972
0.427977
0.427933
0.428032
0.428207
0.428022
0.4281
0.428266
0.428261
0.42825
0.428277
0.428312
0.428225
0.428248
0.428252
0.428161
0.428258
0.42845
0.428423
0.428426
0.428433
0.428442
0.428388
0.428359
0.428287
0.428244
0.42816
0.428084
0.427974
0.427721
0.427613
0.427559
0.427467
0.42742
0.42738
0.427346
0.427332
0.427305
0.427266
0.427212
0.42707
0.426823
0.426871
0.427006
0.426999
0.426999
0.426879
0.426945
0.427037
0.427028
0.427026
0.426846
0.426908
0.427024
0.426986
0.426924
0.426994
0.427213
0.427112
0.427188
0.427221
0.427173
0.427078
0.426993
0.426968
0.42689
0.426872
0.427131
0.427309
0.427262
0.427258
0.427209
0.427262
0.427279
0.427233
0.427155
0.426985
0.427104
0.42725
0.42721
0.427102
0.427061
0.427136
0.427007
0.381245
0.394922
0.408246
0.418314
0.424202
0.427349
0.428337
0.428436
0.428387
0.428194
0.428242
0.428342
0.428156
0.428242
0.428349
0.428141
0.428201
0.428367
0.428199
0.428162
0.428305
0.428353
0.428258
0.428358
0.42853
0.428439
0.428444
0.428436
0.428433
0.428437
0.428423
0.428431
0.428385
0.428318
0.428217
0.427943
0.427788
0.427698
0.427651
0.427605
0.427563
0.427519
0.427462
0.42742
0.427344
0.427137
0.427091
0.427081
0.427113
0.427117
0.426988
0.426902
0.427153
0.427723
0.42763
0.427736
0.427883
0.427854
0.427852
0.427754
0.427742
0.427725
0.427771
0.42778
0.427748
0.427755
0.42769
0.427461
0.427466
0.427615
0.427539
0.427566
0.427518
0.427495
0.427487
0.427345
0.427381
0.427479
0.427464
0.427476
0.427455
0.42743
0.42722
0.427206
0.427413
0.427446
0.427387
0.427386
0.427348
0.42707
0.381245
0.394919
0.408258
0.41828
0.424254
0.427352
0.428147
0.428055
0.428155
0.42831
0.428143
0.428203
0.428277
0.428239
0.428113
0.428143
0.428289
0.428132
0.428098
0.428179
0.42815
0.428293
0.428467
0.428311
0.428408
0.428485
0.428483
0.428482
0.428431
0.428422
0.428373
0.428326
0.428132
0.428021
0.427951
0.427824
0.427761
0.427663
0.427431
0.427286
0.427405
0.427458
0.427414
0.42734
0.42725
0.427204
0.427068
0.427139
0.427226
0.427223
0.427222
0.427018
0.427067
0.42754
0.427625
0.427512
0.42761
0.427762
0.42778
0.427742
0.427487
0.427477
0.427583
0.427426
0.427483
0.427622
0.427546
0.427542
0.42751
0.427475
0.42737
0.427475
0.427598
0.427509
0.427561
0.427576
0.427524
0.42752
0.427484
0.427292
0.427175
0.4272
0.427092
0.42716
0.427317
0.427229
0.427302
0.427333
0.427275
0.42706
0.381248
0.394906
0.408294
0.418199
0.424382
0.42728
0.427978
0.4282
0.428177
0.427999
0.428058
0.428087
0.42791
0.427942
0.428167
0.428227
0.428212
0.428215
0.428176
0.428039
0.428148
0.428309
0.428292
0.428277
0.428194
0.428148
0.428083
0.428029
0.428151
0.42828
0.428263
0.428258
0.428211
0.428194
0.428162
0.428119
0.428073
0.427992
0.427832
0.427561
0.427424
0.427373
0.427299
0.427253
0.427217
0.427141
0.426888
0.426907
0.427132
0.427154
0.427106
0.426921
0.426994
0.427535
0.427623
0.427603
0.427545
0.427614
0.427797
0.427816
0.427777
0.42756
0.427586
0.427695
0.427712
0.427674
0.427626
0.427618
0.427527
0.427365
0.427431
0.427594
0.427613
0.427574
0.427445
0.42737
0.427332
0.427273
0.427396
0.427551
0.427566
0.427527
0.427428
0.427441
0.427396
0.427275
0.427195
0.427238
0.427249
0.427109
0.381259
0.394892
0.408225
0.418381
0.424403
0.426944
0.427437
0.427427
0.427326
0.427352
0.427629
0.427701
0.427675
0.427641
0.427604
0.427479
0.427596
0.427798
0.427627
0.427622
0.427892
0.428256
0.42824
0.428117
0.428072
0.42817
0.428201
0.428073
0.428149
0.428212
0.428196
0.428191
0.428129
0.428116
0.428073
0.428016
0.427788
0.427714
0.427626
0.427355
0.427376
0.427451
0.427313
0.427302
0.427355
0.427366
0.427245
0.427277
0.427303
0.42716
0.427222
0.427281
0.427282
0.427282
0.427172
0.427165
0.427124
0.427071
0.426844
0.426909
0.427195
0.42721
0.427162
0.426974
0.427001
0.427285
0.427346
0.42732
0.427311
0.427246
0.427165
0.42721
0.427193
0.42734
0.427493
0.427307
0.427384
0.427471
0.427295
0.427371
0.427432
0.42741
0.427402
0.427212
0.42725
0.42745
0.427446
0.427424
0.427408
0.427145
0.381274
0.394931
0.408153
0.41837
0.42446
0.426861
0.427696
0.42774
0.427715
0.427715
0.427689
0.427674
0.427516
0.427456
0.427692
0.427879
0.427828
0.427829
0.427832
0.42781
0.427704
0.427912
0.428244
0.428245
0.42823
0.428024
0.428028
0.428108
0.428074
0.428102
0.428064
0.427998
0.4278
0.427795
0.427799
0.427734
0.427578
0.427574
0.427529
0.427427
0.427401
0.427404
0.427404
0.427373
0.427366
0.427301
0.427275
0.4273
0.427306
0.427254
0.427166
0.426925
0.426937
0.427037
0.42702
0.426949
0.426982
0.427156
0.427243
0.427387
0.427372
0.427372
0.42729
0.427346
0.427374
0.427331
0.427201
0.427255
0.427355
0.427154
0.427207
0.42742
0.427417
0.427391
0.427223
0.427175
0.427353
0.427428
0.427379
0.427387
0.42734
0.427132
0.427136
0.427281
0.427285
0.427249
0.42706
0.427109
0.427171
0.426974
0.381267
0.394943
0.408148
0.418359
0.424469
0.426881
0.427711
0.427746
0.427508
0.427557
0.42764
0.427636
0.427637
0.427479
0.427637
0.427904
0.427932
0.427896
0.427709
0.427824
0.428088
0.428051
0.428066
0.428027
0.428117
0.428151
0.428129
0.42812
0.428081
0.428023
0.427901
0.4277
0.427767
0.427874
0.427797
0.427803
0.427802
0.427784
0.427655
0.42759
0.427533
0.427496
0.427433
0.427311
0.42704
0.427004
0.427049
0.427048
0.427039
0.426876
0.427012
0.427167
0.427106
0.427347
0.427605
0.427588
0.427553
0.427344
0.427349
0.427488
0.427444
0.427468
0.427472
0.427469
0.427431
0.427377
0.427208
0.427251
0.427419
0.427418
0.427429
0.42741
0.427392
0.427203
0.427157
0.427284
0.427375
0.427344
0.427293
0.427278
0.427214
0.427199
0.427191
0.427207
0.427164
0.426989
0.426975
0.427155
0.427176
0.427037
0.381245
0.39492
0.408254
0.418288
0.424241
0.42734
0.428235
0.42831
0.428268
0.42812
0.428199
0.428331
0.428184
0.428275
0.428355
0.428313
0.428172
0.428148
0.428242
0.428087
0.428081
0.428208
0.428137
0.428244
0.428347
0.428194
0.428279
0.428319
0.428284
0.428273
0.428219
0.42811
0.427802
0.427714
0.427711
0.427659
0.427644
0.427539
0.427486
0.42745
0.427444
0.427414
0.427307
0.427259
0.427145
0.427234
0.427406
0.427209
0.427256
0.427447
0.427452
0.427458
0.427427
0.427361
0.427181
0.427096
0.427167
0.427168
0.427234
0.427282
0.42731
0.427286
0.427267
0.427263
0.427117
0.427114
0.427254
0.427313
0.427278
0.427205
0.427374
0.427468
0.427461
0.42746
0.427375
0.427301
0.427316
0.427395
0.427386
0.427388
0.427325
0.427105
0.427082
0.427344
0.427393
0.427342
0.42716
0.427195
0.427286
0.427058
0.381246
0.394937
0.408246
0.41829
0.424172
0.427335
0.42823
0.428205
0.428302
0.428334
0.428179
0.428257
0.428346
0.428339
0.428316
0.428328
0.428402
0.428365
0.428391
0.428393
0.428421
0.428425
0.428423
0.42827
0.428338
0.428396
0.428285
0.428263
0.428226
0.428218
0.428229
0.428233
0.42823
0.428167
0.427922
0.427829
0.427769
0.427731
0.42768
0.427535
0.427522
0.427487
0.427433
0.427273
0.427282
0.427327
0.427296
0.427189
0.427182
0.427332
0.427265
0.427321
0.427379
0.427339
0.427198
0.427268
0.42745
0.427425
0.42739
0.427314
0.427302
0.427168
0.427213
0.427442
0.427331
0.427397
0.427577
0.427495
0.427555
0.427573
0.427535
0.427477
0.427399
0.427478
0.427569
0.427547
0.427539
0.427437
0.42734
0.427352
0.427407
0.427378
0.427345
0.427319
0.427098
0.427073
0.427179
0.427194
0.42716
0.42697
0.381226
0.394988
0.408193
0.41825
0.424407
0.427206
0.427765
0.427738
0.427765
0.42775
0.427645
0.427561
0.42759
0.427593
0.42756
0.427655
0.427798
0.427769
0.427663
0.427704
0.427944
0.427905
0.427983
0.428065
0.428026
0.428036
0.428029
0.427976
0.427773
0.42783
0.427931
0.427901
0.42788
0.427696
0.427732
0.427758
0.42767
0.427685
0.427642
0.427602
0.427593
0.427548
0.42739
0.427043
0.427034
0.427101
0.427083
0.42708
0.426938
0.427076
0.427194
0.427193
0.427193
0.427096
0.427083
0.426985
0.426974
0.427314
0.427543
0.42743
0.42748
0.427497
0.42747
0.427445
0.427403
0.427274
0.427356
0.427461
0.427359
0.427378
0.427339
0.427198
0.427263
0.427376
0.427159
0.427201
0.427347
0.427323
0.427294
0.4272
0.427326
0.427394
0.427303
0.427298
0.427294
0.427205
0.427164
0.427234
0.427251
0.427113
0.381245
0.394918
0.408261
0.418267
0.424288
0.427279
0.428236
0.428352
0.428259
0.42825
0.428207
0.42829
0.428334
0.428109
0.428156
0.428264
0.428079
0.42817
0.42833
0.428124
0.428183
0.42833
0.428211
0.428298
0.428351
0.428335
0.428326
0.428176
0.428089
0.428054
0.427962
0.42803
0.428051
0.42799
0.427988
0.427948
0.427891
0.427763
0.427652
0.427577
0.427478
0.427405
0.427268
0.427086
0.427031
0.426997
0.426944
0.426945
0.426907
0.426985
0.427299
0.427368
0.427349
0.427331
0.427148
0.427137
0.427256
0.427256
0.427165
0.427177
0.427271
0.427095
0.427075
0.427178
0.427184
0.427127
0.427156
0.427195
0.427085
0.427138
0.427394
0.427425
0.427417
0.427417
0.427353
0.427269
0.427295
0.427327
0.427282
0.427145
0.427175
0.427331
0.427313
0.427312
0.427313
0.427303
0.427114
0.427155
0.427208
0.427026
0.381245
0.394889
0.40823
0.41843
0.424405
0.426877
0.427289
0.427223
0.427199
0.427402
0.427574
0.427579
0.427579
0.427358
0.427415
0.427785
0.427812
0.427741
0.427783
0.428008
0.428025
0.427963
0.428081
0.42832
0.4282
0.428303
0.428366
0.428356
0.428348
0.428185
0.428163
0.428093
0.428062
0.427976
0.427692
0.427708
0.427744
0.427704
0.427713
0.427662
0.427611
0.427569
0.427531
0.427492
0.427458
0.427263
0.427312
0.4274
0.427401
0.427401
0.427344
0.427326
0.427196
0.427007
0.427084
0.427199
0.427184