/*--------------------------------*- C++ -*----------------------------------*\
  =========                 |
  \\      /  F ield         | OpenFOAM: The Open Source CFD Toolbox
   \\    /   O peration     | Website:  https://openfoam.org
    \\  /    A nd           | Version:  11
     \\/     M anipulation  |
\*---------------------------------------------------------------------------*/
FoamFile
{
    format      ascii;
    class       volScalarField;
    location    "0.066";
    object      nut;
}
// * * * * * * * * * * * * * * * * * * * * * * * * * * * * * * * * * * * * * //

dimensions      [0 2 -1 0 0 0 0];

internalField   nonuniform List<scalar> 
287084
(
0.000835765
0.000866691
0.000897717
0.000921951
0.000936628
0.000943034
0.000944537
0.000944877
0.000944807
0.000944894
0.000945281
0.00094512
0.000945325
0.000945455
0.00094539
0.000945322
0.000945072
0.000944962
0.000944548
0.000944558
0.000945005
0.000944739
0.000944911
0.000945082
0.000945076
0.000945071
0.000944615
0.000944734
0.000945097
0.000945089
0.000945181
0.000945358
0.000945573
0.00094558
0.000945661
0.000945714
0.000945491
0.000945672
0.000945855
0.000945913
0.000945744
0.000945924
0.00094612
0.000946153
0.00094626
0.000946261
0.000946174
0.000946046
0.000946237
0.000946132
0.000946284
0.000946749
0.000946893
0.000946827
0.000946701
0.000946344
0.000946309
0.000946411
0.000946092
0.000946309
0.000946518
0.000946418
0.000946187
0.000946212
0.000946811
0.000946845
0.000946736
0.000946295
0.000946267
0.000946571
0.000946572
0.000946503
0.000946142
0.000946217
0.000946465
0.000946655
0.000946578
0.00094644
0.000946439
0.000946246
0.000946252
0.000946185
0.000946455
0.00094665
0.000946627
0.000946587
0.000946119
0.000945933
0.000945906
0.000945622
0.00118141
0.0012237
0.00126539
0.00129776
0.0013172
0.00132548
0.00132703
0.00132673
0.00132691
0.00132773
0.00132791
0.00132778
0.00132766
0.00132745
0.00132717
0.00132661
0.0013263
0.00132641
0.00132653
0.00132639
0.00132605
0.00132644
0.00132752
0.00132745
0.00132734
0.00132732
0.00132726
0.00132722
0.00132668
0.0013266
0.00132694
0.00132689
0.00132734
0.00132765
0.00132758
0.0013278
0.00132802
0.00132808
0.00132783
0.00132838
0.00132893
0.00132907
0.00132922
0.00132879
0.00132909
0.00132961
0.00132941
0.00132972
0.0013299
0.00132994
0.00132995
0.00132928
0.0013291
0.00132913
0.00132907
0.00132917
0.00132906
0.00132893
0.0013287
0.00132868
0.0013286
0.00132903
0.0013295
0.00132945
0.00132941
0.00132884
0.00132907
0.00132958
0.0013295
0.00132944
0.00132906
0.00132944
0.00132987
0.00132965
0.00132963
0.00132957
0.00132911
0.00132885
0.00132894
0.00132886
0.00132899
0.00132901
0.0013289
0.00132865
0.00132892
0.00132921
0.00132894
0.0013289
0.00132884
0.0013282
0.00118147
0.00122386
0.0012656
0.001298
0.00131705
0.00132576
0.00132774
0.00132787
0.0013279
0.00132764
0.00132754
0.00132736
0.00132746
0.00132742
0.00132724
0.00132691
0.00132702
0.0013274
0.00132731
0.00132719
0.00132649
0.00132648
0.00132673
0.00132706
0.00132743
0.00132738
0.00132745
0.00132732
0.00132723
0.00132737
0.00132756
0.00132764
0.00132788
0.00132793
0.00132805
0.00132806
0.00132795
0.00132808
0.00132799
0.00132847
0.00132891
0.00132858
0.001329
0.00132931
0.00132943
0.00132956
0.00132911
0.00132946
0.00132991
0.00132999
0.00133006
0.00132993
0.00132993
0.00132964
0.00132905
0.00132919
0.00132943
0.00132898
0.00132889
0.00132905
0.00132901
0.00132925
0.00132929
0.00132915
0.00132891
0.00132914
0.00132995
0.00132994
0.00132981
0.00132951
0.00132944
0.00132943
0.00132937
0.00132879
0.00132882
0.00132896
0.00132862
0.00132852
0.00132861
0.00132862
0.0013282
0.00132832
0.00132895
0.00132887
0.00132886
0.00132899
0.00132902
0.00132894
0.00132884
0.00132812
0.0011814
0.00122408
0.00126589
0.00129804
0.00131734
0.00132624
0.00132829
0.00132834
0.00132832
0.00132797
0.00132818
0.0013283
0.00132812
0.00132794
0.00132732
0.00132743
0.00132773
0.00132728
0.0013273
0.00132728
0.00132709
0.0013271
0.00132691
0.00132631
0.00132641
0.00132651
0.0013263
0.00132637
0.00132625
0.00132687
0.00132772
0.00132783
0.00132792
0.00132792
0.00132817
0.00132844
0.00132872
0.00132874
0.00132812
0.00132835
0.0013288
0.00132893
0.00132886
0.00132887
0.00132919
0.00132932
0.00132958
0.00132971
0.00132966
0.00132917
0.00132934
0.00132954
0.00132957
0.0013296
0.00132942
0.0013294
0.00132923
0.00132888
0.00132917
0.00132992
0.00132985
0.00132971
0.0013294
0.00132934
0.00132891
0.00132916
0.00132974
0.00132912
0.00132928
0.00132977
0.00132965
0.00132939
0.00132919
0.00132913
0.00132872
0.00132883
0.00132955
0.00132989
0.00132978
0.00132983
0.00132976
0.00132926
0.00132903
0.00132929
0.00132939
0.00132924
0.00132876
0.00132888
0.00132903
0.00132833
0.00118141
0.0012242
0.00126595
0.00129808
0.0013178
0.00132599
0.00132739
0.00132772
0.00132811
0.00132791
0.00132757
0.00132767
0.00132787
0.00132761
0.00132716
0.00132692
0.00132692
0.00132653
0.00132654
0.0013265
0.0013263
0.00132595
0.00132604
0.00132664
0.00132665
0.00132658
0.00132669
0.00132653
0.00132664
0.00132694
0.00132717
0.00132726
0.00132739
0.00132764
0.00132771
0.00132754
0.00132757
0.00132854
0.00132925
0.00132949
0.00132972
0.00132958
0.00132976
0.00132978
0.00132986
0.00132988
0.00132986
0.00132984
0.00132975
0.00132943
0.00132908
0.00132922
0.00132932
0.00132919
0.00132925
0.00132922
0.00132924
0.00132887
0.00132909
0.0013293
0.00132912
0.00132914
0.00132889
0.00132878
0.00132869
0.00132871
0.00132853
0.00132882
0.00132903
0.00132894
0.00132874
0.00132879
0.00132973
0.00132993
0.00132985
0.00132977
0.00132963
0.00132934
0.00132929
0.00132919
0.00132905
0.00132896
0.00132878
0.00132826
0.00132825
0.00132889
0.00132906
0.00132898
0.00132883
0.00132832
0.0011814
0.00122414
0.00126603
0.00129851
0.0013177
0.00132515
0.00132652
0.00132682
0.00132787
0.00132801
0.00132784
0.00132774
0.00132746
0.00132696
0.00132636
0.00132645
0.00132653
0.0013266
0.00132672
0.00132656
0.00132651
0.00132629
0.0013258
0.00132595
0.00132628
0.00132568
0.00132572
0.00132663
0.001327
0.00132706
0.0013271
0.00132719
0.00132724
0.00132743
0.00132725
0.00132772
0.00132822
0.00132809
0.00132854
0.00132899
0.00132917
0.00132944
0.00132951
0.00132944
0.00132941
0.00132914
0.00132899
0.00132934
0.00132965
0.00132968
0.00132972
0.00132942
0.00132928
0.00132965
0.00132991
0.00132983
0.00132981
0.00132939
0.00132932
0.00132964
0.00132982
0.00132969
0.00132952
0.00132937
0.00132882
0.00132891
0.00132976
0.00132993
0.00132983
0.00132959
0.00132946
0.00132937
0.00132886
0.00132885
0.00132939
0.00132921
0.00132936
0.00132957
0.00132948
0.00132942
0.00132926
0.00132866
0.0013285
0.00132904
0.00132937
0.00132926
0.0013289
0.00132881
0.00132878
0.00132837
0.00118133
0.00122421
0.00126611
0.00129853
0.00131782
0.00132524
0.00132769
0.00132775
0.00132767
0.00132756
0.00132691
0.00132658
0.0013274
0.00132827
0.00132771
0.00132777
0.00132854
0.00132843
0.00132816
0.00132767
0.00132743
0.00132732
0.00132713
0.00132682
0.00132713
0.00132736
0.00132725
0.0013268
0.00132697
0.00132732
0.00132715
0.00132722
0.00132742
0.00132754
0.00132801
0.00132839
0.00132852
0.0013282
0.00132842
0.00132928
0.00132963
0.00132971
0.00132931
0.00132962
0.00133002
0.00133005
0.00132996
0.00132979
0.00132995
0.00133023
0.00133014
0.00132959
0.00132975
0.00132986
0.00132979
0.00132976
0.00132965
0.0013298
0.00132962
0.00132973
0.00132975
0.00132957
0.00132901
0.00132896
0.00132934
0.00132909
0.00132921
0.0013293
0.00132914
0.00132868
0.00132883
0.00132911
0.00132895
0.00132872
0.00132887
0.00132944
0.00132925
0.00132924
0.00132919
0.00132896
0.00132868
0.00132891
0.00132917
0.00132911
0.00132908
0.00132859
0.00132873
0.00132929
0.0013292
0.00132872
0.00118138
0.0012242
0.00126631
0.00129803
0.00131741
0.00132695
0.00132975
0.00133033
0.00133015
0.00133008
0.00132973
0.00132967
0.00132959
0.00132932
0.00132915
0.00132898
0.00132876
0.00132842
0.00132812
0.00132758
0.0013277
0.00132783
0.00132758
0.00132749
0.00132735
0.00132724
0.00132724
0.00132734
0.00132745
0.00132775
0.00132782
0.00132796
0.00132816
0.00132802
0.00132805
0.00132825
0.00132846
0.00132842
0.001329
0.00132979
0.00133007
0.0013303
0.00132982
0.00133006
0.0013305
0.00133049
0.00133062
0.0013306
0.00133046
0.00133026
0.00133028
0.00133007
0.00133043
0.00133088
0.00133063
0.00133058
0.00133027
0.00133049
0.00133057
0.0013305
0.00133046
0.00133024
0.00132958
0.00132947
0.00132945
0.00132918
0.00132889
0.00132909
0.00132952
0.00132918
0.00132932
0.00132959
0.0013295
0.00132943
0.00132886
0.00132896
0.00132983
0.00132982
0.00132971
0.0013297
0.00132949
0.00132872
0.0013286
0.00132934
0.00132951
0.00132935
0.00132879
0.00132889
0.00132915
0.00132839
0.00118137
0.00122418
0.00126618
0.00129854
0.00131761
0.00132605
0.00132785
0.00132784
0.00132773
0.00132732
0.00132693
0.00132736
0.00132847
0.00132835
0.00132797
0.00132776
0.00132754
0.00132735
0.00132772
0.00132807
0.00132773
0.00132766
0.00132756
0.00132703
0.0013272
0.00132744
0.00132741
0.0013275
0.00132756
0.00132774
0.00132777
0.00132804
0.00132809
0.00132768
0.00132785
0.00132822
0.0013285
0.00132891
0.00132909
0.00132891
0.00132939
0.00133013
0.0013297
0.00132996
0.00133056
0.00133071
0.0013308
0.00133091
0.00133102
0.00133099
0.00133096
0.00133038
0.0013302
0.0013301
0.0013299
0.00132928
0.00132934
0.00132992
0.00132993
0.00132985
0.00132916
0.00132926
0.00132989
0.00132987
0.00132971
0.0013295
0.00132933
0.00132872
0.00132865
0.00132963
0.00132989
0.00132979
0.00132972
0.00132936
0.0013292
0.00132874
0.00132878
0.00132983
0.00133005
0.00132997
0.00133002
0.0013299
0.00132967
0.00132896
0.00132899
0.00132932
0.00132898
0.00132899
0.00132894
0.00132836
0.00118143
0.00122391
0.00126651
0.00129849
0.00131757
0.00132587
0.00132738
0.00132734
0.00132711
0.00132717
0.00132795
0.00132783
0.00132754
0.00132678
0.00132675
0.0013272
0.00132679
0.00132673
0.00132671
0.00132642
0.00132576
0.00132583
0.00132607
0.00132575
0.00132571
0.00132572
0.0013256
0.00132562
0.00132637
0.00132691
0.00132699
0.00132732
0.00132759
0.00132736
0.00132784
0.00132846
0.00132871
0.00132917
0.00132938
0.0013296
0.00132988
0.00133014
0.00133025
0.00133025
0.00132969
0.00132925
0.00132944
0.0013298
0.00132972
0.0013294
0.0013292
0.00132951
0.00132965
0.00132949
0.00132893
0.00132903
0.00132928
0.00132883
0.00132863
0.00132926
0.00132975
0.00132966
0.00132957
0.00132917
0.00132898
0.00132848
0.00132835
0.00132879
0.00132881
0.00132897
0.00132903
0.00132887
0.00132842
0.00132856
0.00132893
0.0013285
0.00132832
0.00132889
0.00132928
0.00132924
0.00132921
0.00132862
0.00132878
0.00132957
0.0013296
0.00132948
0.00132923
0.00132917
0.00132898
0.00132834
0.00118142
0.00122412
0.00126622
0.00129842
0.00131785
0.00132618
0.00132766
0.00132762
0.00132737
0.00132742
0.00132759
0.00132726
0.00132693
0.00132699
0.00132714
0.00132643
0.00132645
0.00132706
0.00132654
0.00132672
0.0013269
0.00132674
0.00132662
0.00132592
0.00132611
0.00132637
0.00132576
0.00132608
0.00132649
0.00132664
0.00132694
0.00132694
0.0013276
0.00132829
0.00132862
0.00132895
0.00132924
0.00132951
0.00132975
0.00133009
0.00133027
0.00133025
0.00132976
0.00132967
0.00132963
0.00132915
0.00132937
0.00133011
0.00133023
0.00133027
0.00132997
0.0013302
0.00133028
0.00133012
0.00132962
0.00132967
0.00132973
0.00132941
0.00132914
0.00132937
0.00132976
0.00132962
0.00132943
0.00132899
0.00132927
0.00132946
0.00132928
0.00132894
0.00132863
0.00132892
0.00132924
0.00132911
0.0013288
0.00132904
0.00132918
0.00132903
0.00132898
0.00132854
0.00132872
0.00132938
0.00132906
0.00132889
0.00132925
0.00132959
0.00132944
0.00132893
0.00132902
0.00132919
0.00132903
0.00132852
0.00118134
0.00122426
0.00126613
0.00129849
0.00131777
0.00132613
0.00132843
0.0013285
0.00132831
0.00132815
0.00132755
0.00132748
0.00132813
0.00132855
0.00132841
0.00132777
0.00132757
0.00132732
0.0013267
0.00132659
0.00132693
0.00132661
0.00132643
0.00132626
0.00132606
0.00132648
0.00132691
0.00132698
0.00132715
0.00132737
0.00132772
0.00132792
0.00132831
0.00132864
0.00132904
0.00132929
0.00132956
0.00132967
0.00132957
0.00132953
0.00132953
0.00132956
0.00132962
0.00132927
0.00132959
0.00132995
0.00132998
0.00133002
0.0013298
0.00132996
0.00132982
0.00133013
0.00133071
0.00133064
0.00133062
0.00133039
0.00132983
0.00132958
0.00132947
0.00132925
0.00132904
0.00132896
0.0013288
0.00132907
0.00132998
0.00132991
0.00132973
0.00132926
0.00132897
0.00132948
0.00132978
0.0013296
0.00132926
0.00132895
0.00132925
0.00132944
0.00132925
0.00132884
0.00132852
0.00132898
0.00132925
0.00132912
0.00132877
0.00132893
0.00132933
0.00132931
0.0013293
0.00132897
0.00132887
0.00132823
0.00118139
0.0012242
0.0012664
0.00129795
0.00131762
0.00132702
0.00132923
0.0013292
0.00132882
0.00132891
0.00132925
0.0013284
0.00132822
0.00132841
0.00132774
0.00132773
0.00132803
0.00132778
0.00132755
0.00132673
0.00132677
0.00132714
0.00132655
0.00132629
0.00132672
0.001327
0.00132676
0.00132708
0.00132735
0.0013275
0.0013276
0.00132788
0.00132807
0.00132834
0.00132823
0.00132863
0.00132937
0.00132982
0.00133012
0.00132974
0.00133005
0.00133047
0.00133075
0.00133094
0.00133042
0.00133067
0.00133115
0.00133108
0.00133119
0.00133122
0.00133114
0.00133105
0.00133098
0.00133053
0.00133007
0.00133017
0.00133042
0.00133021
0.00132954
0.0013294
0.00133005
0.0013303
0.00133017
0.00133005
0.00132989
0.00132962
0.00132912
0.00132921
0.00132952
0.00132917
0.00132932
0.00132951
0.00132941
0.00132937
0.00132886
0.00132903
0.00132967
0.00132967
0.0013296
0.00132894
0.00132908
0.00132952
0.00132941
0.00132929
0.00132907
0.00132882
0.00132895
0.00132909
0.00132895
0.00132847
0.00118141
0.00122408
0.00126618
0.00129876
0.00131781
0.00132531
0.00132749
0.00132751
0.00132682
0.00132694
0.00132705
0.00132639
0.00132642
0.00132635
0.00132558
0.00132546
0.00132593
0.00132544
0.00132556
0.00132581
0.00132521
0.00132486
0.00132503
0.00132503
0.00132535
0.00132618
0.00132576
0.00132618
0.00132661
0.00132678
0.00132671
0.00132712
0.00132761
0.00132802
0.00132815
0.00132863
0.00132929
0.00132923
0.00132981
0.00133038
0.00133064
0.00133103
0.00133114
0.00133126
0.00133146
0.00133157
0.00133106
0.00133124
0.0013314
0.00133137
0.00133134
0.00133083
0.00133036
0.00133029
0.0013305
0.00133036
0.00133004
0.00132966
0.00132994
0.00133013
0.00132999
0.00132988
0.00132932
0.00132942
0.00132957
0.00132943
0.00132912
0.00132909
0.00132946
0.00132926
0.00132948
0.00132956
0.00132945
0.00132937
0.00132889
0.00132886
0.00132862
0.00132885
0.00132961
0.00132909
0.00132928
0.0013299
0.00132987
0.00132984
0.00132971
0.00132919
0.00132935
0.00132976
0.00132961
0.00132901
0.00118139
0.00122422
0.00126633
0.0012981
0.00131739
0.0013271
0.00132976
0.00132975
0.00132932
0.00132936
0.00132959
0.00132876
0.00132873
0.00132881
0.00132814
0.00132786
0.00132757
0.00132691
0.00132673
0.0013269
0.00132632
0.00132634
0.00132679
0.00132665
0.00132642
0.00132647
0.00132657
0.0013267
0.0013269
0.00132713
0.00132743
0.00132779
0.00132832
0.00132888
0.00132926
0.00132972
0.00133008
0.00133028
0.00133016
0.00133024
0.00133031
0.00132995
0.00132984
0.00133048
0.00133095
0.00133091
0.00133098
0.00133092
0.00133021
0.00133016
0.0013305
0.00133006
0.0013299
0.00133048
0.00133071
0.00133051
0.00133045
0.00133029
0.00133014
0.00132962
0.00132947
0.00133015
0.00133046
0.00133027
0.00132977
0.00132991
0.00133026
0.00133015
0.00133004
0.00132926
0.00132931
0.00132946
0.00132942
0.00132938
0.00132871
0.00132899
0.00132973
0.00132965
0.00132951
0.00132891
0.00132908
0.00132951
0.0013292
0.00132924
0.00132923
0.00132919
0.00132869
0.00132879
0.00132895
0.00132833
0.00118145
0.00122431
0.00126596
0.00129839
0.00131794
0.00132574
0.00132841
0.00132847
0.00132788
0.00132745
0.00132748
0.00132762
0.00132723
0.00132649
0.00132621
0.00132676
0.00132666
0.00132623
0.00132548
0.00132537
0.00132538
0.00132467
0.00132463
0.00132507
0.00132501
0.00132489
0.00132524
0.00132572
0.00132536
0.00132579
0.00132654
0.00132665
0.00132706
0.00132794
0.00132862
0.00132912
0.00132957
0.00133001
0.00133047
0.00133087
0.00133115
0.00133135
0.00133142
0.00133152
0.00133156
0.00133146
0.00133085
0.00133019
0.00133009
0.00132992
0.00133029
0.00133066
0.00133058
0.00133051
0.00132999
0.00133032
0.00133077
0.00133064
0.00133138
0.00133166
0.00133149
0.00133129
0.00133082
0.00133084
0.00133084
0.0013305
0.0013307
0.00133077
0.00133065
0.00133059
0.00133033
0.00132982
0.00132939
0.00132954
0.00132964
0.00132948
0.00132905
0.00132912
0.00132916
0.00132858
0.00132851
0.00132926
0.00132964
0.00132957
0.00132953
0.00132901
0.00132905
0.00132912
0.00132897
0.00132846
0.00118139
0.00122427
0.00126629
0.00129812
0.00131715
0.00132693
0.00133033
0.00133044
0.00133014
0.00132993
0.00132946
0.00132947
0.0013294
0.00132905
0.00132876
0.00132835
0.00132789
0.00132687
0.00132639
0.00132635
0.00132609
0.00132589
0.00132571
0.00132531
0.0013255
0.00132602
0.00132609
0.00132632
0.00132647
0.00132674
0.00132705
0.00132762
0.00132811
0.00132852
0.00132903
0.00132948
0.00132997
0.00133039
0.00133075
0.00133106
0.00133118
0.00133096
0.00133023
0.00133042
0.00133071
0.00133072
0.00133072
0.00133036
0.00133021
0.00132982
0.00133003
0.00133058
0.00133044
0.00133026
0.00132996
0.00133031
0.00133129
0.00133115
0.00133043
0.00133023
0.0013304
0.00132997
0.00133007
0.00133044
0.00133016
0.00133015
0.00132987
0.00132971
0.00132967
0.00132955
0.00132894
0.0013288
0.0013294
0.00132967
0.00132958
0.00132948
0.00132887
0.00132891
0.00132938
0.00132918
0.00132933
0.0013294
0.00132923
0.00132885
0.0013286
0.0013287
0.00132843
0.00132842
0.00132874
0.00132838
0.00118138
0.00122424
0.00126627
0.00129824
0.0013171
0.00132716
0.00133034
0.00133039
0.00132992
0.00132995
0.00132983
0.00132949
0.00132919
0.00132828
0.00132816
0.00132811
0.0013271
0.00132693
0.00132707
0.00132622
0.00132587
0.00132607
0.00132606
0.00132568
0.00132585
0.00132607
0.00132619
0.00132642
0.00132654
0.00132696
0.00132737
0.00132795
0.00132841
0.00132889
0.00132941
0.00132993
0.00133036
0.00133054
0.00133057
0.00133066
0.00133084
0.00133077
0.00133066
0.00133071
0.00133065
0.00133059
0.00133021
0.00133038
0.00133117
0.0013312
0.00133105
0.00133093
0.00133045
0.00133021
0.00133047
0.00133088
0.00133108
0.00133048
0.00133067
0.00133101
0.00133046
0.00133064
0.00133077
0.00133062
0.00133051
0.00132984
0.00132979
0.00132978
0.00132927
0.00132918
0.00132992
0.00133017
0.00133011
0.00133006
0.0013299
0.00132973
0.00132937
0.00132927
0.00132921
0.00132918
0.00132915
0.00132876
0.00132899
0.00132955
0.00132946
0.00132932
0.00132868
0.00132881
0.00132906
0.00132836
0.00118139
0.00122426
0.00126633
0.001298
0.00131733
0.00132691
0.0013297
0.00133017
0.0013299
0.0013292
0.00132915
0.00132914
0.00132874
0.0013282
0.00132776
0.00132753
0.00132678
0.00132631
0.00132627
0.0013261
0.0013259
0.00132557
0.00132503
0.00132516
0.00132539
0.00132511
0.00132523
0.00132545
0.00132592
0.00132623
0.00132668
0.00132725
0.00132758
0.00132791
0.00132843
0.00132857
0.00132938
0.00133029
0.00133084
0.00133131
0.00133148
0.0013318
0.00133192
0.00133199
0.00133182
0.00133156
0.00133136
0.00133088
0.00133016
0.00133044
0.00133094
0.00133093
0.00133072
0.00133005
0.00132983
0.00133038
0.00133141
0.00133124
0.00133063
0.00133076
0.00133106
0.00133047
0.00133066
0.00133082
0.00133065
0.00133049
0.00132999
0.00133003
0.00133005
0.00132956
0.00132969
0.00132989
0.00132926
0.00132946
0.00132972
0.00132961
0.00132956
0.00132908
0.00132928
0.00132956
0.00132951
0.00132949
0.00132929
0.00132889
0.00132847
0.00132863
0.00132882
0.00132873
0.00132868
0.00132813
0.00118132
0.00122448
0.001266
0.0012982
0.00131762
0.00132666
0.00132875
0.00132882
0.00132856
0.00132793
0.00132792
0.00132785
0.00132741
0.00132666
0.00132634
0.00132646
0.00132573
0.0013257
0.00132573
0.00132529
0.001325
0.00132458
0.0013249
0.00132498
0.00132526
0.00132554
0.00132569
0.00132596
0.00132616
0.00132665
0.00132714
0.00132774
0.00132829
0.00132891
0.00132944
0.00132996
0.00133035
0.00133072
0.00133108
0.00133127
0.00133127
0.00133138
0.00133122
0.00133101
0.00133096
0.00133055
0.00133068
0.00133076
0.00133065
0.00133059
0.00133014
0.00133098
0.00133248
0.00133237
0.00133215
0.0013322
0.00133256
0.00133244
0.00133231
0.00133173
0.00133137
0.00133133
0.00133126
0.00133102
0.00133107
0.00133105
0.00133087
0.00133047
0.00133049
0.0013307
0.0013306
0.00133062
0.00133056
0.00133042
0.00132963
0.0013297
0.00132983
0.00132941
0.0013293
0.00132916
0.00132915
0.00132911
0.00132902
0.00132865
0.00132867
0.00132878
0.00132862
0.00132864
0.00132859
0.00132807
0.00118142
0.00122417
0.00126615
0.00129847
0.00131782
0.00132574
0.00132705
0.00132664
0.0013266
0.00132721
0.00132709
0.00132673
0.00132641
0.00132556
0.00132548
0.0013259
0.00132539
0.00132502
0.00132444
0.00132438
0.00132576
0.00132597
0.00132542
0.0013255
0.00132552
0.00132547
0.00132557
0.0013257
0.00132592
0.00132634
0.00132684
0.00132742
0.00132803
0.00132862
0.00132914
0.00132901
0.00132941
0.00133012
0.00133071
0.00133109
0.00133123
0.00133159
0.00133174
0.00133169
0.00133121
0.00133094
0.00133126
0.00133145
0.00133125
0.0013312
0.00133113
0.00133108
0.00133082
0.00133033
0.0013301
0.00132967
0.00132976
0.0013299
0.00132958
0.0013295
0.00132933
0.00132926
0.0013292
0.0013291
0.00132857
0.00132868
0.00132918
0.00132903
0.0013287
0.00132874
0.00132946
0.00132927
0.00132952
0.00132978
0.00132972
0.00132967
0.00132903
0.00132911
0.0013296
0.00132933
0.00132943
0.00132944
0.0013293
0.00132881
0.00132885
0.00132893
0.00132834
0.00132853
0.00132893
0.00132824
0.0011814
0.00122419
0.0012664
0.00129788
0.00131761
0.00132697
0.00132927
0.00132925
0.001329
0.00132876
0.00132812
0.00132802
0.00132827
0.00132778
0.00132741
0.00132699
0.00132662
0.00132606
0.00132565
0.00132512
0.00132512
0.00132566
0.00132522
0.00132516
0.00132543
0.00132548
0.0013257
0.00132597
0.0013261
0.00132657
0.00132692
0.00132686
0.00132742
0.00132803
0.00132876
0.00132951
0.00132994
0.0013306
0.00133106
0.00133137
0.00133157
0.00133173
0.0013318
0.00133187
0.00133179
0.00133145
0.00133067
0.00133065
0.00133102
0.00133101
0.00133093
0.00133027
0.00133038
0.00133199
0.00133237
0.00133216
0.00133173
0.00133195
0.00133237
0.00133198
0.00133194
0.00133172
0.00133125
0.00133142
0.0013316
0.00133104
0.00133084
0.00133063
0.00133007
0.00133005
0.00133041
0.00133
0.00133017
0.00133067
0.00133039
0.0013306
0.00133071
0.00133037
0.00133056
0.0013306
0.00133051
0.00133043
0.0013297
0.00132921
0.00132929
0.00132937
0.00132928
0.0013293
0.00132908
0.00132827
0.00118139
0.00122423
0.0012663
0.00129812
0.00131723
0.00132714
0.00132966
0.00132928
0.00132941
0.00132967
0.00132897
0.00132873
0.00132845
0.00132801
0.00132726
0.00132712
0.00132727
0.00132632
0.00132583
0.00132598
0.00132584
0.00132555
0.00132532
0.00132556
0.00132587
0.00132558
0.00132587
0.0013262
0.00132655
0.00132708
0.00132765
0.00132814
0.0013286
0.00132916
0.00132967
0.00132977
0.00133022
0.00133057
0.00133041
0.00133054
0.0013313
0.00133177
0.0013319
0.00133185
0.00133176
0.00133167
0.0013312
0.00133142
0.00133175
0.00133165
0.00133155
0.00133077
0.00133069
0.00133195
0.00133218
0.0013324
0.00133279
0.00133247
0.00133251
0.00133242
0.00133216
0.00133156
0.00133169
0.00133191
0.00133119
0.00133101
0.00133104
0.0013305
0.00133056
0.00133095
0.00133063
0.00133085
0.00133095
0.00133052
0.00133075
0.00133087
0.00133077
0.00133072
0.00133007
0.0013302
0.00133027
0.00132991
0.00133004
0.00133008
0.00132989
0.00132949
0.00132903
0.00132916
0.00132924
0.00132862
0.00118145
0.00122408
0.00126616
0.00129872
0.00131739
0.00132595
0.00132766
0.00132749
0.00132731
0.00132677
0.00132674
0.00132658
0.00132588
0.00132538
0.00132578
0.00132627
0.00132561
0.00132581
0.00132661
0.0013261
0.00132576
0.00132543
0.00132521
0.00132503
0.00132499
0.00132504
0.00132489
0.00132536
0.00132592
0.00132625
0.001327
0.0013276
0.00132832
0.0013291
0.00132971
0.0013303
0.00133077
0.00133098
0.00133051
0.00133057
0.00133096
0.00133101
0.00133153
0.00133184
0.00133163
0.00133166
0.00133166
0.00133131
0.00133116
0.0013312
0.00133088
0.00133058
0.00133058
0.00133074
0.00133049
0.00132988
0.00132999
0.00133042
0.00132999
0.00132997
0.00132988
0.00132962
0.00132944
0.00133004
0.00133055
0.00133047
0.00133039
0.00133001
0.00132989
0.00132943
0.00132965
0.0013299
0.00132976
0.00132943
0.00132938
0.00132954
0.00132903
0.00132888
0.00132911
0.00132911
0.0013292
0.0013292
0.00132907
0.00132866
0.00132892
0.0013294
0.0013293
0.00132927
0.00132917
0.00132849
0.00118134
0.00122436
0.00126612
0.00129812
0.0013178
0.00132646
0.00132886
0.00132879
0.00132856
0.00132818
0.00132807
0.00132809
0.00132769
0.00132723
0.00132693
0.00132636
0.00132586
0.00132533
0.00132524
0.00132519
0.00132477
0.00132422
0.00132406
0.00132454
0.00132415
0.00132416
0.00132493
0.00132555
0.00132597
0.00132653
0.00132695
0.00132702
0.00132734
0.00132811
0.0013288
0.00132947
0.00133019
0.00133074
0.00133126
0.00133158
0.00133149
0.0013316
0.00133167
0.00133155
0.00133101
0.00133072
0.00133077
0.00133092
0.00133075
0.00133009
0.00133005
0.00133091
0.00133097
0.00133066
0.00133004
0.00132972
0.00132974
0.00132925
0.00132918
0.0013296
0.00132938
0.00132956
0.00132975
0.00132936
0.00132946
0.00132959
0.00132948
0.00132937
0.00132858
0.00132849
0.00132909
0.0013291
0.00132879
0.00132898
0.00132921
0.00132848
0.00132858
0.00132902
0.001329
0.00132897
0.00132848
0.00132881
0.0013294
0.00132929
0.00132927
0.00132928
0.00132931
0.0013292
0.00132905
0.00132812
0.00118139
0.00122421
0.00126636
0.00129795
0.00131752
0.00132698
0.00132911
0.00132903
0.00132872
0.00132879
0.00132907
0.00132819
0.0013281
0.00132826
0.00132786
0.00132744
0.00132711
0.00132681
0.00132614
0.00132582
0.00132548
0.0013249
0.00132496
0.0013254
0.00132526
0.00132535
0.00132555
0.00132591
0.0013262
0.00132669
0.00132715
0.00132778
0.00132833
0.00132894
0.00132942
0.00132944
0.00132985
0.00133036
0.00133068
0.00133104
0.00133135
0.00133158
0.0013318
0.0013319
0.0013319
0.0013318
0.00133137
0.00133058
0.00133067
0.00133102
0.00133089
0.00133078
0.00133028
0.00133036
0.00133051
0.00133035
0.00133021
0.00132952
0.00132959
0.00132984
0.0013296
0.0013293
0.00132942
0.00133
0.0013296
0.00132975
0.00132977
0.00132955
0.00132918
0.00132885
0.00132872
0.00132842
0.00132831
0.00132907
0.00132958
0.0013294
0.00132935
0.00132916
0.0013293
0.00132932
0.00132915
0.00132888
0.00132833
0.00132868
0.00132912
0.00132898
0.00132863
0.00132849
0.00132872
0.00132826
0.00118138
0.00122424
0.00126626
0.00129822
0.00131707
0.00132713
0.00133025
0.00133046
0.00133013
0.0013293
0.00132918
0.0013292
0.00132828
0.0013282
0.00132815
0.00132711
0.0013269
0.001327
0.00132609
0.00132559
0.00132568
0.00132553
0.001325
0.00132515
0.00132563
0.00132542
0.00132562
0.00132592
0.00132637
0.00132695
0.00132758
0.00132837
0.00132903
0.00132965
0.00133017
0.00133011
0.00133038
0.00133077
0.00133122
0.0013316
0.00133189
0.00133209
0.00133218
0.00133223
0.00133212
0.00133154
0.00133141
0.00133136
0.00133141
0.00133134
0.00133084
0.00133046
0.00133112
0.00133277
0.00133235
0.00133255
0.00133288
0.00133266
0.00133253
0.00133211
0.00133196
0.00133179
0.00133184
0.00133177
0.00133158
0.00133151
0.00133123
0.00133044
0.00133039
0.00133079
0.0013305
0.00133052
0.00133032
0.0013302
0.00133014
0.00132965
0.00132973
0.00133
0.00132992
0.00132993
0.00132984
0.00132974
0.00132906
0.001329
0.00132963
0.00132971
0.00132952
0.0013295
0.00132938
0.00132846
0.00118139
0.00122423
0.00126629
0.00129812
0.00131723
0.00132715
0.00132967
0.00132929
0.00132942
0.00132968
0.00132889
0.00132878
0.00132869
0.00132822
0.00132746
0.00132716
0.00132722
0.00132632
0.00132583
0.0013257
0.00132526
0.00132541
0.00132572
0.00132508
0.00132532
0.00132563
0.00132581
0.00132612
0.00132641
0.00132694
0.00132746
0.00132805
0.00132824
0.00132872
0.00132932
0.00132971
0.00133025
0.00133062
0.00133049
0.00133054
0.00133134
0.00133184
0.00133197
0.00133192
0.00133177
0.00133169
0.00133129
0.00133149
0.00133171
0.00133163
0.00133153
0.00133078
0.00133082
0.00133217
0.00133231
0.00133183
0.001332
0.00133235
0.00133229
0.00133205
0.00133114
0.00133101
0.00133124
0.00133066
0.00133074
0.00133109
0.00133078
0.00133069
0.00133052
0.00133035
0.00132996
0.00133024
0.00133057
0.00133025
0.00133036
0.00133037
0.00133017
0.00133012
0.00132998
0.00132936
0.00132897
0.00132902
0.00132867
0.00132886
0.00132933
0.00132904
0.00132925
0.00132934
0.00132915
0.00132843
0.0011814
0.00122419
0.00126641
0.00129787
0.00131763
0.00132693
0.00132915
0.00132975
0.0013295
0.00132873
0.00132865
0.00132845
0.00132758
0.00132733
0.00132767
0.00132747
0.00132704
0.00132665
0.00132614
0.00132535
0.00132535
0.00132556
0.00132528
0.00132508
0.00132477
0.00132469
0.00132467
0.0013248
0.00132561
0.00132655
0.00132715
0.00132786
0.00132849
0.00132924
0.00132994
0.00133058
0.00133117
0.00133157
0.00133166
0.00133132
0.00133131
0.00133149
0.00133153
0.00133157
0.00133159
0.00133142
0.00133065
0.0013307
0.00133136
0.00133135
0.00133111
0.00133043
0.00133054
0.00133211
0.00133226
0.00133207
0.00133177
0.00133186
0.00133232
0.00133226
0.00133203
0.00133125
0.00133123
0.00133148
0.00133144
0.00133124
0.00133102
0.00133092
0.00133057
0.00133
0.00133015
0.0013306
0.00133061
0.00133044
0.00133
0.00132972
0.00132957
0.00132936
0.00132971
0.00133016
0.00133018
0.00133004
0.00132971
0.00132973
0.00132957
0.00132918
0.00132892
0.00132904
0.00132907
0.00132858
0.00118143
0.00122414
0.0012662
0.00129844
0.00131771
0.00132589
0.00132748
0.00132736
0.00132687
0.00132674
0.00132734
0.00132729
0.00132689
0.00132645
0.00132598
0.00132522
0.0013252
0.00132545
0.00132454
0.00132417
0.00132468
0.00132552
0.00132525
0.00132472
0.00132453
0.00132489
0.00132515
0.00132505
0.00132569
0.00132641
0.00132699
0.00132768
0.00132824
0.00132898
0.00132963
0.0013302
0.0013302
0.00133062
0.00133092
0.00133058
0.00133106
0.00133163
0.00133146
0.00133161
0.00133191
0.00133202
0.00133167
0.00133176
0.0013318
0.00133129
0.0013314
0.00133149
0.00133138
0.00133127
0.0013308
0.00133066
0.00133041
0.00133013
0.00132931
0.0013294
0.00133019
0.00133014
0.00132989
0.00132921
0.00132921
0.00133002
0.00133013
0.00132998
0.00132989
0.00132962
0.00132931
0.0013294