/*--------------------------------*- C++ -*----------------------------------*\
  =========                 |
  \\      /  F ield         | OpenFOAM: The Open Source CFD Toolbox
   \\    /   O peration     | Website:  https://openfoam.org
    \\  /    A nd           | Version:  11
     \\/     M anipulation  |
\*---------------------------------------------------------------------------*/
FoamFile
{
    format      ascii;
    class       volScalarField;
    location    "0.066";
    object      omega;
}
// * * * * * * * * * * * * * * * * * * * * * * * * * * * * * * * * * * * * * //

dimensions      [0 0 -1 0 0 0 0];

internalField   nonuniform List<scalar> 
287084
(
54.9898
55.9829
56.918
57.5959
57.9745
58.1146
58.1324
58.1301
58.121
58.1226
58.1355
58.1298
58.1361
58.1402
58.1393
58.1391
58.1328
58.1318
58.1229
58.1267
58.1433
58.1354
58.1416
58.147
58.1467
58.1466
58.133
58.137
58.1478
58.1473
58.1481
58.1466
58.1449
58.1381
58.1338
58.1304
58.1205
58.121
58.1214
58.118
58.1079
58.109
58.1106
58.1072
58.107
58.1034
58.0952
58.0917
58.099
58.0928
58.0963
58.1082
58.1098
58.11
58.1064
58.0955
58.0964
58.1004
58.0906
58.0977
58.1036
58.0998
58.0935
58.0975
58.1157
58.1165
58.1156
58.1021
58.1034
58.1143
58.1142
58.1119
58.1009
58.1039
58.1093
58.1148
58.1154
58.1138
58.1146
58.1085
58.1098
58.1077
58.116
58.1212
58.1205
58.1199
58.104
58.1004
58.1024
58.0935
54.9936
55.9779
56.9029
57.5855
57.9709
58.1189
58.1388
58.1284
58.1316
58.148
58.1516
58.1491
58.1448
58.1443
58.1405
58.1282
58.1263
58.1325
58.1339
58.1355
58.1319
58.1432
58.1644
58.1645
58.1622
58.1621
58.16
58.1553
58.14
58.1391
58.1467
58.1404
58.1448
58.1462
58.1414
58.142
58.1387
58.1313
58.1231
58.1322
58.1386
58.1363
58.1343
58.1222
58.126
58.134
58.1276
58.131
58.1323
58.131
58.1293
58.1113
58.1089
58.1118
58.1072
58.1068
58.1067
58.1038
58.0996
58.1026
58.1009
58.1103
58.1201
58.1186
58.1183
58.1079
58.1139
58.1251
58.1231
58.1189
58.114
58.1253
58.134
58.1311
58.1314
58.1295
58.116
58.1127
58.1184
58.1165
58.1181
58.1184
58.1165
58.1117
58.119
58.1248
58.1203
58.1205
58.1174
58.1024
54.9939
55.9769
56.9024
57.5845
57.9628
58.1229
58.1528
58.1519
58.1483
58.1439
58.1453
58.1421
58.1445
58.1449
58.1427
58.1382
58.1449
58.1552
58.1547
58.1544
58.1418
58.1436
58.1483
58.1559
58.1667
58.1646
58.162
58.1573
58.1562
58.1568
58.1576
58.1553
58.1537
58.1501
58.1471
58.1416
58.1339
58.1314
58.127
58.1337
58.1379
58.1265
58.1312
58.1334
58.1321
58.1317
58.12
58.1255
58.1328
58.1322
58.1322
58.1276
58.1261
58.1177
58.106
58.1104
58.1151
58.1034
58.1032
58.1106
58.1096
58.1134
58.114
58.1109
58.1063
58.1144
58.1295
58.1313
58.1287
58.1227
58.1242
58.1219
58.1187
58.1086
58.1103
58.1136
58.1054
58.1046
58.1074
58.1076
58.1003
58.104
58.1188
58.117
58.1171
58.1179
58.1186
58.117
58.1129
58.0994
54.9919
55.9793
56.9028
57.5777
57.9614
58.1264
58.1587
58.1579
58.1542
58.149
58.1567
58.1603
58.1574
58.1526
58.1445
58.1518
58.1603
58.1542
58.156
58.1576
58.1553
58.1546
58.1544
58.1432
58.1452
58.147
58.1431
58.1436
58.1381
58.1493
58.1602
58.1602
58.1601
58.155
58.1557
58.1535
58.1516
58.1467
58.1289
58.1305
58.1356
58.1327
58.1236
58.122
58.1287
58.1279
58.1286
58.1287
58.1271
58.1136
58.116
58.119
58.1185
58.1185
58.1135
58.1129
58.1082
58.1017
58.1107
58.124
58.1244
58.1243
58.1148
58.1136
58.1068
58.1137
58.1263
58.1132
58.1181
58.1291
58.1254
58.1176
58.1165
58.1185
58.1091
58.1127
58.1277
58.1354
58.1351
58.1371
58.1343
58.1198
58.1173
58.1247
58.1263
58.1237
58.1128
58.116
58.119
58.1051
54.9917
55.9799
56.9012
57.5758
57.9678
58.1157
58.1328
58.1387
58.1505
58.1462
58.1408
58.1466
58.1528
58.1499
58.1397
58.1394
58.1456
58.1386
58.1404
58.1416
58.1408
58.135
58.1391
58.1505
58.1519
58.1501
58.1488
58.1461
58.1466
58.1472
58.1483
58.1485
58.1464
58.1456
58.142
58.1301
58.1277
58.1462
58.154
58.153
58.1525
58.1436
58.1423
58.1384
58.1357
58.1329
58.1295
58.1268
58.1225
58.1136
58.1078
58.1108
58.1121
58.1108
58.1122
58.1088
58.1065
58.1011
58.1074
58.1116
58.1074
58.1064
58.104
58.1045
58.1008
58.0989
58.0981
58.1069
58.1111
58.1098
58.1061
58.1098
58.1304
58.134
58.1322
58.1283
58.1277
58.1213
58.119
58.117
58.1142
58.113
58.1101
58.1009
58.1029
58.1162
58.1167
58.1177
58.1145
58.1042
54.9914
55.9782
56.9026
57.5828
57.9607
58.0928
58.1108
58.1179
58.1439
58.1481
58.1461
58.1436
58.1415
58.1323
58.1243
58.1311
58.1332
58.1381
58.1455
58.1446
58.1428
58.1417
58.1348
58.1395
58.1466
58.1333
58.1349
58.1528
58.1565
58.1536
58.1477
58.147
58.1428
58.1401
58.1326
58.1377
58.142
58.134
58.1371
58.1408
58.1388
58.137
58.1336
58.1277
58.1234
58.1141
58.1112
58.1181
58.1224
58.1209
58.1205
58.1119
58.1093
58.1188
58.1232
58.1208
58.1183
58.1118
58.1126
58.1189
58.1229
58.1206
58.1147
58.1138
58.104
58.1083
58.1262
58.13
58.1277
58.1233
58.1236
58.1203
58.1093
58.1117
58.1252
58.1209
58.1233
58.1279
58.1262
58.1225
58.1207
58.1067
58.1056
58.1201
58.1261
58.124
58.116
58.1162
58.1154
58.1064
54.9895
55.9792
56.9031
57.582
57.9619
58.0949
58.1365
58.1376
58.1371
58.1368
58.1235
58.1206
58.1464
58.1661
58.1569
58.1627
58.1809
58.1816
58.1784
58.1708
58.1708
58.168
58.1625
58.1597
58.1687
58.1726
58.1691
58.1569
58.1586
58.1627
58.1524
58.1471
58.1458
58.1451
58.15
58.1511
58.1473
58.1336
58.1343
58.1464
58.1471
58.1446
58.1304
58.1334
58.1383
58.135
58.1274
58.1242
58.127
58.1316
58.1292
58.1156
58.1189
58.1206
58.1194
58.1161
58.1161
58.1231
58.1184
58.1199
58.1205
58.1182
58.1059
58.1071
58.1173
58.1115
58.1134
58.1158
58.1136
58.1038
58.1081
58.1145
58.1103
58.1063
58.112
58.1247
58.122
58.1228
58.12
58.1122
58.1088
58.1156
58.1209
58.1195
58.1166
58.1084
58.1135
58.1257
58.1232
58.1133
54.9909
55.9792
56.9064
57.5691
57.955
58.1353
58.1818
58.1941
58.1935
58.1949
58.1893
58.1899
58.1912
58.1909
58.1909
58.1882
58.1839
58.18
58.18
58.1729
58.1782
58.1827
58.1783
58.178
58.1781
58.1724
58.1716
58.1744
58.1712
58.1708
58.1702
58.1703
58.1673
58.1537
58.1465
58.144
58.1418
58.1366
58.1445
58.1548
58.1542
58.1537
58.139
58.1409
58.1471
58.1417
58.1415
58.1404
58.1334
58.1291
58.1316
58.1258
58.1329
58.1417
58.1349
58.1347
58.13
58.1346
58.1365
58.1351
58.1351
58.131
58.1171
58.1172
58.1177
58.1098
58.105
58.1118
58.1214
58.1157
58.1188
58.1248
58.1228
58.1197
58.11
58.1152
58.1328
58.1329
58.1307
58.1281
58.1246
58.1098
58.1101
58.1268
58.1288
58.1256
58.1132
58.1162
58.1218
58.1062
54.9905
55.9784
56.904
57.5802
57.9566
58.1113
58.1395
58.1388
58.1363
58.1282
58.1251
58.1419
58.1659
58.1681
58.1628
58.1628
58.1647
58.1644
58.1763
58.1858
58.1828
58.1847
58.1839
58.1725
58.1766
58.181
58.1787
58.1784
58.1789
58.1787
58.1708
58.168
58.1627
58.1457
58.1451
58.1486
58.1441
58.1429
58.1404
58.1321
58.1378
58.148
58.1334
58.136
58.1458
58.144
58.1433
58.1441
58.1448
58.1427
58.1403
58.1257
58.121
58.1188
58.1154
58.1045
58.1084
58.1226
58.1209
58.1184
58.1057
58.1105
58.1225
58.1238
58.1211
58.1147
58.1136
58.1025
58.1036
58.1265
58.1305
58.1281
58.1251
58.1174
58.1152
58.108
58.1118
58.135
58.1385
58.1369
58.1355
58.1329
58.1287
58.1156
58.1183
58.1259
58.119
58.1206
58.1177
58.1053
54.9916
55.9726
56.9116
57.5782
57.9549
58.106
58.1283
58.1277
58.1244
58.13
58.1486
58.1495
58.1487
58.135
58.1399
58.1543
58.1496
58.1511
58.1515
58.1515
58.1417
58.146
58.153
58.1491
58.1494
58.1491
58.1417
58.1405
58.1557
58.1609
58.1588
58.16
58.1564
58.1426
58.1457
58.1506
58.1472
58.1467
58.1465
58.1468
58.144
58.1438
58.1404
58.1336
58.1166
58.1076
58.1108
58.1166
58.1134
58.1024
58.0997
58.1077
58.1101
58.1068
58.0948
58.0981
58.104
58.0931
58.0908
58.1085
58.1184
58.1163
58.1127
58.1045
58.1021
58.0945
58.0948
58.1043
58.1043
58.1092
58.111
58.1081
58.099
58.1035
58.1117
58.1011
58.0988
58.1145
58.1218
58.1206
58.1203
58.1087
58.1138
58.1293
58.1304
58.1303
58.122
58.1185
58.115
58.1042
54.9917
55.9767
56.9044
57.5775
57.9616
58.1126
58.1342
58.1334
58.1302
58.1343
58.1412
58.1368
58.1341
58.1415
58.1486
58.1382
58.1446
58.1626
58.155
58.163
58.1698
58.1689
58.1687
58.156
58.1611
58.1657
58.151
58.1557
58.1598
58.1575
58.1545
58.15
58.1584
58.164
58.1614
58.1568
58.1544
58.154
58.151
58.1491
58.1484
58.1414
58.123
58.1169
58.1134
58.1023
58.1069
58.1219
58.1212
58.121
58.1159
58.1201
58.1215
58.1184
58.1081
58.1101
58.1121
58.1048
58.1006
58.1084
58.1174
58.1146
58.1082
58.1025
58.1116
58.1158
58.1123
58.1029
58.0995
58.1086
58.1155
58.1135
58.1072
58.1138
58.1168
58.1134
58.113
58.1054
58.1108
58.1258
58.1158
58.1134
58.1235
58.1304
58.1273
58.1159
58.1185
58.1221
58.1189
58.1085
54.9898
55.9798
56.9024
57.579
57.9593
58.1127
58.1497
58.1519
58.1497
58.1491
58.1416
58.1454
58.1638
58.1744
58.1781
58.1703
58.1722
58.1696
58.1603
58.1641
58.1758
58.1697
58.1661
58.1659
58.1648
58.174
58.1808
58.1785
58.1779
58.1781
58.1789
58.1763
58.1764
58.1713
58.1673
58.1629
58.159
58.1518
58.1407
58.1322
58.1255
58.1202
58.1169
58.1073
58.1118
58.1166
58.1143
58.1108
58.1077
58.1142
58.1101
58.1168
58.1292
58.1273
58.1248
58.1212
58.1094
58.1076
58.1092
58.1024
58.0995
58.1017
58.0991
58.1066
58.1244
58.1247
58.1235
58.1104
58.1066
58.1213
58.127
58.1235
58.1136
58.1103
58.1192
58.1231
58.1193
58.1076
58.1037
58.1166
58.1214
58.1191
58.1117
58.1163
58.1249
58.1242
58.1238
58.1158
58.1136
58.1024
54.991
55.9788
56.9076
57.5662
57.9583
58.1339
58.1699
58.1695
58.1632
58.1685
58.1796
58.1653
58.1671
58.1772
58.1665
58.172
58.1833
58.1823
58.1822
58.1701
58.176
58.1873
58.1749
58.1726
58.1849
58.1891
58.1833
58.1859
58.1865
58.1833
58.175
58.1717
58.1659
58.1622
58.1516
58.1521
58.1563
58.1564
58.1558
58.1376
58.1383
58.1414
58.1404
58.1398
58.1256
58.1292
58.1374
58.136
58.1382
58.1355
58.134
58.1348
58.1336
58.1203
58.1129
58.1178
58.1241
58.1207
58.107
58.1074
58.1231
58.128
58.1264
58.1222
58.1217
58.1159
58.107
58.1117
58.1192
58.1136
58.117
58.1214
58.1196
58.1194
58.1103
58.1155
58.1304
58.1288
58.1263
58.1139
58.1184
58.1252
58.1253
58.1253
58.1176
58.113
58.1169
58.1199
58.1169
58.1073
54.9912
55.9758
56.9041
57.5849
57.9587
58.0933
58.129
58.1302
58.1187
58.1253
58.1315
58.1224
58.1279
58.131
58.1205
58.1247
58.1418
58.1357
58.1438
58.1534
58.1429
58.1404
58.1487
58.1496
58.1594
58.1768
58.1655
58.171
58.1743
58.171
58.1608
58.1609
58.1612
58.1572
58.149
58.15
58.1536
58.1413
58.1442
58.1478
58.1454
58.1448
58.1445
58.1453
58.1439
58.1431
58.1312
58.1339
58.1365
58.1356
58.135
58.1226
58.1147
58.1164
58.1225
58.1193
58.1105
58.106
58.1158
58.1203
58.1179
58.1143
58.1059
58.1109
58.1149
58.113
58.1075
58.1095
58.1195
58.1157
58.1203
58.1222
58.12
58.1178
58.1072
58.1063
58.1047
58.1125
58.1292
58.1181
58.1235
58.1375
58.137
58.1339
58.1288
58.1207
58.1262
58.1351
58.1319
58.1193
54.991
55.9792
56.9062
57.5694
57.9532
58.1372
58.1801
58.1802
58.1753
58.1797
58.1888
58.1755
58.1806
58.1875
58.1795
58.1806
58.1801
58.1707
58.1734
58.183
58.1749
58.1797
58.1897
58.1909
58.1889
58.19
58.1872
58.1829
58.1819
58.1794
58.1792
58.1793
58.1771
58.1767
58.172
58.1677
58.1635
58.1563
58.1435
58.1367
58.1306
58.1154
58.1109
58.1229
58.1286
58.1271
58.1273
58.1228
58.1063
58.1076
58.1164
58.1036
58.1024
58.1189
58.1237
58.12
58.1196
58.1175
58.1168
58.1056
58.1055
58.1251
58.1312
58.1285
58.1185
58.124
58.1323
58.1302
58.1278
58.1131
58.1158
58.1197
58.1194
58.1193
58.1063
58.1142
58.1274
58.128
58.1279
58.1138
58.1184
58.1279
58.1224
58.1245
58.1219
58.1178
58.1099
58.1135
58.1169
58.1051
54.9927
55.9805
56.8983
57.5773
57.9632
58.1046
58.1509
58.1525
58.1406
58.1364
58.1435
58.1511
58.1483
58.1376
58.14
58.158
58.1609
58.158
58.1477
58.152
58.1572
58.147
58.1507
58.163
58.1624
58.1589
58.1639
58.1693
58.1552
58.1573
58.164
58.1519
58.1497
58.1571
58.1581
58.1559
58.1506
58.1484
58.148
58.1476
58.1467
58.1438
58.1388
58.1381
58.1355
58.1303
58.1139
58.1018
58.1026
58.0993
58.1078
58.1158
58.1149
58.1148
58.1065
58.1164
58.1239
58.1248
58.1457
58.1516
58.1486
58.1427
58.137
58.1401
58.1412
58.1369
58.1419
58.1438
58.1419
58.1417
58.1368
58.1235
58.1179
58.1235
58.1259
58.1236
58.1145
58.1167
58.1178
58.1065
58.1068
58.124
58.1307
58.1288
58.1273
58.1178
58.1188
58.1204
58.1171
58.107
54.9911
55.9804
56.9054
57.5697
57.9481
58.1352
58.1948
58.1965
58.1922
58.1919
58.1887
58.1938
58.1974
58.1957
58.1955
58.193
58.1882
58.1716
58.1709
58.1802
58.1796
58.1804
58.1789
58.1721
58.178
58.1883
58.1862
58.1835
58.1796
58.1792
58.175
58.1736
58.1705
58.1654
58.1626
58.1588
58.1564
58.1533
58.1503
58.1472
58.1411
58.1282
58.1099
58.1116
58.1148
58.112
58.108
58.0994
58.0981
58.0923
58.0992
58.1118
58.1097
58.1046
58.1022
58.1152
58.1346
58.1347
58.1189
58.1183
58.1273
58.1181
58.1219
58.1314
58.1251
58.1241
58.1219
58.122
58.1227
58.1194
58.1064
58.1067
58.1206
58.1258
58.1237
58.1201
58.1096
58.1131
58.1244
58.1207
58.1231
58.1246
58.122
58.1106
58.1074
58.1132
58.1066
58.107
58.1152
58.1067
54.9909
55.9795
56.9052
57.5724
57.9472
58.1406
58.1948
58.1957
58.1905
58.1944
58.1965
58.1942
58.194
58.1814
58.1858
58.1912
58.1765
58.1808
58.1909
58.176
58.1759
58.1876
58.1901
58.1863
58.1902
58.1936
58.193
58.1928
58.1873
58.1868
58.1841
58.1823
58.1779
58.1733
58.1699
58.1666
58.162
58.1527
58.1418
58.1343
58.1297
58.121
58.1133
58.1103
58.1059
58.1047
58.0972
58.1021
58.1177
58.1194
58.1168
58.1134
58.1044
58.1038
58.1136
58.1216
58.13
58.1198
58.1265
58.135
58.1256
58.1314
58.1352
58.133
58.1319
58.12
58.1205
58.1217
58.1122
58.1127
58.1303
58.1347
58.1337
58.1337
58.1305
58.1245
58.1204
58.1217
58.1211
58.1211
58.1208
58.1118
58.1173
58.1262
58.1266
58.1265
58.1112
58.1143
58.1195
58.1055
54.9911
55.9802
56.9062
57.5674
57.9526
58.134
58.181
58.192
58.1896
58.1783
58.1832
58.1884
58.1859
58.178
58.1777
58.1833
58.1699
58.1685
58.1763
58.1769
58.1787
58.179
58.1732
58.1787
58.1841
58.1783
58.1787
58.1753
58.1749
58.1741
58.1742
58.1716
58.1602
58.1508
58.147
58.1377
58.1425
58.149
58.1489
58.1486
58.1431
58.1422
58.1388
58.1346
58.1278
58.1203
58.1147
58.1033
58.0915
58.1014
58.1104
58.1108
58.1109
58.0967
58.096
58.1141
58.1372
58.1358
58.1237
58.1291
58.1372
58.127
58.1328
58.1374
58.1346
58.1296
58.123
58.1264
58.128
58.1197
58.1233
58.1282
58.1158
58.1215
58.1273
58.1249
58.1213
58.1144
58.1212
58.1272
58.1262
58.1261
58.1216
58.1103
58.1043
58.1094
58.1135
58.111
58.1084
58.0995
54.9896
55.9849
56.8988
57.573
57.9583
58.1269
58.1587
58.159
58.1595
58.1519
58.1569
58.1606
58.1576
58.1479
58.1502
58.1615
58.1523
58.1594
58.1669
58.1664
58.1673
58.1632
58.1746
58.1766
58.1844
58.1904
58.1898
58.1897
58.185
58.1844
58.1818
58.1811
58.1772
58.1728
58.1679
58.1636
58.1573
58.1519
58.1476
58.1409
58.1323
58.1274
58.1181
58.1094
58.1066
58.0984
58.1009
58.1026
58.1004
58.0987
58.0928
58.1178
58.1505
58.1503
58.1475
58.151
58.1613
58.1611
58.16
58.1464
58.1424
58.1441
58.1445
58.1433
58.1442
58.1453
58.1428
58.1356
58.1381
58.1441
58.1421
58.1419
58.1413
58.1408
58.1252
58.1276
58.1309
58.1209
58.1202
58.1202
58.1186
58.1151
58.1127
58.108
58.1096
58.1123
58.1109
58.1122
58.1092
58.0983
54.9917
55.9778
56.9031
57.5791
57.9613
58.1037
58.123
58.1159
58.1193
58.1364
58.1384
58.1364
58.1361
58.1259
58.133
58.1499
58.1474
58.1478
58.1425
58.1502
58.188
58.1957
58.1894
58.1933
58.1944
58.1916
58.1872
58.1836
58.1796
58.1777
58.1751
58.1727
58.1717
58.1672
58.1609
58.1407
58.1377
58.14
58.1404
58.14
58.1313
58.1302
58.1279
58.1226
58.1082
58.1039
58.112
58.1156
58.1139
58.1146
58.1124
58.111
58.1074
58.0985
58.0973
58.0928
58.0978
58.1028
58.1
58.1012
58.0996
58.1003
58.0993
58.0967
58.0885
58.094
58.1062
58.1027
58.097
58.1017
58.1197
58.1158
58.1217
58.1273
58.1265
58.1262
58.1137
58.1173
58.1289
58.1235
58.1247
58.125
58.1244
58.1131
58.1139
58.1158
58.1036
58.1083
58.1167
58.1027
54.9911
55.9786
56.908
57.5654
57.9595
58.1349
58.1711
58.1721
58.1719
58.1704
58.1625
58.1675
58.1799
58.1774
58.1775
58.1738
58.1737
58.1721
58.1721
58.1677
58.1752
58.1926
58.1882
58.19
58.1972
58.1969
58.1953
58.1948
58.1875
58.1859
58.1792
58.1603
58.1561
58.1555
58.1571
58.1568
58.1474
58.146
58.1431
58.1387
58.1339
58.1303
58.1263
58.1237
58.119
58.109
58.0946
58.0972
58.1068
58.1063
58.1062
58.095
58.1022
58.1408
58.1486
58.1469
58.14
58.1485
58.1595
58.1518
58.1512
58.1512
58.1447
58.1501
58.155
58.1425
58.1383
58.1377
58.1284
58.1303
58.1402
58.1314
58.1363
58.1478
58.1432
58.1476
58.1502
58.1449
58.1487
58.1497
58.1477
58.1459
58.1281
58.1201
58.1234
58.1252
58.1231
58.1207
58.1169
58.1022
54.9909
55.9793
56.9059
57.5705
57.9511
58.14
58.1828
58.1747
58.1814
58.1911
58.1824
58.1825
58.1825
58.1827
58.174
58.1794
58.1905
58.1757
58.1748
58.1883
58.1909
58.1907
58.1906
58.2008
58.2077
58.2013
58.2021
58.2022
58.2015
58.1985
58.1948
58.1892
58.182
58.1768
58.1701
58.1551
58.1495
58.1429
58.126
58.1213
58.1308
58.1327
58.1298
58.1218
58.1167
58.1137
58.1055
58.1122
58.1199
58.1198
58.1197
58.1046
58.1074
58.1389
58.1419
58.1502
58.1627
58.1597
58.1617
58.1618
58.159
58.1477
58.1535
58.1599
58.1433
58.143
58.1486
58.1367
58.1398
58.15
58.1442
58.1494
58.1518
58.1445
58.1502
58.1529
58.1509
58.1504
58.1378
58.1412
58.1428
58.1371
58.139
58.1399
58.1365
58.1246
58.117
58.1214
58.123
58.1112
54.9923
55.9756
56.904
57.5842
57.952
58.1105
58.1375
58.1333
58.1328
58.1281
58.133
58.1351
58.1256
58.1233
58.1441
58.1611
58.1559
58.1707
58.1951
58.1926
58.1931
58.1922
58.1923
58.1918
58.1922
58.1896
58.1818
58.1855
58.1877
58.1819
58.1815
58.1812
58.1821
58.1787
58.1713
58.1666
58.1606
58.1498
58.1263
58.1208
58.1235
58.1164
58.1214
58.1234
58.1176
58.1178
58.1168
58.106
58.1054
58.1109
58.1023
58.0987
58.1023
58.1084
58.1057
58.095
58.1013
58.1128
58.1071
58.1077
58.1078
58.104
58.1024
58.1208
58.1319
58.1312
58.1309
58.1231
58.1224
58.1155
58.1218
58.1278
58.1257
58.1193
58.1204
58.1253
58.1112
58.1101
58.1193
58.1192
58.1195
58.1197
58.119
58.1098
58.1164
58.1263
58.126
58.126
58.1217
58.1072
54.9899
55.9822
56.9017
57.5715
57.9627
58.123
58.1652
58.165
58.1608
58.1578
58.1626
58.1663
58.1669
58.1644
58.1632
58.1619
58.1623
58.1594
58.1652
58.1714
58.1697
58.164
58.1672
58.182
58.1704
58.1701
58.1854
58.1905
58.1891
58.1887
58.1826
58.1644
58.1541
58.1536
58.1533
58.1507
58.1502
58.1473
58.1439
58.1411
58.1293
58.1236
58.1194
58.1122
58.0974
58.0933
58.0951
58.0957
58.0958
58.0841
58.0868
58.1079
58.1099
58.1061
58.0922
58.0905
58.0972
58.0876
58.0895
58.1023
58.099
58.1042
58.1099
58.1047
58.108
58.1122
58.1108
58.1093
58.0946
58.0959
58.1096
58.1097
58.1058
58.1102
58.1156
58.1005
58.1045
58.1147
58.1135
58.1133
58.1044
58.1129
58.1253
58.1248
58.1251
58.1232
58.1225
58.12
58.1174
58.0988
54.991
55.979
56.9072
57.5671
57.9575
58.1353
58.1704
58.1702
58.1668
58.1733
58.1844
58.1719
58.1776
58.1881
58.1868
58.1859
58.188
58.1899
58.1855
58.1878
58.1855
58.1788
58.1867
58.1989
58.1987
58.1993
58.1971
58.196
58.1921
58.1909
58.1859
58.1818
58.1763
58.1714
58.1639
58.1466
58.1402
58.1369
58.1308
58.1306
58.1279
58.1236
58.1228
58.1227
58.122
58.1165
58.1036
58.0898
58.0953
58.1041
58.1029
58.1023
58.0958
58.1001
58.1058
58.1046
58.1043
58.093
58.0974
58.1048
58.101
58.097
58.1038
58.1183
58.1119
58.1161
58.1176
58.1142
58.1046
58.1013
58.1024
58.0938
58.0932
58.1143
58.1241
58.1223
58.1224
58.1185
58.1206
58.1212
58.118
58.1093
58.1001
58.1108
58.1198
58.117
58.1065
58.1059
58.1146
58.1038
54.9909
55.9795
56.9052
57.5726
57.9473
58.141
58.1947
58.1997
58.1965
58.1828
58.1869
58.1933
58.181
58.187
58.1934
58.1793
58.184
58.1948
58.1801
58.1788
58.1901
58.1918
58.1869
58.1935
58.2044
58.1993
58.2006
58.2
58.2001
58.1991
58.1955
58.1951
58.1949
58.1898
58.18
58.1613
58.1518
58.1465
58.1437
58.1409
58.1382
58.1353
58.1315
58.1307
58.1258
58.1093
58.1091
58.1112
58.1112
58.1111
58.1006
58.0959
58.1183
58.1551
58.1479
58.155
58.1641
58.1611
58.1608
58.1559
58.1561
58.1548
58.1559
58.1561
58.1535
58.1512
58.147
58.1335
58.136
58.1469
58.1386
58.1381
58.1375
58.1385
58.1376
58.1268
58.1294
58.136
58.1338
58.1333
58.1316
58.1312
58.1177
58.1184
58.132
58.1327
58.1306
58.131
58.1263
58.1062
54.9909
55.9793
56.9059
57.5704
57.9511
58.1401
58.183
58.1749
58.1816
58.1914
58.1804
58.1842
58.1886
58.1859
58.177
58.1803
58.1904
58.1758
58.1748
58.1836
58.1804
58.1896
58.2002
58.1899
58.1965
58.2009
58.2005
58.2004
58.1966
58.1963
58.1927
58.1886
58.1745
58.167
58.1625
58.1542
58.1504
58.1441
58.1277
58.1214
58.1318
58.1345
58.1309
58.123
58.1169
58.1144
58.1077
58.1137
58.119
58.1184
58.1182
58.105
58.1104
58.1431
58.1462
58.1396
58.1462
58.1531
58.1534
58.1534
58.1364
58.1373
58.1454
58.1329
58.1369
58.1461
58.1391
58.1387
58.1361
58.1313
58.1271
58.1363
58.1438
58.1389
58.1412
58.1417
58.1402
58.1403
58.1357
58.1187
58.1134
58.1186
58.11
58.1145
58.1248
58.1195
58.1235
58.1249
58.1212
58.1059
54.9911
55.9786
56.9081
57.5652
57.9599
58.1337
58.1692
58.1811
58.1814
58.1705
58.1741
58.1755
58.1642
58.1674
58.1811
58.1847
58.183
58.1801
58.1801
58.1721
58.1796
58.1894
58.1872
58.183
58.1771
58.1764
58.1715
58.1692
58.1798
58.1878
58.1861
58.186
58.1827
58.1795
58.1776
58.1749
58.1719
58.1661
58.1545
58.1362
58.128
58.125
58.1201
58.1172
58.1147
58.1099
58.0948
58.0986
58.1122
58.1137
58.1111
58.0978
58.1057
58.1428
58.146
58.1447
58.1407
58.1463
58.1556
58.1558
58.1558
58.1417
58.1437
58.1484
58.1484
58.1485
58.1449
58.144
58.1364
58.1265
58.1331
58.141
58.1413
58.1413
58.1311
58.1271
58.1272
58.1229
58.131
58.1378
58.1379
58.138
58.1305
58.1299
58.1283
58.1186
58.115
58.1187
58.1191
58.1107
54.9919
55.9772
56.9042
57.5783
57.9589
58.108
58.1328
58.1315
58.124
58.1273
58.1454
58.1492
58.1469
58.1417
58.1411
58.1343
58.1429
58.1556
58.1438
58.1446
58.1642
58.1868
58.1862
58.1738
58.1721
58.1801
58.1814
58.1742
58.179
58.1828
58.1816
58.1812
58.1768
58.1764
58.1733
58.1686
58.1522
58.1473
58.1421
58.126
58.1289
58.134
58.1258
58.1259
58.1275
58.1283
58.1214
58.1225
58.124
58.1153
58.1191
58.1225
58.1222
58.1222
58.1136
58.1129
58.1096
58.1037
58.091
58.0984
58.115
58.117
58.1145
58.1009
58.1047
58.1232
58.1263
58.126
58.1231
58.1161
58.1131
58.1196
58.1179
58.1275
58.1366
58.1241
58.1295
58.1347
58.1234
58.1284
58.1319
58.1299
58.1288
58.1172
58.1209
58.1322
58.1325
58.1307
58.1292
58.1119
54.9932
55.9795
56.8989
57.5781
57.9625
58.1032
58.1497
58.1517
58.1496
58.1494
58.1474
58.1463
58.134
58.1315
58.1509
58.1615
58.1591
58.1595
58.1587
58.1535
58.147
58.165
58.1858
58.1848
58.1822
58.1692
58.1709
58.1768
58.1727
58.1721
58.1712
58.167
58.1548
58.1552
58.1558
58.1516
58.1384
58.1383
58.1381
58.1305
58.1299
58.1305
58.1305
58.1281
58.125
58.1233
58.1243
58.1238
58.1234
58.1192
58.1102
58.0966
58.0995
58.1063
58.1047
58.0997
58.1031
58.1129
58.118
58.1304
58.1304
58.1287
58.123
58.1268
58.1282
58.1252
58.1162
58.1207
58.1271
58.1137
58.1184
58.1332
58.133
58.1293
58.1146
58.1138
58.1282
58.1317
58.1276
58.1273
58.1256
58.1114
58.1132
58.1211
58.1215
58.1212
58.107
58.1101
58.1139
58.101
54.9927
55.9805
56.8984
57.5774
57.9633
58.1046
58.1506
58.1521
58.1362
58.1399
58.1451
58.1444
58.1444
58.1347
58.1468
58.1609
58.1612
58.1613
58.1495
58.1584
58.1752
58.1736
58.175
58.1717
58.1765
58.1781
58.1762
58.1728
58.1701
58.1675
58.1582
58.1471
58.1541
58.1611
58.1576
58.1592
58.1565
58.1521
58.1434
58.1394
58.1358
58.1334
58.1289
58.1196
58.1044
58.1048
58.1086
58.1062
58.1034
58.0943
58.1056
58.115
58.1121
58.13
58.1427
58.1431
58.1429
58.127
58.1286
58.1389
58.1352
58.1375
58.1349
58.1316
58.1314
58.128
58.1166
58.121
58.1326
58.131
58.1307
58.1291
58.1287
58.114
58.1126
58.1231
58.1282
58.1261
58.1199
58.1179
58.1164
58.1181
58.1151
58.1132
58.1125
58.102
58.1026
58.1139
58.1141
58.1058
54.9909
55.9794
56.9057
57.5709
57.95
58.1398
58.1872
58.191
58.1884
58.1781
58.1845
58.1927
58.1834
58.1893
58.1938
58.1909
58.1808
58.1811
58.1884
58.1756
58.1761
58.1857
58.1792
58.1858
58.1919
58.1823
58.1878
58.1899
58.1871
58.1837
58.1798
58.173
58.1512
58.1492
58.1524
58.1459
58.1426
58.1354
58.1351
58.1354
58.1327
58.1275
58.1202
58.1198
58.114
58.1205
58.1315
58.1181
58.1224
58.1357
58.1348
58.1323
58.1289
58.1254
58.1121
58.1089
58.1174
58.1168
58.1195
58.1201
58.1217
58.122
58.1205
58.12
58.1115
58.1123
58.1206
58.1211
58.1211
58.1183
58.1298
58.1347
58.1337
58.1335
58.1266
58.1224
58.1246
58.13
58.1284
58.128
58.1239
58.1089
58.1099
58.1277
58.1292
58.1258
58.1129
58.1161
58.122
58.1065
54.9911
55.9806
56.905
57.5708
57.9453
58.1398
58.1892
58.1859
58.1911
58.1926
58.1831
58.1882
58.1936
58.1924
58.1907
58.1926
58.1976
58.1962
58.1983
58.1981
58.2
58.1973
58.195
58.1865
58.1918
58.1952
58.1862
58.1859
58.1859
58.1858
58.187
58.1866
58.1844
58.1785
58.1604
58.1546
58.151
58.1487
58.1479
58.1372
58.1351
58.1345
58.1314
58.1215
58.1228
58.1259
58.1224
58.1153
58.1172
58.1285
58.123
58.1256
58.1291
58.1268
58.1168
58.1225
58.1315
58.1316
58.1316
58.1233
58.1221
58.1148
58.1192
58.1354
58.1267
58.1314
58.1435
58.1382
58.141
58.1416
58.1393
58.1323
58.1291
58.136
58.1416
58.1394
58.1364
58.1288
58.1249
58.1265
58.1272
58.1277
58.1252
58.1217
58.1085
58.109
58.1147
58.1153
58.1152
58.1008
54.9898
55.9841
56.9008
57.5694
57.9611
58.1275
58.1557
58.1538
58.1562
58.153
58.1424
58.139
58.1442
58.1412
58.1388
58.1469
58.1557
58.1536
58.146
58.1504
58.1674
58.164
58.1679
58.1727
58.172
58.1731
58.1703
58.1629
58.1516
58.1576
58.1642
58.1616
58.1575
58.1478
58.1516
58.1533
58.1467
58.1457
58.1457
58.1457
58.1441
58.1378
58.1242
58.1039
58.1058
58.1106
58.1082
58.1047
58.0978
58.1097
58.1166
58.1159
58.1158
58.1083
58.1082
58.1032
58.1033
58.1283
58.1409
58.1337
58.136
58.1366
58.1343
58.1298
58.1295
58.1224
58.128
58.1344
58.126
58.1253
58.1251
58.1171
58.1213
58.1284
58.1137
58.1174
58.1274
58.1238
58.1188
58.1153
58.1258
58.1293
58.1246
58.125
58.1245
58.1147
58.113
58.1187
58.1192
58.1111
54.9909
55.9793
56.9061
57.5697
57.9531
58.1354
58.1877
58.1941
58.189
58.1892
58.1861
58.1904
58.1926
58.1775
58.1809
58.1877
58.1755
58.1821
58.1921
58.178
58.1824
58.1919
58.1843
58.1895
58.1922
58.1907
58.1897
58.178
58.1708
58.1696
58.1662
58.1716
58.1726
58.168
58.1677
58.1663
58.1602
58.15
58.1429
58.1379
58.1313
58.1263
58.1165
58.1045
58.1015
58.0992
58.0985
58.1015
58.0985
58.1042
58.124
58.1283
58.1263
58.1228
58.1126
58.1139
58.1229
58.122
58.115
58.1165
58.1233
58.11
58.11
58.1181
58.1147
58.1107
58.1134
58.1158
58.1097
58.114
58.1296
58.1314
58.1307
58.1306
58.1253
58.1201
58.1227
58.1246
58.1215
58.112
58.1156
58.1266
58.1259
58.126
58.1234
58.1214
58.1101
58.1132
58.1165
58.1047
54.9907
55.9771
56.9048
57.5817
57.9585
58.1027
58.1223
58.1153
58.1143
58.1311
58.1411
58.1406
58.1404
58.126
58.1318
58.1558
58.1563
58.1533
58.1563
58.1696
58.1704
58.168
58.176
58.1913
58.1835
58.1901
58.1935
58.1925
58.1917
58.1792
58.1776
58.1728
58.1699
58.1646
58.1475
58.15
58.1525
58.1495
58.1478
58.1442
58.1408
58.1381
58.1377
58.1348
58.1319
58.1205
58.1248
58.1305
58.1302
58.1301
58.1256
58.1239
58.1133
58.1022
58.1096
58.1168
58.115
58.1131
58.1048
58.1096
58.1158
58.1132
58.1042
58.1087
58.116
58.1162
58.1162
58.1031
58.1052
58.1149
58.1083
58.1136
58.1184
58.1183
58.1182
58.1055
58.11
58.1159
58.1059
58.102
58.1148
58.1265
58.1224
58.125
58.1259
58.125
58.1268
58.1248
58.1196
58.102
54.991
55.979
56.9071
57.5669
57.9578
58.1335
58.1695
58.1821
58.1888
58.1888
58.1885
58.173
58.1765
58.183
58.1712
58.1763
58.1817
58.1744
58.1784
58.1796
58.1677
58.1701
58.1784
58.1744
58.1778
58.1818
58.1787
58.1791
58.1786
58.1682
58.1598
58.1649
58.1681
58.1648
58.159
58.1523
58.1487
58.1386
58.1428
58.1494
58.149
58.1487
58.1395
58.1374
58.1334
58.1235
58.1205
58.1336
58.1393
58.1373
58.1349
58.1308
58.1285
58.1263
58.1234
58.1212
58.1173
58.1046
58.1056
58.1134
58.1122
58.1101
58.1109
58.1082
58.1068
58.1013
58.1071
58.1216
58.1162
58.1109
58.1185
58.1271
58.1269
58.1267
58.1126
58.1173
58.1276
58.1278
58.1276
58.1137
58.1186
58.1281
58.1226
58.1246
58.122
58.118
58.1101
58.1137
58.117
58.1052
54.9898
55.9798
56.9024
57.579
57.9593
58.1127
58.1496
58.1518
58.1496
58.149
58.1417
58.145
58.1617
58.1667
58.1846
58.1851
58.1816
58.1747
58.1694
58.1709
58.1626
58.1635
58.1717
58.1708
58.1771
58.1796
58.1708
58.176
58.1796
58.1789
58.1787
58.1744
58.1736
58.1687
58.1673
58.1627
58.1537
58.1403
58.136
58.1247
58.1278
58.1386
58.1334
58.1262
58.1303
58.1368
58.1368
58.1368
58.1328
58.1198
58.1176
58.12
58.1147
58.1135
58.1111
58.1107
58.1076
58.107
58.1041
58.0957
58.1002
58.1122
58.111
58.1041
58.1069
58.1124
58.1102
58.107
58.1032
58.1158
58.1244
58.1215
58.1109
58.1082
58.119
58.1216
58.1182
58.1111
58.1048
58.1192
58.1298
58.1291
58.1289
58.1226
58.1201
58.1106
58.1069
58.1188
58.1222
58.1125
54.9914
55.9753
56.9054
57.5824
57.9607
58.0974
58.1125
58.107
58.1198
58.1513
58.1431
58.1494
58.163
58.1508
58.1566
58.1642
58.1512
58.157
58.1657
58.1517
58.1564
58.1664
58.1547
58.1601
58.1639
58.1618
58.1592
58.1532
58.1609
58.1654
58.1614
58.1609
58.1607
58.16
58.1593
58.1582
58.1562
58.1541
58.1522
58.1485
58.146
58.143
58.137
58.1236
58.1081
58.1094
58.111
58.1017
58.107
58.1135
58.1043
58.1012
58.1143
58.1231
58.1228
58.1227
58.1091
58.1115
58.1218
58.1238
58.1212
58.1188
58.1177
58.1046
58.1067
58.1093
58.099
58.1005
58.1194
58.1271
58.126
58.1269
58.1234
58.114
58.1042
58.1055
58.1043
58.1096
58.1329
58.1378
58.1364
58.1369
58.1343
58.1297
58.1243
58.1217
58.1169
58.1153
58.1119
58.1011
54.9909
55.9798
56.9025
57.578
57.9601
58.1007
58.1396
58.1399
58.1375
58.1285
58.1283
58.1454
58.1513
58.1496
58.1457
58.1453
58.1408
58.149
58.1633
58.1648
58.1622
58.1486
58.1541
58.1676
58.1641
58.1645
58.1653
58.1645
58.1496
58.1517
58.1572
58.155
58.1528
58.1455
58.1436
58.1388
58.1361
58.1351
58.127
58.1276
58.1277
58.1241
58.1133
58.1139
58.1148
58.1018
58.1041
58.1288
58.132
58.1261
58.1278
58.1313
58.1289
58.1244
58.1093
58.107
58.1135
58.1142
58.1128
58.1051
58.1145
58.1224
58.1218
58.1215
58.1108
58.1091
58.1301
58.1386
58.1387
58.1379
58.1385
58.1393
58.136
58.1357
58.1321
58.1255
58.115
58.1251
58.1352
58.1325
58.122
58.121
58.1287
58.1293
58.1269
58.119
58.1144
58.1119
58.1115
58.1044
54.9923
55.9769
56.9047
57.5778
57.9547
58.1148
58.1459
58.1463
58.1461
58.1404
58.132
58.1409
58.1611
58.1713
58.1765
58.1626
58.167
58.1781
58.1657
58.1713
58.1839
58.1855
58.1828
58.1678
58.1703
58.1739
58.1634
58.1672
58.1684
58.163
58.1651