/*--------------------------------*- C++ -*----------------------------------*\
  =========                 |
  \\      /  F ield         | OpenFOAM: The Open Source CFD Toolbox
   \\    /   O peration     | Website:  https://openfoam.org
    \\  /    A nd           | Version:  11
     \\/     M anipulation  |
\*---------------------------------------------------------------------------*/
FoamFile
{
    format      ascii;
    class       volScalarField;
    location    "0.066";
    object      p;
}
// * * * * * * * * * * * * * * * * * * * * * * * * * * * * * * * * * * * * * //

dimensions      [0 2 -2 0 0 0 0];

internalField   nonuniform List<scalar> 
287084
(
1.70097
1.41446
1.35549
1.28748
1.21783
1.16549
1.11584
1.0699
1.02585
0.982334
0.938869
0.895801
0.852971
0.809315
0.764472
0.719128
0.673613
0.627875
0.582087
0.536515
0.491327
0.446919
0.403359
0.361232
0.319975
0.280702
0.246678
0.216539
0.189087
0.165546
0.143135
0.123954
0.106708
0.0914159
0.0805984
0.0729089
0.0679746
0.0654947
0.0651494
0.0666355
0.0696638
0.0739545
0.0792187
0.0852234
0.0917269
0.098529
0.105456
0.112248
0.118939
0.124879
0.130424
0.137373
0.144013
0.148296
0.152577
0.155522
0.157391
0.159521
0.161433
0.162503
0.162743
0.162485
0.161597
0.160282
0.158362
0.155921
0.152995
0.149561
0.145789
0.141211
0.136807
0.132562
0.127172
0.121092
0.115107
0.108831
0.102455
0.0954114
0.0880998
0.0808978
0.07327
0.0655026
0.0573757
0.0489649
0.0402105
0.0299674
0.0186315
0.0107441
0.00570877
0.00269654
1.56505
1.37339
1.32483
1.26697
1.20624
1.15756
1.11042
1.06595
1.02278
0.979836
0.936899
0.894119
0.850791
0.806661
0.761887
0.716578
0.670921
0.624994
0.578997
0.533185
0.487787
0.443168
0.399444
0.357327
0.316215
0.277507
0.244096
0.214495
0.18565
0.159116
0.135979
0.116075
0.099564
0.0860038
0.0757815
0.0685296
0.0639492
0.0617893
0.0617455
0.0635242
0.06683
0.0713874
0.0769059
0.0831498
0.0898782
0.0968915
0.104011
0.111071
0.117952
0.124547
0.130789
0.136893
0.142563
0.147047
0.15106
0.154777
0.15726
0.159371
0.161136
0.162116
0.162431
0.162206
0.161453
0.160116
0.158246
0.155851
0.152887
0.14956
0.145726
0.141561
0.136874
0.131946
0.12688
0.121117
0.114923
0.108637
0.102415
0.0955117
0.0882
0.0809458
0.0732896
0.0654976
0.0576311
0.049027
0.0395257
0.0306688
0.0224462
0.015145
0.00856258
0.00313914
1.53882
1.36695
1.31707
1.26127
1.20281
1.15451
1.10767
1.06322
1.01981
0.976757
0.933626
0.890442
0.846894
0.802541
0.757478
0.711819
0.665727
0.619332
0.57285
0.526533
0.480641
0.435553
0.391517
0.349005
0.308337
0.270056
0.23478
0.202602
0.173682
0.147804
0.125265
0.105986
0.0898113
0.0767271
0.0668873
0.0600637
0.0559888
0.0543562
0.0548632
0.0571959
0.0610457
0.0661243
0.0721522
0.0788738
0.0860508
0.093485
0.100982
0.108399
0.115585
0.122417
0.128828
0.13495
0.14074
0.145728
0.149997
0.153651
0.156481
0.158845
0.160557
0.161596
0.162028
0.161866
0.161091
0.15981
0.15792
0.155552
0.152723
0.149386
0.145585
0.141382
0.136767
0.131889
0.126621
0.120831
0.11484
0.10866
0.102147
0.0953158
0.0882774
0.0809821
0.0735414
0.0659323
0.0580065
0.0497819
0.0409965
0.0320349
0.0236307
0.0156977
0.00771065
0.00249935
1.49142
1.33253
1.28834
1.23787
1.18515
1.14057
1.09669
1.05428
1.01224
0.970062
0.927512
0.884438
0.840667
0.796009
0.750612
0.704499
0.657845
0.610818
0.563637
0.516582
0.469956
0.424107
0.379398
0.336272
0.295056
0.256218
0.22058
0.18812
0.158644
0.13245
0.109666
0.0904052
0.0746619
0.0623274
0.0532517
0.0472477
0.0439981
0.0432208
0.0445818
0.0477672
0.052446
0.0583203
0.0651014
0.0725365
0.0803789
0.0884274
0.0964979
0.104435
0.112119
0.119441
0.126349
0.132786
0.138673
0.143774
0.148186
0.152086
0.155241
0.157704
0.159545
0.16075
0.161282
0.161207
0.160571
0.159327
0.157558
0.155265
0.152394
0.149113
0.145378
0.141212
0.136663
0.131736
0.126469
0.120789
0.114814
0.108556
0.102048
0.0952423
0.08813
0.0808545
0.0734031
0.065715
0.0579043
0.0498263
0.0414679
0.0330591
0.0246232
0.0162924
0.00815032
0.00289208
1.46849
1.31795
1.2763
1.22783
1.1772
1.13346
1.09016
1.04794
1.00589
0.963581
0.920815
0.877363
0.833093
0.787913
0.741878
0.695033
0.647569
0.59962
0.551487
0.503422
0.455762
0.408916
0.363225
0.319197
0.277204
0.237716
0.201193
0.167923
0.13809
0.111794
0.0892501
0.0704481
0.0553117
0.0437319
0.0355376
0.030487
0.0282821
0.0285882
0.0310531
0.0353356
0.0410954
0.0480146
0.0557953
0.0641676
0.0728876
0.0817466
0.0905619
0.0991859
0.107477
0.115351
0.122715
0.129512
0.135718
0.141224
0.146023
0.150177
0.15356
0.156254
0.158275
0.15962
0.16032
0.160386
0.159821
0.158688
0.156978
0.154729
0.152008
0.148776
0.145083
0.140974
0.136445
0.131531
0.126288
0.120652
0.114694
0.108473
0.101981
0.0952002
0.0881902
0.0809459
0.0735133
0.0659169
0.0580909
0.0500908
0.0419106
0.033572
0.0252117
0.0166678
0.00813597
0.00273594
1.44426
1.29548
1.25555
1.20939
1.16128
1.1196
1.07808
1.0372
0.996033
0.95427
0.911702
0.868122
0.823502
0.777751
0.731006
0.6833
0.634821
0.585788
0.536445
0.487126
0.438191
0.390037
0.343126
0.297895
0.25485
0.214413
0.177111
0.143206
0.112975
0.0865923
0.0641884
0.0457893
0.0313208
0.020661
0.0135554
0.00973584
0.00884033
0.0105186
0.0143764
0.0200469
0.0271593
0.0353785
0.0443928
0.0539255
0.063724
0.0735799
0.0833085
0.0927574
0.101804
0.110347
0.118317
0.12565
0.132313
0.138232
0.143397
0.147846
0.15155
0.154517
0.156765
0.15831
0.15917
0.15937
0.158953
0.157926
0.156328
0.154191
0.151508
0.148327
0.144694
0.140614
0.136129
0.131252
0.126023
0.120437
0.114528
0.108332
0.101851
0.0951139
0.08813
0.0809319
0.073552
0.0659732
0.0582231
0.0503266
0.042226
0.0339747
0.025597
0.0169075
0.00826353
0.00286096
1.42627
1.28005
1.24185
1.19704
1.15032
1.10947
1.06853
1.02791
0.98681
0.9449
0.902014
0.857959
0.812674
0.766121
0.718406
0.669579
0.619881
0.569462
0.51868
0.467835
0.417335
0.367645
0.319194
0.272562
0.228196
0.186642
0.148368
0.113746
0.0831166
0.0566378
0.0344958
0.0166669
0.00306349
-0.00649808
-0.0123038
-0.014677
-0.0140186
-0.0107204
-0.00521632
0.00208465
0.0107916
0.0205441
0.0310149
0.0419159
0.052984
0.0640055
0.0748028
0.0852261
0.0951451
0.104475
0.11314
0.12109
0.128289
0.134698
0.140309
0.145145
0.149181
0.152439
0.154945
0.156722
0.157791
0.158176
0.157909
0.157022
0.155539
0.153484
0.150909
0.147826
0.144266
0.140256
0.135826
0.130991
0.125792
0.120242
0.114367
0.108193
0.101745
0.095034
0.0880852
0.0809176
0.0735575
0.0660208
0.0583044
0.0504442
0.0424008
0.0341909
0.0257874
0.0170336
0.0083317
0.00288105
1.40959
1.26373
1.22616
1.18242
1.13671
1.0968
1.05664
1.01659
0.975787
0.933916
0.890805
0.846261
0.800288
0.752822
0.704014
0.653922
0.602772
0.550808
0.498326
0.445721
0.393417
0.341894
0.291699
0.243369
0.197507
0.154629
0.115292
0.0799086
0.0488374
0.0223151
0.000467809
-0.0167006
-0.0293218
-0.0376112
-0.0419002
-0.042582
-0.0401058
-0.0349244
-0.0275145
-0.0183229
-0.00777791
0.00373582
0.0158744
0.0283333
0.0408461
0.0531988
0.0652081
0.076726
0.0876373
0.0978573
0.107317
0.115968
0.123791
0.130752
0.136855
0.142113
0.146533
0.150135
0.152939
0.15497
0.156261
0.15684
0.156744
0.156008
0.154654
0.152722
0.150245
0.147243
0.143755
0.139807
0.135432
0.130652
0.125499
0.119993
0.114159
0.108026
0.10161
0.0949342
0.0880179
0.0808846
0.0735555
0.0660504
0.0583725
0.0505484
0.0425369
0.0343366
0.025912
0.0170983
0.00839149
0.00293975
1.39501
1.24985
1.21302
1.16992
1.1249
1.08545
1.04561
1.00564
0.964756
0.922575
0.878963
0.833728
0.786835
0.738275
0.688161
0.636581
0.583797
0.53001
0.475617
0.42099
0.366608
0.313036
0.260806
0.210605
0.163004
0.118654
0.0781289
0.041888
0.0103873
-0.0161861
-0.0376302
-0.0540144
-0.0654694
-0.0722813
-0.0748433
-0.0735996
-0.0690747
-0.0617713
-0.0522212
-0.0409135
-0.0283092
-0.0148302
-0.000838484
0.0133569
0.0274732
0.0412944
0.0546441
0.067375
0.0793777
0.0905732
0.100902
0.110331
0.118837
0.12641
0.133055
0.138791
0.143629
0.147594
0.150719
0.153033
0.154575
0.155374
0.15547
0.154894
0.153687
0.151879
0.149511
0.146607
0.14321
0.139339
0.135026
0.130302
0.125194
0.119734
0.113939
0.107842
0.101465
0.0948198
0.0879346
0.0808304
0.0735302
0.0660524
0.0583957
0.0505949
0.0426284
0.0344746
0.0261173
0.0172944
0.00839331
0.0028782
1.38161
1.23662
1.20009
1.15739
1.11274
1.07361
1.03396
0.994053
0.953011
0.91047
0.866275
0.820218
0.772311
0.722502
0.670942
0.617714
0.563075
0.507304
0.450755
0.393897
0.337228
0.281343
0.226901
0.174567
0.125078
0.0790825
0.0372544
0.00013251
-0.0318541
-0.0584063
-0.0793988
-0.0948671
-0.10501
-0.110166
-0.11078
-0.107395
-0.10058
-0.0909225
-0.0790019
-0.065362
-0.0505067
-0.0348767
-0.0188601
-0.00278554
0.0130715
0.0284908
0.043288
0.0573299
0.0705107
0.0827629
0.0940378
0.104298
0.113543
0.121767
0.128989
0.13523
0.140514
0.144873
0.148348
0.150967
0.15277
0.1538
0.154095
0.153701
0.152648
0.150975
0.148726
0.145926
0.142613
0.138819
0.134576
0.129914
0.124863
0.119453
0.113702
0.107642
0.101299
0.0946904
0.0878372
0.0807649
0.0734909
0.0660402
0.0584102
0.0506356
0.0426616
0.0345037
0.0260875
0.017225
0.00843629
0.00294379
1.36935
1.2245
1.1882
1.14576
1.10131
1.06227
1.02262
0.982505
0.941142
0.898065
0.853108
0.806112
0.757018
0.705827
0.652639
0.597587
0.540938
0.48295
0.424069
0.364748
0.305559
0.247179
0.190269
0.135667
0.0840857
0.0363348
-0.00688268
-0.0449736
-0.0774026
-0.103928
-0.124342
-0.138772
-0.147428
-0.150734
-0.149215
-0.143472
-0.134168
-0.121953
-0.107477
-0.0913285
-0.0740481
-0.0561151
-0.0379347
-0.0198443
-0.00213274
0.0149766
0.0313151
0.0467411
0.0611657
0.0745284
0.0867916
0.0979377
0.107961
0.116877
0.124709
0.13149
0.137244
0.142016
0.145853
0.14879
0.150873
0.152145
0.152657
0.152447
0.151557
0.150025
0.147898
0.145206
0.141991
0.138283
0.134111
0.129513
0.124517
0.119156
0.11345
0.107432
0.101124
0.0945459
0.0877274
0.0806813
0.0734315
0.0660077
0.0583955
0.0506336
0.0426849
0.0345506
0.02614
0.0172675
0.00845662
0.00296062
1.35798
1.21317
1.17696
1.13461
1.09018
1.05112
1.01131
0.970917
0.929112
0.885367
0.839572
0.791492
0.741116
0.688392
0.633463
0.576443
0.517605
0.457272
0.395858
0.33392
0.272034
0.210949
0.151448
0.0943619
0.0405897
-0.00904916
-0.053734
-0.0927964
-0.125699
-0.152101
-0.171883
-0.185144
-0.192177
-0.193473
-0.189628
-0.18135
-0.169367
-0.154422
-0.137216
-0.118401
-0.0985628
-0.0781997
-0.0577458
-0.0375534
-0.0179073
0.00097054
0.0189042
0.0357752
0.0514992
0.0660203
0.0793134
0.091372
0.102205
0.111833
0.120293
0.127621
0.133862
0.139064
0.143274
0.14654
0.148913
0.150439
0.15117
0.151156
0.150431
0.149045
0.147042
0.144464
0.141348
0.137723
0.133627
0.129092
0.124156
0.118847
0.113188
0.10721
0.100935
0.0943936
0.0876068
0.08059
0.0733667
0.0659568
0.0583663
0.0506249
0.0426837
0.0345611
0.0261972
0.0173138
0.00843483
0.00292689
1.34744
1.20263
1.16642
1.1241
1.07962
1.04039
1.0003
0.959486
0.917114
0.87264
0.825863
0.776627
0.72484
0.670499
0.613696
0.554591
0.49345
0.430599
0.366535
0.301788
0.237068
0.173144
0.110868
0.0512259
-0.00487977
-0.0564644
-0.10266
-0.14272
-0.176027
-0.202285
-0.221307
-0.23329
-0.238552
-0.237679
-0.231363
-0.220393
-0.205598
-0.18779
-0.167744
-0.146161
-0.123664
-0.100793
-0.0779935
-0.0556331
-0.033997
-0.0133093
0.00626589
0.0246109
0.0416543
0.0573549
0.0716968
0.0846851
0.0963394
0.106698
0.115802
0.123697
0.130434
0.136068
0.140658
0.144259
0.146925
0.148704
0.149657
0.149832
0.149281
0.148045
0.146176
0.143711
0.140689
0.137152
0.133134
0.128672
0.123793
0.118532
0.11292
0.106984
0.10075
0.0942376
0.0874746
0.0804854
0.073287
0.065903
0.0583261
0.0505962
0.0426665
0.0345314
0.0261168
0.017267
0.00849036
0.00300256
1.33764
1.19281
1.15656
1.11418
1.06951
1.03006
0.989617
0.948289
0.905306
0.859986
0.812185
0.76168
0.708427
0.652365
0.593627
0.532339
0.468793
0.403356
0.336508
0.268896
0.201198
0.134339
0.0692198
0.006891
-0.0515832
-0.105175
-0.152893
-0.193923
-0.227629
-0.253642
-0.271844
-0.282432
-0.28582
-0.282672
-0.273767
-0.260004
-0.242292
-0.221535
-0.198564
-0.174146
-0.148946
-0.123523
-0.0983479
-0.0737913
-0.0501488
-0.0276359
-0.00641001
0.0134242
0.0317984
0.0486854
0.0640799
0.078001
0.0904853
0.101573
0.111316
0.119771
0.127004
0.133077
0.138046
0.141976
0.14493
0.146965
0.148144
0.148518
0.148134
0.147048
0.145307
0.142956
0.140034
0.136583
0.132642
0.128243
0.123425
0.118215
0.112649
0.106754
0.100553
0.0940786
0.087345
0.0803779
0.0732042
0.0658345
0.0582732
0.0505587
0.0426306
0.0345237
0.0261033
0.017237
0.00847895
0.00299984
1.3286
1.18372
1.14737
1.10489
1.06003
1.02027
0.979413
0.937514
0.893835
0.847598
0.798701
0.746904
0.692116
0.634304
0.573554
0.510037
0.444032
0.375926
0.306266
0.235674
0.164988
0.0951162
0.0270974
-0.0379204
-0.0988087
-0.154386
-0.203609
-0.245577
-0.279598
-0.305315
-0.322596
-0.331714
-0.333139
-0.327631
-0.316072
-0.299456
-0.27879
-0.255056
-0.229151
-0.201889
-0.173981
-0.146013
-0.118463
-0.0917245
-0.066086
-0.0417636
-0.0189046
0.00239556
0.0220828
0.040144
0.0565786
0.0714197
0.0847165
0.0965236
0.106897
0.11591
0.123628
0.130125
0.135469
0.13973
0.142978
0.145265
0.14666
0.147219
0.147004
0.146066
0.144453
0.142211
0.139384
0.13602
0.132155
0.127825
0.123064
0.117905
0.112384
0.106528
0.100363
0.0939154
0.0872078
0.0802696
0.073115
0.0657698
0.0582229
0.0505252
0.0426129
0.0345118
0.0261046
0.0172338
0.00848163
0.00300645
1.32026
1.17534
1.13888
1.09625
1.05112
1.01104
0.969709
0.927224
0.882744
0.835642
0.785628
0.7325
0.676164
0.616572
0.553824
0.488056
0.419588
0.348822
0.27631
0.202789
0.129062
0.0562119
-0.0147033
-0.0824069
-0.145663
-0.203197
-0.253867
-0.296713
-0.330995
-0.356333
-0.372645
-0.380231
-0.37965
-0.37176
-0.357537
-0.338074
-0.31447
-0.287781
-0.258973
-0.228914
-0.198344
-0.167881
-0.13802
-0.109149
-0.0815652
-0.0554773
-0.0310261
-0.00829398
0.0126709
0.0318674
0.0493156
0.0650502
0.0791366
0.091636
0.102624
0.112178
0.120368
0.127278
0.132983
0.137557
0.141074
0.143604
0.145216
0.145965
0.145911
0.145114
0.143625
0.141493
0.138762
0.13548
0.131683
0.127415
0.122713
0.117604
0.112124
0.106303
0.10017
0.0937536
0.0870742
0.080157
0.0730245
0.0656928
0.0581613
0.0504696
0.0425673
0.034447
0.0260612
0.0172352
0.00849203
0.00302486
1.31266
1.16769
1.13111
1.08829
1.04292
1.00247
0.960674
0.917503
0.872299
0.824298
0.773151
0.718698
0.660834
0.599486
0.534746
0.466774
0.395869
0.322476
0.24719
0.170744
0.0940866
0.0182808
-0.0554431
-0.125753
-0.191293
-0.250685
-0.302726
-0.346351
-0.380819
-0.405718
-0.421008
-0.42704
-0.424457
-0.414203
-0.397361
-0.375116
-0.348655
-0.319105
-0.287497
-0.25474
-0.221615
-0.188757
-0.156671
-0.125758
-0.096312
-0.0685368
-0.0425663
-0.0184705
0.00371187
0.0239912
0.0423995
0.0589862
0.0738175
0.086982
0.0985552
0.10862
0.117259
0.124559
0.130609
0.13549
0.139275
0.142037
0.14385
0.144772
0.144871
0.144208
0.142836
0.140807
0.138167
0.134962
0.131237
0.127033
0.12238
0.117317
0.111878
0.106092
0.0999931
0.0936042
0.086949
0.0800562
0.0729373
0.0656272
0.0581079
0.0504388
0.0425506
0.0344563
0.0260777
0.0172195
0.0084656
0.00299918
1.30581
1.16078
1.12406
1.08109
1.0354
0.994604
0.952302
0.908584
0.86258
0.813647
0.761434
0.705721
0.646368
0.583336
0.516691
0.446583
0.373353
0.29744
0.219464
0.140247
0.0607349
-0.0178507
-0.0942863
-0.167053
-0.234754
-0.29589
-0.349169
-0.393494
-0.428058
-0.45248
-0.466729
-0.471228
-0.466696
-0.454169
-0.434822
-0.409925
-0.380752
-0.348494
-0.314235
-0.278935
-0.2434
-0.208285
-0.174115
-0.141287
-0.110095
-0.0807397
-0.0533427
-0.0279701
-0.00464874
0.016641
0.0359471
0.0533294
0.0688692
0.082649
0.0947631
0.105305
0.11436
0.122029
0.128404
0.133561
0.13759
0.140568
0.142567
0.143655
0.143898
0.143363
0.142102
0.140168
0.137613
0.134485
0.130824
0.12667
0.122067
0.117046
0.111645
0.105892
0.0998208
0.0934563
0.0868229
0.0799485
0.0728468
0.065551
0.0580487
0.0503891
0.0425097
0.0344491
0.0260963
0.0172529
0.00843998
0.00295095
1.29974
1.15464
1.11778
1.07464
1.02868
0.987511
0.944748
0.900394
0.853738
0.803992
0.750719
0.693787
0.633052
0.56842
0.499976
0.427874
0.352438
0.274163
0.193683
0.111845
0.0297054
-0.0515209
-0.13043
-0.205489
-0.275161
-0.337862
-0.392258
-0.437141
-0.47175
-0.495646
-0.508878
-0.511903
-0.505529
-0.490864
-0.469177
-0.441818
-0.410133
-0.37538
-0.338688
-0.301054
-0.26331
-0.226133
-0.190054
-0.155475
-0.122687
-0.0918838
-0.0631884
-0.0366525
-0.0122884
0.00992987
0.0300532
0.0481627
0.0643366
0.0786832
0.0912994
0.102279
0.111719
0.119719
0.126385
0.131803
0.136058
0.139232
0.141405
0.142642
0.143016
0.142593
0.141433
0.139585
0.137107
0.134044
0.130441
0.126341
0.121782
0.116803
0.111435
0.105712
0.0996671
0.0933287
0.0867194
0.0798628
0.0727746
0.0654947
0.0580007
0.0503572
0.042497
0.0344339
0.0260864
0.0172068
0.00842434
0.00297839
1.29445
1.14932
1.11235
1.069
1.02278
0.981278
0.938086
0.893255
0.845882
0.79528
0.741119
0.683107
0.621096
0.55502
0.484944
0.411017
0.333605
0.253165
0.170404
0.0862053
0.00164511
-0.0819153
-0.163102
-0.240183
-0.311622
-0.375705
-0.431038
-0.476402
-0.510969
-0.534353
-0.546614
-0.548273
-0.540212
-0.523613
-0.49982
-0.470254
-0.436327
-0.399338
-0.360468
-0.320746
-0.28103
-0.24201
-0.204228
-0.168087
-0.133875
-0.101786
-0.0719283
-0.0443558
-0.0190688
0.00397074
0.0248319
0.0435896
0.0603359
0.0751761
0.0882246
0.0995888
0.109369
0.117669
0.124594
0.130238
0.134692
0.138041
0.140364
0.141737
0.142228
0.141909
0.140834
0.139067
0.136659
0.133655
0.130103
0.126045
0.121527
0.11658
0.111245
0.105551
0.0995261
0.0932044
0.0866107
0.0797698
0.0726972
0.0654266
0.0579466
0.0503077
0.0424493
0.0343981
0.0260405
0.0171789
0.00842449
0.00299032
1.29002
1.1448
1.10768
1.06425
1.01776
0.975982
0.932385
0.887078
0.839132
0.787865
0.732866
0.673879
0.610758
0.543401
0.471888
0.39637
0.317191
0.234869
0.150114
0.0638419
-0.0227919
-0.108436
-0.191556
-0.270404
-0.343354
-0.40859
-0.464707
-0.510409
-0.544921
-0.5678
-0.579183
-0.579631
-0.570085
-0.551794
-0.526171
-0.49469
-0.458819
-0.419908
-0.379167
-0.337655
-0.296245
-0.255647
-0.216401
-0.17892
-0.143488
-0.11029
-0.0794411
-0.0509789
-0.0248983
-0.00115179
0.0203275
0.0396356
0.0568721
0.0721503
0.0855789
0.0972767
0.107351
0.115909
0.12306
0.128898
0.133525
0.137021
0.139478
0.140964
0.141557
0.141325
0.140327
0.138622
0.136273
0.133324
0.129816
0.125799
0.121314
0.116398
0.111084
0.105411
0.0994104
0.09311
0.0865329
0.0797045
0.0726442
0.0653861
0.0579112
0.050287
0.0424352
0.0343864
0.0260465
0.017186
0.00842423
0.00298169
1.28641
1.14117
1.10396
1.06038
1.01371
0.971655
0.927755
0.882041
0.8336
0.781732
0.726057
0.666272
0.602214
0.533802
0.461092
0.384236
0.303617
0.219712
0.133295
0.0452992
-0.0430918
-0.130412
-0.215175
-0.295445
-0.369639
-0.435814
-0.492504
-0.538475
-0.57289
-0.595336
-0.605975
-0.605396
-0.594612
-0.574922
-0.54779
-0.514738
-0.477278
-0.436786
-0.394509
-0.351522
-0.308721
-0.266823
-0.226378
-0.187795
-0.151362
-0.117264
-0.0855942
-0.0563992
-0.029667
-0.00534232
0.0166539
0.0364178
0.0540608
0.069686
0.0834207
0.0953873
0.105701
0.114471
0.121802
0.127801
0.132566
0.136186
0.138749
0.140332
0.141003
0.140839
0.139904
0.138257
0.135953
0.133044
0.129573
0.125587
0.121135
0.116242
0.110953
0.105299
0.0993108
0.0930224
0.0864553
0.0796389
0.0725876
0.0653327
0.0578689
0.0502434
0.0424004
0.0343347
0.0259967
0.0171745
0.00842626
0.00299443
1.28369
1.13842
1.10112
1.05745
1.01061
0.968386
0.924207
0.878207
0.829372
0.777063
0.720849
0.660435
0.595658
0.526412
0.452769
0.374888
0.293124
0.208007
0.120308
0.0309827
-0.058741
-0.147381
-0.23338
-0.314738
-0.389938
-0.456722
-0.513851
-0.56
-0.594349
-0.616431
-0.626473
-0.625107
-0.613364
-0.592596
-0.564301
-0.530045
-0.491364
-0.44967
-0.40622
-0.362109
-0.318247
-0.275361
-0.234
-0.194579
-0.15738
-0.122587
-0.0902996
-0.0605462
-0.0333173
-0.00854905
0.0138379
0.0339482
0.0518968
0.0677958
0.0817679
0.093946
0.104438
0.113363
0.120839
0.12696
0.131834
0.135547
0.138195
0.139844
0.14058
0.140475
0.139588
0.13798
0.135714
0.132837
0.129394
0.125435
0.120997
0.116124
0.110851
0.105211
0.0992375
0.0929583
0.0864045
0.0795983
0.072556
0.0653123
0.0578515
0.050235
0.042386
0.0343308
0.0259687
0.0171282
0.0084375
0.00301721
1.28187
1.13657
1.09922
1.05547
1.00852
0.966154
0.921813
0.875574
0.82652
0.773917
0.717323
0.656483
0.591205
0.521413
0.447138
0.368544
0.286023
0.200074
0.11149
0.0212591
-0.0694008
-0.158906
-0.245792
-0.327869
-0.403827
-0.47104
-0.528232
-0.57448
-0.608842
-0.630684
-0.64033
-0.638415
-0.626027
-0.604528
-0.575451
-0.540381
-0.50088
-0.458372
-0.414129
-0.369259
-0.324681
-0.281124
-0.239142
-0.199155
-0.161441
-0.126182
-0.0934738
-0.0633459
-0.0357771
-0.010713
0.0119379
0.0322835
0.0504366
0.0665141
0.0806485
0.092964
0.103585
0.112621
0.120191
0.126396
0.131341
0.13512
0.137824
0.139527
0.140301
0.140228
0.13937
0.137791
0.135546
0.132689
0.129268
0.125323
0.120905
0.116045
0.110784
0.105152
0.0991842
0.0929181
0.0863679
0.0795641
0.0725256
0.0652827
0.0578311
0.0502137
0.0423815
0.0343399
0.0260255
0.0171988
0.00840297
0.00296635
1.28095
1.13565
1.09827
1.05449
1.00749
0.965042
0.920606
0.874166
0.825108
0.772429
0.715559
0.654489
0.588966
0.518872
0.444271
0.365327
0.282405
0.196041
0.107017
0.0163305
-0.074777
-0.164748
-0.252037
-0.33452
-0.410863
-0.4783
-0.535404
-0.581804
-0.616163
-0.637865
-0.647307
-0.645122
-0.632399
-0.610532
-0.581057
-0.545577
-0.505661
-0.462744
-0.418105
-0.372859
-0.327921
-0.284027
-0.241736
-0.201463
-0.163486
-0.127991
-0.0950719
-0.0647542
-0.0370197
-0.0118013
0.0109882
0.0314526
0.0497067
0.0658747
0.0800886
0.0924771
0.103155
0.112244
0.119865
0.126112
0.131093
0.134902
0.137629
0.139353
0.140154
0.140101
0.139262
0.137695
0.135465
0.132622
0.129207
0.125272
0.120857
0.116005
0.110746
0.105122
0.0991646
0.0928959
0.0863504
0.0795496
0.0725157
0.0652819
0.057828
0.0502153
0.0423768
0.0343272
0.0259951
0.0171433
0.0084042
0.00299071
1.28096
1.13565
1.09826
1.05449
1.00749
0.965036
0.920599
0.874143
0.825119
0.77245
0.715558
0.654498
0.588968
0.518885
0.444285
0.365339
0.282425
0.196052
0.107031
0.0163434
-0.074771
-0.164734
-0.252032
-0.33451
-0.41085
-0.47829
-0.535383
-0.581796
-0.616145
-0.637849
-0.647288
-0.645102
-0.632382
-0.610515
-0.581043
-0.545563
-0.505648
-0.462729
-0.41809
-0.372843
-0.327906
-0.284014
-0.241723
-0.201452
-0.163479
-0.127987
-0.09507
-0.0647509
-0.0370136
-0.0117985
0.0109848
0.0314445
0.049701
0.0658705
0.0800868
0.0924732
0.103153
0.112245
0.119865
0.126111
0.131093
0.134907
0.137636
0.13936
0.140159
0.140106
0.139262
0.137697
0.135463
0.132616
0.129205
0.12527
0.120861
0.116008
0.110749
0.105125
0.0991625
0.092896
0.0863482
0.0795474
0.0725118
0.0652709
0.0578253
0.0502123
0.0423732
0.0343278
0.0259799
0.0171441
0.00841942
0.00299728
1.28187
1.13658
1.09922
1.05548
1.00854
0.966163
0.92182
0.875505
0.826552
0.774008
0.717353
0.656496
0.591224
0.521421
0.447138
0.368559
0.286026
0.200087
0.111502
0.0212865
-0.0693621
-0.158871
-0.245742
-0.327819
-0.403786
-0.470962
-0.528154
-0.574456
-0.608792
-0.630628
-0.640271
-0.63836
-0.625974
-0.604482
-0.575408
-0.540341
-0.50084
-0.458333
-0.414094
-0.36923
-0.324657
-0.2811
-0.239122
-0.199135
-0.161424
-0.126168
-0.0934595
-0.0633321
-0.0357676
-0.010702
0.0119501
0.0322986
0.0504556
0.06653
0.0806595
0.0929742
0.103589
0.112621
0.120191
0.126396
0.131342
0.13512
0.13782
0.139517
0.140296
0.140223
0.139368
0.13779
0.135548
0.132692
0.129266
0.125325
0.120903
0.116044
0.11078
0.105151
0.0991914
0.0929191
0.0863681
0.0795632
0.0725255
0.0652872
0.0578329
0.0502247
0.0423823
0.0343398
0.0259908
0.01713
0.008401
0.00299271
1.2837
1.13843
1.10114
1.05745
1.01063
0.96838
0.924212
0.878196
0.829388
0.777107
0.72087
0.660464
0.595679
0.526443
0.452803
0.37492
0.293171
0.208048
0.120352
0.0310345
-0.0586941
-0.147311
-0.233325
-0.314667
-0.389866
-0.456624
-0.513759
-0.559933
-0.594258
-0.616345
-0.62638
-0.625017
-0.613276
-0.592512
-0.564223
-0.529972
-0.491298
-0.449608
-0.406163
-0.362058
-0.318199
-0.275317
-0.23396
-0.194542
-0.157346
-0.122559
-0.0902752
-0.0605257
-0.0332998
-0.00853472
0.0138496
0.0339569
0.0519041
0.0677982
0.0817679
0.0939417
0.104437
0.113366
0.120842
0.126964
0.131837
0.135556
0.138198
0.13985
0.14059
0.140481
0.139588
0.137982
0.135712
0.132831
0.129394
0.125434
0.120999
0.116126
0.110851
0.105212
0.0992379
0.0929595
0.0864007
0.079591
0.0725534
0.0653062
0.0578531
0.0502351
0.0423965
0.0343533
0.0260168
0.01717
0.00841401
0.00299517
1.28642
1.14119
1.10397
1.06039
1.01372
0.97167
0.927765
0.882024
0.833635
0.781798
0.726099
0.666305
0.60225
0.533843
0.461125
0.384286
0.30365
0.219764
0.133347
0.0453614
-0.0430073
-0.13033
-0.215072
-0.29536
-0.369528
-0.435705
-0.492387
-0.538352
-0.572761
-0.595206
-0.605845
-0.605272
-0.594495
-0.574812
-0.547683
-0.51464
-0.477185
-0.436703
-0.394437
-0.351456
-0.30866
-0.266765
-0.226324
-0.187745
-0.151316
-0.117225
-0.0855627
-0.0563722
-0.0296448
-0.00532242
0.0166687
0.0364316
0.054075
0.0696995
0.0834315
0.0953954
0.105706
0.114473
0.121807
0.127807
0.13257
0.136189
0.138752
0.140331
0.141007
0.140842
0.139907
0.138259
0.135952
0.133044
0.129575
0.125591
0.121132
0.116239
0.11095
0.105301
0.0993171
0.0930263
0.086461
0.0796428
0.0725904
0.0653406
0.0578769
0.0502595
0.0424033
0.0343614
0.0260053
0.0171411
0.00841569
0.00299589
1.29002
1.14482
1.10773
1.06425
1.01779
0.975982
0.932404
0.887083
0.839156
0.787916
0.732902
0.673924
0.6108
0.54345
0.471941
0.396422
0.317267
0.234937
0.150189
0.0639323
-0.0227057
-0.108319
-0.191454
-0.270283
-0.343222
-0.408454
-0.46455
-0.510268
-0.544756
-0.567648
-0.579024
-0.579477
-0.569933
-0.551651
-0.526035
-0.494567
-0.458709
-0.419807
-0.379075
-0.33757
-0.296162
-0.25557
-0.21633
-0.178853
-0.143428
-0.110241
-0.0793994
-0.0509428
-0.0248676
-0.00112508
0.0203526
0.0396556
0.0568899
0.0721609
0.085584
0.0972787
0.107351
0.115909
0.123063
0.128907
0.133533
0.137032
0.139483
0.14097
0.141567
0.141334
0.140332
0.138628
0.136274
0.133319
0.129816
0.1258
0.121315
0.116399
0.111087
0.105415
0.0994133
0.0931068
0.0865277
0.0797021
0.0726429
0.0653806
0.0579109
0.0502811
0.0424335
0.0343855
0.0260399
0.0171876
0.00841969
0.00298426
1.29446
1.14934
1.11236
1.06902
1.0228
0.9813
0.938106
0.893257
0.845911
0.795352
0.741173
0.683154
0.62115
0.555085
0.485006
0.411095
0.333673
0.253244
0.170495
0.0862939
0.00177272
-0.0818078
-0.162953
-0.240056
-0.311462
-0.37555
-0.430867
-0.476221
-0.510789
-0.534168
-0.546435
-0.548095
-0.540039
-0.523446
-0.49966
-0.470106
-0.436188
-0.399209
-0.360353
-0.320638
-0.28093
-0.241918
-0.204144
-0.16801
-0.133807
-0.101727
-0.0718788
-0.0443158
-0.0190366
0.00399627
0.0248435
0.0435962
0.0603435
0.0751862
0.0882331
0.0995954
0.109378
0.11768
0.124608
0.13025
0.134701
0.138047
0.140372
0.141743
0.142237
0.141913
0.140842
0.139075
0.13666
0.133658
0.130109
0.126053
0.12153
0.116583
0.111246
0.105557
0.0995364
0.0932123
0.0866163
0.0797752
0.0727
0.0654325
0.0579532
0.0503177
0.042447
0.0343913
0.0260069
0.0171407
0.00843865
0.00300218
1.29975
1.15467
1.11781
1.07466
1.0287
0.987524
0.944773
0.900459
0.853787
0.803992
0.750753
0.693845
0.63311
0.568488
0.500058
0.427954
0.35254
0.274261
0.193789
0.111974
0.0298301
-0.0513669
-0.130282
-0.205325
-0.274983
-0.337686
-0.392056
-0.436952
-0.47154
-0.495446
-0.508673
-0.511698
-0.505327
-0.490672
-0.468997
-0.441652
-0.409982
-0.375242
-0.338559
-0.300937
-0.263199
-0.226033
-0.189963
-0.155393
-0.12261
-0.0918129
-0.0631255
-0.0365993
-0.0122453
0.00996697
0.0300867
0.0481894
0.0643648
0.0787042
0.0913066
0.102281
0.111718
0.119724
0.126393
0.13181
0.136064
0.13924
0.141409
0.142647
0.143026
0.142605
0.141442
0.139598
0.137116
0.13405
0.130447
0.126345
0.121783
0.116803
0.11144
0.105718
0.0996716
0.0933275
0.0867153
0.0798588
0.0727718
0.065489
0.0579972
0.0503504
0.0424724
0.0344048
0.0260036
0.0171414
0.00845569
0.00301996
1.30585
1.1608
1.12406
1.08113
1.03543
0.994621
0.952342
0.908495
0.862628
0.813801
0.761511
0.705786
0.646445
0.583416
0.516773
0.446677
0.373455
0.297539
0.219591
0.140358
0.0608946
-0.0177179
-0.0941048
-0.166888
-0.234559
-0.295692
-0.348957
-0.393269
-0.427838
-0.452252
-0.466509
-0.471007
-0.466487
-0.453961
-0.434622
-0.40974
-0.380576
-0.348328
-0.314084
-0.278796
-0.243275
-0.208171
-0.174013
-0.141194
-0.110012
-0.0806616
-0.0532756
-0.027918
-0.00460155
0.0166814
0.0359761
0.0533514
0.0688841
0.0826597
0.094769
0.105311
0.114372
0.122042
0.128415
0.133571
0.1376
0.140575
0.142576
0.143663
0.14391
0.143374
0.142114
0.140179
0.137622
0.134494
0.130832
0.126678
0.122072
0.117052
0.111649
0.105902
0.099829
0.0934632
0.086828
0.0799543
0.0728505
0.0655551
0.0580545
0.0503953
0.0425136
0.0344378
0.0260773
0.0172199
0.00844841
0.00299174
1.31268
1.16772
1.13114
1.08834
1.04294
1.00251
0.9607
0.9176
0.872333
0.82435
0.773198
0.71877
0.660905
0.599566
0.534843
0.466873
0.395988
0.322606
0.24732
0.1709
0.0942415
0.0184548
-0.0552558
-0.125562
-0.19108
-0.250477
-0.302494
-0.346122
-0.380579
-0.405478
-0.420769
-0.426801
-0.424228
-0.413984
-0.397155
-0.37492
-0.34847
-0.318936
-0.287337
-0.254596
-0.221478
-0.188633
-0.156563
-0.125664
-0.0962236
-0.0684553
-0.0424928
-0.0184072
0.00376786
0.0240388
0.0424359
0.0590185
0.073847
0.087001
0.0985656
0.108629
0.117266
0.124569
0.130619
0.135498
0.139281
0.142043
0.14386
0.144784
0.144883
0.144225
0.142853
0.140822
0.138181
0.134975
0.131246
0.127039
0.122386
0.117324
0.111883
0.106097
0.0999955
0.0936044
0.0869498
0.080055
0.0729349
0.0656235
0.0581043
0.0504305
0.0425392
0.034441
0.0260653
0.0171863
0.00845346
0.00301615
1.32031
1.17537
1.13889
1.09631
1.05117
1.01109
0.969757
0.927272
0.882799
0.835691
0.785688
0.732573
0.676243
0.616665
0.553923
0.488167
0.419713
0.348937
0.276468
0.20292
0.129248
0.0563714
-0.0145049
-0.0822096
-0.145444
-0.202971
-0.25363
-0.296465
-0.330747
-0.356078
-0.372395
-0.379978
-0.379414
-0.371524
-0.357312
-0.337862
-0.31427
-0.287596
-0.258804
-0.228759
-0.198206
-0.167756
-0.137911
-0.109048
-0.0814714
-0.0553884
-0.0309441
-0.00822682
0.0127323
0.0319177
0.0493515
0.0650798
0.0791577
0.0916537
0.102638
0.112188
0.120383
0.127292
0.132994
0.137567
0.141086
0.143615
0.145226