/*--------------------------------*- C++ -*----------------------------------*\
  =========                 |
  \\      /  F ield         | OpenFOAM: The Open Source CFD Toolbox
   \\    /   O peration     | Website:  https://openfoam.org
    \\  /    A nd           | Version:  11
     \\/     M anipulation  |
\*---------------------------------------------------------------------------*/
FoamFile
{
    format      ascii;
    class       volScalarField;
    location    "0.08";
    object      k;
}
// * * * * * * * * * * * * * * * * * * * * * * * * * * * * * * * * * * * * * //

dimensions      [0 2 -2 0 0 0 0];

internalField   nonuniform List<scalar> 
287084
(
0.381411
0.394104
0.407606
0.419953
0.429104
0.434427
0.436455
0.436704
0.436694
0.436706
0.436677
0.436577
0.436663
0.436844
0.436812
0.436819
0.436837
0.436841
0.436776
0.436713
0.436707
0.436661
0.436754
0.437024
0.437025
0.437021
0.436936
0.436821
0.436853
0.4369
0.436972
0.437008
0.436887
0.436935
0.436945
0.436904
0.436845
0.436791
0.436745
0.436686
0.436555
0.436506
0.436407
0.436368
0.436293
0.43626
0.436255
0.436189
0.436173
0.43608
0.435974
0.436094
0.436313
0.436286
0.436291
0.436238
0.436241
0.43619
0.435981
0.435974
0.436132
0.436181
0.436148
0.436014
0.436154
0.436382
0.436405
0.43637
0.436188
0.436249
0.43633
0.436315
0.436312
0.436166
0.436242
0.436392
0.436304
0.436372
0.4364
0.436388
0.436384
0.436201
0.436222
0.436459
0.436527
0.436506
0.436461
0.436458
0.436386
0.436131
0.381439
0.39409
0.407409
0.419714
0.428943
0.434448
0.436612
0.436858
0.43678
0.436951
0.437175
0.437059
0.437139
0.437185
0.437172
0.437166
0.437031
0.436923
0.436954
0.436977
0.436848
0.436834
0.43716
0.437417
0.437358
0.43741
0.437429
0.437401
0.437407
0.437348
0.437272
0.43703
0.437042
0.437116
0.436947
0.437
0.437022
0.436969
0.436865
0.436778
0.43687
0.43691
0.436872
0.43681
0.436718
0.436682
0.436578
0.436658
0.436802
0.436795
0.43679
0.436682
0.436665
0.436621
0.436539
0.436456
0.436394
0.436397
0.4364
0.436398
0.436259
0.436249
0.436524
0.436592
0.436553
0.436471
0.436404
0.436564
0.436664
0.436629
0.43651
0.436525
0.436704
0.43668
0.436689
0.4367
0.436707
0.436691
0.436651
0.436498
0.436559
0.436627
0.4366
0.436567
0.436536
0.436597
0.436541
0.436536
0.436532
0.436385
0.381443
0.394081
0.40738
0.419738
0.428851
0.434321
0.436756
0.437199
0.437149
0.437145
0.43714
0.437021
0.437069
0.437125
0.437077
0.437084
0.437002
0.437147
0.437268
0.437256
0.437253
0.437128
0.437092
0.437338
0.437443
0.437388
0.437373
0.43738
0.437388
0.437319
0.437328
0.437325
0.437339
0.437286
0.437261
0.437255
0.437259
0.437183
0.436987
0.4369
0.436848
0.436677
0.436734
0.436822
0.436808
0.436802
0.436646
0.436584
0.436737
0.436823
0.436788
0.436798
0.436772
0.436746
0.43665
0.436602
0.436546
0.436426
0.436432
0.436438
0.43632
0.436408
0.436514
0.436451
0.436447
0.436385
0.436576
0.436754
0.436687
0.436696
0.436697
0.43671
0.436701
0.436634
0.436568
0.436501
0.436474
0.436389
0.436438
0.436478
0.436392
0.436329
0.43642
0.436581
0.436471
0.436564
0.436631
0.436614
0.43661
0.43637
0.381422
0.394077
0.407424
0.419679
0.428767
0.434285
0.43678
0.437255
0.437248
0.437166
0.437187
0.437318
0.43733
0.437314
0.437133
0.437084
0.43715
0.437092
0.437199
0.437307
0.437211
0.437216
0.437181
0.43705
0.437111
0.437186
0.437172
0.437166
0.436959
0.436971
0.437253
0.437303
0.437239
0.437278
0.437288
0.437271
0.437268
0.437227
0.437191
0.437095
0.437045
0.437
0.436961
0.436906
0.436844
0.436651
0.436682
0.43674
0.436706
0.436664
0.436527
0.436577
0.436629
0.436586
0.436579
0.43655
0.436546
0.436514
0.436397
0.436506
0.436676
0.436636
0.43665
0.436612
0.436519
0.43643
0.436451
0.436386
0.43638
0.436593
0.436721
0.43664
0.436632
0.436632
0.436619
0.436487
0.436543
0.436766
0.436683
0.43673
0.436791
0.436751
0.436607
0.436646
0.436723
0.436689
0.436631
0.436558
0.436531
0.436376
0.381416
0.394082
0.407435
0.419596
0.428829
0.434336
0.436511
0.437202
0.437221
0.437194
0.43719
0.437075
0.437155
0.4372
0.437151
0.437161
0.437141
0.43697
0.437011
0.437095
0.437069
0.437066
0.436951
0.437101
0.437247
0.43715
0.437144
0.437152
0.437104
0.437168
0.437238
0.437153
0.437175
0.437201
0.437181
0.43713
0.436951
0.436899
0.437055
0.437101
0.437072
0.437079
0.437079
0.437044
0.437035
0.437
0.436997
0.436964
0.436927
0.436872
0.436737
0.43667
0.436626
0.436536
0.436492
0.436449
0.436404
0.436247
0.436306
0.436447
0.436431
0.436428
0.436335
0.436352
0.436305
0.436278
0.4362
0.436293
0.436455
0.436402
0.436397
0.436325
0.436492
0.436754
0.43666
0.43675
0.436798
0.43668
0.436711
0.436767
0.436732
0.436737
0.436737
0.436698
0.436465
0.43645
0.436596
0.436607
0.436574
0.436391
0.381421
0.394072
0.407387
0.419671
0.428907
0.434171
0.436274
0.43678
0.437161
0.437174
0.437074
0.437099
0.437115
0.437077
0.436975
0.436871
0.436942
0.437137
0.437135
0.437121
0.437094
0.437079
0.436947
0.436966
0.4371
0.437094
0.437011
0.437061
0.437258
0.437265
0.437252
0.437258
0.437266
0.437213
0.437109
0.437021
0.436968
0.43681
0.436867
0.436964
0.436852
0.436881
0.436927
0.4369
0.436907
0.436852
0.436692
0.436549
0.436582
0.43666
0.436648
0.436644
0.43654
0.436502
0.436593
0.43666
0.436641
0.436636
0.436535
0.436504
0.436548
0.436542
0.436544
0.436551
0.436546
0.43639
0.436479
0.436696
0.436607
0.436686
0.436724
0.436704
0.436695
0.436565
0.436556
0.436469
0.436543
0.436705
0.436611
0.436667
0.436686
0.43664
0.436482
0.436471
0.436601
0.436578
0.436647
0.436671
0.43662
0.436445
0.381406
0.394066
0.407403
0.419651
0.428942
0.434065
0.436454
0.436991
0.436992
0.43701
0.43697
0.43682
0.43681
0.437098
0.437103
0.437108
0.43739
0.437617
0.437532
0.437526
0.437628
0.437652
0.437599
0.437419
0.437388
0.437471
0.437464
0.437465
0.437469
0.437469
0.437398
0.437401
0.437339
0.43713
0.437153
0.437197
0.437176
0.437163
0.436924
0.436958
0.437045
0.437017
0.436995
0.436814
0.436813
0.436845
0.436825
0.43683
0.436786
0.436775
0.436713
0.436501
0.436528
0.436594
0.436563
0.436561
0.436507
0.436496
0.436383
0.436487
0.436595
0.436594
0.436594
0.436519
0.436504
0.436353
0.436421
0.436537
0.436519
0.436522
0.436406
0.436445
0.436522
0.436499
0.436427
0.436502
0.436629
0.436572
0.436574
0.43657
0.436438
0.436439
0.436629
0.436652
0.436622
0.436588
0.436485
0.436549
0.436604
0.436447
0.381424
0.394032
0.407485
0.419653
0.428623
0.434197
0.43686
0.437689
0.437773
0.437733
0.437585
0.437656
0.437746
0.437712
0.437732
0.437683
0.437703
0.437714
0.437681
0.4375
0.437524
0.437641
0.437532
0.437592
0.437664
0.437654
0.43768
0.437662
0.437602
0.437571
0.437552
0.437567
0.437526
0.437493
0.437495
0.437493
0.437409
0.437217
0.43701
0.437088
0.437162
0.437139
0.437142
0.437084
0.437039
0.436879
0.436879
0.436916
0.436848
0.436841
0.436828
0.436676
0.436621
0.43678
0.436834
0.436791
0.436644
0.436698
0.436802
0.436738
0.436782
0.436838
0.436817
0.436792
0.436797
0.436734
0.436587
0.436429
0.436406
0.436366
0.436461
0.436705
0.43669
0.436657
0.436614
0.436513
0.436613
0.436784
0.436762
0.43676
0.436767
0.436759
0.436527
0.436563
0.436713
0.43669
0.436691
0.436674
0.436642
0.436416
0.381417
0.394057
0.4074
0.419701
0.428778
0.434179
0.436549
0.437019
0.437028
0.437015
0.436865
0.436812
0.437132
0.437401
0.437276
0.437355
0.437405
0.437267
0.437361
0.437629
0.437524
0.437617
0.437676
0.437481
0.437541
0.437676
0.437552
0.437615
0.437689
0.437626
0.437661
0.437673
0.437637
0.437574
0.437471
0.437404
0.437313
0.437265
0.437186
0.437012
0.436845
0.436843
0.43685
0.436771
0.436857
0.436944
0.436791
0.436872
0.436938
0.436939
0.436938
0.436858
0.436851
0.43683
0.436809
0.436695
0.436451
0.43648
0.436586
0.436575
0.436571
0.436408
0.436509
0.43664
0.436608
0.436616
0.43659
0.436565
0.436387
0.436433
0.436766
0.436797
0.436745
0.436753
0.436749
0.436709
0.436519
0.436581
0.436817
0.436713
0.436807
0.436872
0.436851
0.436844
0.436736
0.436718
0.436641
0.436607
0.436554
0.436383
0.381465
0.393955
0.407449
0.419721
0.428773
0.434177
0.436442
0.43681
0.436722
0.436696
0.436932
0.437146
0.437143
0.437136
0.436977
0.437015
0.437043
0.437133
0.437271
0.437245
0.437201
0.437124
0.437137
0.437098
0.437207
0.437265
0.437239
0.437165
0.437202
0.437369
0.437278
0.437268
0.437265
0.437228
0.437201
0.437157
0.437073
0.437014
0.437022
0.437036
0.436948
0.436981
0.436986
0.43696
0.436942
0.436826
0.436623
0.436546
0.43651
0.436465
0.436315
0.436327
0.436404
0.436404
0.436396
0.436237
0.436249
0.43626
0.436133
0.436172
0.436509
0.43659
0.436553
0.436544
0.436512
0.436494
0.436334
0.436267
0.436444
0.436519
0.436519
0.436519
0.436436
0.436353
0.43638
0.436403
0.436282
0.436332
0.436638
0.436663
0.436631
0.436602
0.436472
0.43659
0.436761
0.4367
0.436713
0.436725
0.436699
0.436469
0.381436
0.394036
0.407421
0.419649
0.42879
0.434251
0.436524
0.436892
0.436768
0.43685
0.437019
0.437003
0.436996
0.436949
0.437001
0.436951
0.436938
0.437082
0.437123
0.437204
0.437575
0.437589
0.43754
0.437359
0.437341
0.437432
0.437266
0.437311
0.437417
0.437418
0.437413
0.437198
0.437238
0.437368
0.437257
0.437316
0.437329
0.437251
0.437274
0.437326
0.437291
0.43723
0.4371
0.437003
0.436916
0.436747
0.436447
0.436452
0.436586
0.43657
0.436463
0.436501
0.436583
0.436551
0.436496
0.436446
0.436397
0.436364
0.436362
0.436315
0.436449
0.436528
0.436488
0.436349
0.436362
0.436515
0.436533
0.436522
0.436322
0.436305
0.436442
0.436454
0.436366
0.436436
0.43659
0.43658
0.436572
0.436466
0.436389
0.436503
0.436588
0.436464
0.436542
0.436727
0.436718
0.436707
0.436633
0.436604
0.436562
0.436439
0.381405
0.394073
0.407405
0.419662
0.428805
0.434149
0.436614
0.437214
0.437216
0.437183
0.437163
0.437067
0.437086
0.437453
0.437497
0.437423
0.437452
0.437461
0.437433
0.437365
0.437431
0.437609
0.437618
0.437576
0.437446
0.437504
0.437694
0.43765
0.437636
0.437648
0.437673
0.437613
0.437621
0.437597
0.437564
0.437538
0.43751
0.437475
0.437427
0.437303
0.437171
0.437065
0.436959
0.436723
0.436529
0.436475
0.436503
0.436502
0.436454
0.436423
0.436292
0.436316
0.436531
0.436504
0.436593
0.436627
0.436556
0.43659
0.43665
0.436618
0.436588
0.436561
0.436426
0.436281
0.436452
0.43666
0.436638
0.436605
0.436428
0.436454
0.436675
0.436697
0.436661
0.436485
0.436515
0.436665
0.436658
0.436625
0.436424
0.436446
0.436613
0.436655
0.436625
0.436503
0.43661
0.436731
0.436709
0.436708
0.436649
0.436427
0.381431
0.394014
0.407516
0.419612
0.428627
0.434239
0.436846
0.43737
0.437247
0.437274
0.437428
0.437423
0.437441
0.437434
0.437317
0.437294
0.437594
0.437732
0.437707
0.43767
0.437562
0.437656
0.43772
0.437601
0.437683
0.43785
0.437682
0.437762
0.437836
0.437739
0.437768
0.437796
0.437759
0.437718
0.437645
0.437416
0.437316
0.437277
0.437239
0.43718
0.437049
0.436997
0.436962
0.436919
0.436837
0.436708
0.436667
0.436597
0.436697
0.436782
0.436722
0.436712
0.436719
0.436721
0.436665
0.436544
0.436552
0.436568
0.436528
0.43641
0.436435
0.436607
0.436529
0.436622
0.436681
0.436658
0.436651
0.436554
0.436524
0.436393
0.436435
0.436642
0.436658
0.436656
0.436555
0.436447
0.436591
0.436741
0.436727
0.436717
0.436564
0.436583
0.43668
0.436677
0.43667
0.436524
0.436512
0.436558
0.436544
0.436445
0.381434
0.39404
0.407369
0.419697
0.428922
0.434061
0.436407
0.436868
0.436696
0.436733
0.436867
0.436704
0.436777
0.436914
0.436842
0.436783
0.436856
0.436955
0.43704
0.437238
0.43723
0.437218
0.437189
0.437336
0.43761
0.437664
0.437473
0.437541
0.437655
0.437591
0.437603
0.437617
0.437622
0.437593
0.437532
0.437435
0.437332
0.43709
0.436978
0.436947
0.436841
0.436862
0.436935
0.436908
0.43691
0.436897
0.436739
0.43668
0.436796
0.436834
0.436812
0.436811
0.436749
0.436531
0.436534
0.43655
0.436509
0.436431
0.436399
0.436548
0.436579
0.436533
0.43636
0.436381
0.436481
0.436461
0.436459
0.436374
0.436389
0.436342
0.436452
0.436684
0.436671
0.436671
0.436643
0.436588
0.43645
0.436374
0.436446
0.436428
0.436448
0.436707
0.436908
0.436889
0.436856
0.436783
0.436685
0.436713
0.436733
0.436568
0.381425
0.394034
0.407476
0.419667
0.428595
0.434188
0.436923
0.437528
0.437415
0.437458
0.437611
0.437458
0.437485
0.43762
0.437539
0.43754
0.437542
0.437541
0.437493
0.43748
0.437453
0.437535
0.437751
0.437748
0.437727
0.437839
0.437901
0.437747
0.437815
0.43784
0.437725
0.437767
0.43777
0.437713
0.437708
0.437705
0.437684
0.43761
0.437451
0.437316
0.437219
0.43708
0.436759
0.43657
0.436537
0.436549
0.436553
0.436541
0.436537
0.436517
0.436503
0.436457
0.436308
0.436351
0.436534
0.436456
0.436514
0.436589
0.436582
0.436579
0.436416
0.436435
0.43662
0.43663
0.436639
0.436577
0.436685
0.436759
0.436728
0.436694
0.436533
0.436575
0.436626
0.436592
0.436544
0.436429
0.436596
0.436733
0.436707
0.43667
0.436536
0.436513
0.436475
0.436595
0.436674
0.436634
0.436544
0.436495
0.436508
0.43636
0.381415
0.394112
0.407397
0.419585
0.428877
0.434082
0.43659
0.437182
0.437229
0.437194
0.43705
0.437095
0.437168
0.437135
0.437028
0.43712
0.437347
0.437326
0.437267
0.437237
0.437285
0.437278
0.43726
0.437386
0.43748
0.437342
0.437438
0.437602
0.437537
0.437533
0.437483
0.437448
0.437264
0.437284
0.43731
0.437234
0.437226
0.437225
0.437237
0.437191
0.437155
0.437082
0.437046
0.437038
0.437041
0.437023
0.43695
0.436733
0.436633
0.436439
0.436292
0.436426
0.436518
0.436476
0.436327
0.436305
0.43647
0.436444
0.436592
0.437027
0.437036
0.436984
0.43681
0.436834
0.436887
0.436706
0.436786
0.436911
0.436878
0.436881
0.43689
0.436883
0.436741
0.436688
0.436656
0.436615
0.436498
0.436554
0.436607
0.43657
0.436477
0.436459
0.436719
0.436762
0.436726
0.436563
0.436596
0.436651
0.43661
0.436481
0.381418
0.394054
0.407466
0.41969
0.428582
0.434077
0.436955
0.437805
0.437833
0.437788
0.437642
0.437693
0.437831
0.437738
0.437755
0.437813
0.437814
0.437812
0.437739
0.437644
0.437721
0.437817
0.43778
0.437639
0.437612
0.437733
0.437725
0.437749
0.437796
0.437792
0.437773
0.437752
0.437713
0.437711
0.437674
0.43764
0.4376
0.437529
0.437454
0.437392
0.437327
0.43721
0.436932
0.436746
0.436636
0.436582
0.436538
0.436506
0.43644
0.436282
0.436154
0.436254
0.436346
0.436319
0.436235
0.436209
0.436539
0.436697
0.436677
0.436677
0.436628
0.436519
0.436467
0.436601
0.436643
0.436579
0.436597
0.436649
0.436685
0.436653
0.436602
0.4365
0.436464
0.436642
0.436736
0.436708
0.436668
0.436612
0.43658
0.436481
0.436559
0.436719
0.436733
0.436696
0.436599
0.436599
0.436606
0.436623
0.436567
0.436378
0.381419
0.394052
0.407438
0.419729
0.428556
0.434127
0.437008
0.437713
0.437623
0.437718
0.437828
0.437818
0.437816
0.437602
0.437612
0.43773
0.437663
0.43762
0.4377
0.43777
0.437674
0.437768
0.437929
0.437773
0.43785
0.438023
0.438009
0.438005
0.437979
0.437981
0.437934
0.437905
0.437838
0.437822
0.437789
0.437748
0.437689
0.4376
0.437437
0.437262
0.437159
0.437047
0.436898
0.436807
0.436738
0.436662
0.436508
0.436257
0.436312
0.43654
0.436536
0.436542
0.436531
0.436484
0.436357
0.436489
0.436655
0.436467
0.436487
0.436644
0.436527
0.436596
0.436808
0.436835
0.4368
0.436722
0.436715
0.436697
0.436676
0.436496
0.436513
0.436797
0.436904
0.436886
0.43686
0.436866
0.43684
0.436801
0.436721
0.436705
0.43666
0.436549
0.436475
0.436618
0.436704
0.436663
0.436575
0.436489
0.436472
0.436354
0.381422
0.394041
0.407496
0.419649
0.428594
0.434167
0.436853
0.437647
0.437662
0.437536
0.43754
0.437626
0.437605
0.437609
0.437635
0.437647
0.437623
0.437624
0.437578
0.437716
0.437843
0.437811
0.437689
0.437709
0.437833
0.437761
0.437736
0.437715
0.437726
0.437733
0.437725
0.4377
0.437658
0.437599
0.437538
0.437332
0.437039
0.437005
0.437049
0.437049
0.437049
0.437017
0.437006
0.436975
0.436962
0.436922
0.436869
0.436755
0.436477
0.436226
0.436307
0.436406
0.436405
0.436405
0.43625
0.43621
0.436495
0.436659
0.436506
0.436542
0.436691
0.436558
0.436614
0.436857
0.43686
0.436808
0.436618
0.436647
0.436713
0.436513
0.436558
0.436687
0.436492
0.436497
0.436706
0.436724
0.436678
0.436548
0.436512
0.436692
0.436786
0.436739
0.43674
0.436725
0.436644
0.436495
0.436506
0.436541
0.436492
0.436331
0.381376
0.394132
0.40743
0.419625
0.428683
0.434229
0.436751
0.43729
0.437286
0.437183
0.437202
0.437296
0.437274
0.43728
0.437255
0.437244
0.437131
0.43724
0.437491
0.437445
0.437445
0.437382
0.437496
0.437906
0.438013
0.437929
0.437991
0.438005
0.437907
0.437894
0.437873
0.437827
0.43779
0.437781
0.437741
0.437718
0.437622
0.437517
0.437423
0.437335
0.437189
0.437092
0.436979
0.436831
0.436724
0.436493
0.436352
0.436247
0.436215
0.436207
0.436068
0.43608
0.4366
0.436857
0.436737
0.43676
0.437035
0.43711
0.437103
0.437102
0.43703
0.43703
0.436977
0.436796
0.436844
0.436933
0.43693
0.43693
0.436837
0.436832
0.436758
0.436848
0.436918
0.436874
0.43678
0.436689
0.436661
0.43664
0.436658
0.436652
0.436635
0.436655
0.436662
0.436562
0.436557
0.436553
0.436506
0.43648
0.436431
0.436276
0.381428
0.394057
0.407408
0.419649
0.428826
0.434251
0.436336
0.436598
0.436572
0.43677
0.437059
0.437064
0.437057
0.436924
0.436851
0.437021
0.437185
0.437164
0.437126
0.437098
0.437417
0.437911
0.437819
0.437933
0.438054
0.438028
0.438036
0.437976
0.437945
0.437935
0.437958
0.43794
0.4379
0.437835
0.437759
0.43755
0.43728
0.437177
0.437114
0.437056
0.437009
0.43697
0.436929
0.43688
0.436781
0.436537
0.436408
0.436363
0.436253
0.436331
0.436425
0.436364
0.436377
0.436393
0.436379
0.436228
0.436161
0.436212
0.436289
0.436253
0.436121
0.436197
0.436277
0.436258
0.436256
0.436129
0.436229
0.436302
0.4363
0.436285
0.436348
0.436508
0.436599
0.436739
0.436743
0.436742
0.436647
0.436563
0.436546
0.436491
0.436598
0.436703
0.436672
0.436618
0.436563
0.436516
0.43634
0.436317
0.436413
0.436309
0.381433
0.394008
0.407527
0.4196
0.428636
0.434244
0.436869
0.437465
0.437468
0.437463
0.437376
0.43731
0.437419
0.437553
0.437616
0.437615
0.437591
0.437561
0.437531
0.437469
0.437504
0.437736
0.437741
0.437858
0.438018
0.437923
0.437919
0.437913
0.437953
0.437955
0.437916
0.437847
0.437779
0.437666
0.437586
0.437526
0.437408
0.437336
0.437269
0.437217
0.437136
0.437075
0.436999
0.436943
0.436897
0.436812
0.436629
0.43636
0.436244
0.436279
0.43629
0.436254
0.436149
0.436326
0.436777
0.436774
0.436718
0.436747
0.436917
0.436874
0.436931
0.436945
0.436808
0.436879
0.437029
0.437008
0.437008
0.43698
0.436967
0.436852
0.436818
0.436659
0.436655
0.436818
0.436757
0.436874
0.437018
0.43685
0.436925
0.437103
0.437092
0.437061
0.43703
0.436954
0.436886
0.436836
0.436728
0.436703
0.43664
0.436412
0.381423
0.394041
0.407463
0.419696
0.428559
0.434233
0.436901
0.437471
0.43764
0.437725
0.437544
0.437608
0.437682
0.437659
0.437646
0.437556
0.43768
0.437762
0.437659
0.437735
0.437935
0.437934
0.437915
0.437997
0.438195
0.438039
0.438117
0.438167
0.438072
0.438076
0.438067
0.438065
0.43803
0.437981
0.437891
0.437699
0.437541
0.437426
0.437263
0.436906
0.436739
0.43669
0.436605
0.436613
0.436621
0.436578
0.436483
0.436352
0.436428
0.436522
0.436508
0.4365
0.436313
0.436384
0.436824
0.437097
0.437082
0.436943
0.437034
0.437129
0.437096
0.437039
0.436953
0.436962
0.436932
0.436938
0.436941
0.436921
0.436852
0.436831
0.436761
0.436871
0.437027
0.436851
0.436918
0.437084
0.437089
0.43708
0.436846
0.436876
0.436947
0.436761
0.43683
0.436912
0.436911
0.436909
0.436741
0.43673
0.436671
0.436463
0.381441
0.394048
0.407353
0.419763
0.428756
0.434177
0.436505
0.436965
0.436953
0.436836
0.436883
0.436989
0.436968
0.4369
0.436885
0.437141
0.437163
0.43726
0.437703
0.437832
0.437904
0.437965
0.437948
0.437955
0.437946
0.437905
0.437776
0.437847
0.437929
0.437848
0.437825
0.437816
0.43777
0.437696
0.437708
0.437681
0.43763
0.437528
0.43727
0.437027
0.436898
0.436622
0.436502
0.436471
0.436435
0.436431
0.43634
0.436386
0.436411
0.436368
0.436399
0.436364
0.436246
0.436273
0.43629
0.436179
0.436144
0.436187
0.436167
0.436295
0.43639
0.436375
0.43634
0.436333
0.436583
0.436636
0.43668
0.436703
0.436659
0.436497
0.436501
0.436618
0.436606
0.436621
0.436671
0.436674
0.436644
0.436617
0.43652
0.436611
0.43666
0.436653
0.436647
0.436491
0.436442
0.436585
0.436702
0.436693
0.436682
0.436476
0.381397
0.394085
0.407462
0.419588
0.428752
0.434196
0.436771
0.437343
0.437383
0.437376
0.437291
0.437289
0.437289
0.437414
0.437495
0.437442
0.437438
0.437325
0.437415
0.437625
0.437577
0.437591
0.437543
0.437681
0.43778
0.437648
0.437747
0.437977
0.437986
0.437987
0.437953
0.43792
0.437759
0.437673
0.437588
0.437503
0.437431
0.437356
0.437293
0.437228
0.437096
0.43699
0.436913
0.436837
0.43668
0.436509
0.436359
0.436297
0.436258
0.436203
0.436026
0.43609
0.43637
0.436391
0.436357
0.436305
0.43627
0.436193
0.436049
0.436085
0.436213
0.436311
0.43639
0.436229
0.436288
0.436494
0.436531
0.436498
0.436447
0.436308
0.436334
0.436446
0.436285
0.436356
0.436517
0.436431
0.436344
0.436425
0.436563
0.436526
0.436429
0.43637
0.436475
0.436475
0.436492
0.436651
0.436718
0.436712
0.436699
0.436411
0.381429
0.39402
0.407507
0.419626
0.428618
0.434253
0.436863
0.43739
0.437284
0.437343
0.437551
0.437449
0.437431
0.437642
0.437741
0.437633
0.437739
0.437867
0.437708
0.437801
0.437904
0.437734
0.437766
0.437967
0.437922
0.438031
0.43814
0.438052
0.438082
0.438139
0.438106
0.438065
0.438016
0.437946
0.437839
0.437607
0.437411
0.4373
0.437178
0.437082
0.437011
0.436947
0.436909
0.436876
0.436842
0.436795
0.436695
0.436467
0.436175
0.43617
0.436271
0.436249
0.436162
0.436124
0.436311
0.436372
0.436322
0.436183
0.436117
0.436222
0.436312
0.436286
0.436213
0.436249
0.436248
0.436393
0.436538
0.436523
0.436531
0.436485
0.436474
0.436454
0.436297
0.436281
0.436588
0.43668
0.436641
0.436509
0.436562
0.436647
0.43665
0.436649
0.436461
0.4364
0.436548
0.436608
0.43656
0.436569
0.436544
0.436354
0.381419
0.394052
0.407437
0.419731
0.428555
0.434142
0.43699
0.43778
0.437796
0.437764
0.43772
0.437684
0.437549
0.437611
0.437798
0.437679
0.437635
0.437754
0.437837
0.437738
0.437839
0.437996
0.437832
0.437878
0.438084
0.438023
0.438084
0.438099
0.438039
0.438031
0.438025
0.438
0.437969
0.437934
0.437872
0.437748
0.4376
0.437442
0.437335
0.437253
0.437184
0.437129
0.437057
0.437013
0.436937
0.43676
0.436683
0.43652
0.436464
0.436441
0.436396
0.436297
0.436225
0.436557
0.436859
0.436968
0.43715
0.437145
0.437116
0.437092
0.437051
0.43691
0.436995
0.437076
0.436968
0.43698
0.436982
0.436988
0.436939
0.436905
0.436843
0.436815
0.436736
0.436771
0.436789
0.436714
0.43671
0.436689
0.436636
0.436738
0.436815
0.436806
0.436801
0.436611
0.436669
0.436795
0.43677
0.436767
0.436734
0.436516
0.381423
0.394041
0.407463
0.419697
0.428558
0.434233
0.436903
0.437474
0.437644
0.43773
0.437537
0.437587
0.437719
0.437671
0.43767
0.437588
0.437667
0.437769
0.43771
0.437723
0.437674
0.437756
0.438011
0.437891
0.437955
0.438203
0.43822
0.438186
0.438159
0.438107
0.438071
0.438055
0.437959
0.437884
0.437801
0.437647
0.437529
0.437429
0.437275
0.436915
0.436743
0.436682
0.436699
0.436708
0.436701
0.436651
0.436478
0.436351
0.43644
0.436521
0.4365
0.436486
0.436315
0.436455
0.436791
0.436667
0.436688
0.436981
0.437041
0.437022
0.437022
0.436969
0.436928
0.436744
0.436685
0.43676
0.436761
0.436832
0.436867
0.436824
0.436675
0.436688
0.436833
0.436728
0.436826
0.436921
0.436793
0.436847
0.436866
0.436841
0.436846
0.436781
0.436619
0.43649
0.436489
0.436445
0.436569
0.436695
0.436651
0.436482
0.381434
0.394006
0.40753
0.419596
0.428638
0.434266
0.436791
0.437506
0.437514
0.437414
0.437476
0.437556
0.437489
0.437417
0.437495
0.437701
0.437634
0.437664
0.437675
0.437575
0.43762
0.437887
0.437956
0.437937
0.437889
0.437853
0.437842
0.437785
0.437715
0.437812
0.437837
0.437804
0.437773
0.437749
0.43774
0.43773
0.437692
0.437644
0.437568
0.437358
0.437139
0.437022
0.436927
0.436853
0.436808
0.436724
0.436548
0.436242
0.436261
0.436386
0.436385
0.436384
0.436228
0.436405
0.436812
0.436854
0.43684
0.436756
0.436932
0.437079
0.43707
0.437062
0.436875
0.436926
0.437013
0.436971
0.436966
0.436946
0.436944
0.436894
0.436774
0.436848
0.436949
0.436918
0.436916
0.436916
0.436908
0.436742
0.436655
0.436794
0.43694
0.436932
0.436953
0.436923
0.436897
0.436844
0.436716
0.436683
0.436627
0.43644
0.381434
0.394045
0.407414
0.419665
0.428797
0.434201
0.436491
0.436873
0.436871
0.436827
0.436909
0.437135
0.437089
0.4371
0.437094
0.436982
0.436978
0.437221
0.437267
0.437199
0.437249
0.437676
0.437875
0.437849
0.437741
0.437791
0.437868
0.437659
0.43771
0.437808
0.437785
0.437779
0.437753
0.437759
0.43772
0.437663
0.437499
0.437448
0.437338
0.437083
0.436906
0.436839
0.436778
0.436596
0.436599
0.436626
0.436426
0.436479
0.436554
0.436355
0.436345
0.436468
0.43647
0.436473
0.436467
0.436532
0.43655
0.436504
0.436418
0.436229
0.436323
0.436498
0.436505
0.436506
0.436327
0.436421
0.436628
0.436542
0.43662
0.436648
0.436623
0.436619
0.436464
0.436513
0.436731
0.436591
0.436648
0.436789
0.4366
0.436639
0.436786
0.436804
0.436806
0.436729
0.436615
0.436671
0.43681
0.436799
0.436793
0.436549
0.381423
0.394104
0.407391
0.419597
0.428884
0.434076
0.436572
0.437172
0.437176
0.437143
0.437197
0.437213
0.437169
0.43704
0.437011
0.437212
0.437197
0.43732
0.43741
0.437389
0.43732
0.437306
0.437706
0.437892
0.437857
0.437856
0.437833
0.437817
0.437636
0.437661
0.437671
0.437633
0.437627
0.437572
0.437528
0.437465
0.437332
0.437254
0.437191
0.437115
0.43702
0.436958
0.436896
0.436849
0.436809
0.43675
0.436563
0.436559
0.436574
0.436568
0.436567
0.436465
0.436279
0.436266
0.436296
0.436256
0.436219
0.436257
0.436607
0.436735
0.436739
0.436738
0.436547
0.436598
0.436688
0.43667
0.436673
0.436553
0.43652
0.436528
0.436498
0.436608
0.436731
0.436736
0.436736
0.436544
0.436597
0.436746
0.436725
0.436723
0.436728
0.436724
0.436525
0.436573
0.436657
0.436619
0.436543
0.436462
0.436442
0.436303
0.381415
0.394111
0.407397
0.419587
0.428879
0.434086
0.436594
0.437148
0.43704
0.436998
0.437067
0.437146
0.437101
0.436931
0.436912
0.437283
0.437465
0.43744
0.437388
0.437304
0.437476
0.437571
0.437571
0.437551
0.43765
0.437795
0.437768
0.437792
0.437792
0.43775
0.437688
0.437579
0.437459
0.43739
0.437247
0.437156
0.437132
0.437133
0.437136
0.437141
0.437119
0.437088
0.437045
0.436967
0.436769
0.436591
0.436511
0.436477
0.436403
0.436154
0.436134
0.436306
0.436243
0.436331
0.43675
0.436859
0.436839
0.436817
0.436783
0.436746
0.436628
0.436698
0.436783
0.436757
0.436791
0.43677
0.436731
0.436572
0.4366
0.436767
0.436772
0.436731
0.436715
0.436706
0.43659
0.436553
0.436608
0.43658
0.436653
0.436674
0.436618
0.436635
0.436591
0.436605
0.436614
0.436578
0.436407
0.436452
0.436546
0.436354
0.381422
0.394044
0.407456
0.419701
0.428568
0.434172
0.436954
0.437644
0.437651
0.43762
0.43757
0.437591
0.437522
0.437624
0.437799
0.43777
0.437771
0.437726
0.437735
0.437695
0.437731
0.437742
0.43764
0.437736
0.437943
0.437764
0.437836
0.437936
0.437805
0.437856
0.437861
0.437807
0.437712
0.437602
0.437507
0.437418
0.437358
0.437241
0.437181
0.437124
0.437071
0.437027
0.436953
0.436858
0.436642
0.436462
0.436479
0.436485
0.436433
0.436561
0.43673
0.436649
0.43669
0.436701
0.436663
0.436566
0.436465
0.436492
0.436623
0.436617
0.436574
0.436576
0.436632
0.436634
0.436629
0.436488
0.436496
0.4366
0.436595
0.436534
0.43655
0.436742
0.436748
0.436835
0.436862
0.436837
0.436831
0.436715
0.436695
0.436672
0.436683
0.436683
0.43649
0.436562
0.436729
0.436727
0.436728
0.436675
0.436639
0.436415
0.381415
0.394063
0.407449
0.419727
0.428518
0.43415
0.43693
0.437674
0.4378
0.437758
0.437588
0.43761
0.437745
0.437702
0.437716
0.43767
0.437664
0.437664
0.437792
0.438029
0.437996
0.438015
0.438015
0.437863
0.437906
0.438007
0.437946
0.437959
0.437925
0.437882
0.437847
0.43783
0.437836
0.437786
0.437682
0.437629
0.437535
0.437463
0.437391
0.437238
0.437167
0.437125
0.437052
0.436888
0.436806
0.436757
0.436679
0.436635
0.436546
0.436511
0.436412
0.43649
0.436635
0.436629
0.436629
0.436502
0.436579
0.436715
0.436685
0.436699
0.436697
0.436657
0.436564
0.43654
0.436488
0.436558
0.436761
0.43667
0.436783
0.436933
0.436949
0.436912
0.436707
0.436704
0.436923
0.436959
0.436906
0.436909
0.436911
0.436877
0.436843
0.436802
0.436763
0.436734
0.436708
0.436515
0.43652
0.436571
0.436533
0.436382
0.381386
0.394105
0.407471
0.419588
0.428672
0.434288
0.436695
0.437196
0.437212
0.437243
0.437199
0.437034
0.437072
0.437107
0.436944
0.437009
0.437297
0.437338
0.437304
0.437199
0.437304
0.437491
0.437619
0.437676
0.437527
0.437607
0.437651
0.437611
0.437557
0.437398
0.437439
0.437471
0.43741
0.437203
0.437196
0.437207
0.437098
0.437101
0.437096
0.437092
0.437051
0.437013
0.436971
0.436806
0.43663
0.436473
0.436423
0.436367
0.436185
0.436196
0.436401
0.436407
0.436491
0.436522
0.436504
0.436499
0.436319
0.436352
0.436645
0.436594
0.436702
0.436802
0.436692
0.436687
0.436683
0.436563
0.436576
0.436691
0.436628
0.436643
0.436633
0.436501
0.436497
0.436604
0.436582
0.436522
0.436593
0.436716
0.436682
0.436556
0.436592
0.436724
0.436584
0.436655
0.436693
0.436661
0.436565
0.436589
0.436635
0.436432
0.381424
0.394037
0.407474
0.419664
0.428616
0.434147
0.436914
0.437715
0.437796
0.437754
0.437581
0.437646
0.437766
0.43764
0.43758
0.437559
0.437472
0.437526
0.437713
0.437622
0.437605
0.437675
0.43764
0.437763
0.437967
0.437948
0.437945
0.437928
0.437924
0.437847
0.43763
0.437553
0.437523
0.437488
0.437503
0.437472
0.437437
0.437399
0.43738
0.437308
0.437202
0.437119
0.437027
0.436839
0.436712
0.436656
0.436563
0.436509
0.436415
0.43624
0.436363
0.436636
0.436603
0.436602
0.436599
0.436485
0.436512
0.436565
0.436487
0.436508
0.436466
0.436449
0.436383
0.436453
0.436524
0.436357
0.43643
0.436532
0.436445
0.43639
0.436524
0.436794
0.436758
0.436789
0.436794
0.436762
0.436775
0.436752
0.436719
0.436674
0.436526
0.436575
0.436703
0.436635
0.436653
0.436638
0.436465
0.436492
0.436573
0.436367
0.381427
0.394041
0.407397
0.419696
0.428824
0.43421
0.436375
0.436715
0.436613
0.43668
0.437034
0.437058
0.437029
0.437027
0.436901
0.437029
0.437274
0.437207
0.437178
0.437356
0.437556
0.437413
0.437455
0.4377
0.43765
0.437762
0.437998
0.437976
0.43794
0.437907
0.437903
0.437849
0.437825
0.437738
0.437536
0.437424
0.437362
0.437293
0.437175
0.437112
0.437073
0.437028
0.436995
0.437001
0.436981
0.436806
0.436612
0.436668
0.436743
0.436631
0.43668
0.436697
0.436649
0.436561
0.436395
0.436435
0.436533
0.43649
0.436329
0.436301
0.436427