/*--------------------------------*- C++ -*----------------------------------*\
  =========                 |
  \\      /  F ield         | OpenFOAM: The Open Source CFD Toolbox
   \\    /   O peration     | Website:  https://openfoam.org
    \\  /    A nd           | Version:  11
     \\/     M anipulation  |
\*---------------------------------------------------------------------------*/
FoamFile
{
    format      ascii;
    class       volScalarField;
    location    "0.08";
    object      nut;
}
// * * * * * * * * * * * * * * * * * * * * * * * * * * * * * * * * * * * * * //

dimensions      [0 2 -1 0 0 0 0];

internalField   nonuniform List<scalar> 
287084
(
0.000836171
0.000864759
0.000895775
0.000924712
0.00094667
0.000960002
0.000965616
0.000966899
0.000967318
0.000967586
0.000967623
0.000967414
0.000967584
0.000967959
0.000967854
0.000967812
0.000967784
0.000967718
0.000967495
0.000967281
0.0009672
0.000967042
0.000967206
0.000967768
0.000967763
0.000967752
0.000967574
0.000967336
0.000967431
0.000967585
0.000967834
0.000968042
0.00096799
0.000968349
0.000968611
0.000968748
0.000968833
0.000968925
0.000969027
0.000969094
0.000968993
0.00096906
0.000969008
0.000969076
0.000969046
0.000969099
0.000969198
0.000969147
0.000969193
0.000969053
0.000968883
0.000969173
0.000969668
0.000969615
0.000969625
0.000969503
0.000969493
0.000969362
0.000968872
0.000968837
0.000969172
0.00096926
0.000969161
0.000968843
0.000969123
0.000969603
0.000969631
0.000969513
0.000969068
0.000969174
0.000969336
0.000969266
0.000969219
0.000968872
0.000969022
0.000969345
0.000969132
0.00096926
0.000969307
0.000969265
0.000969236
0.000968818
0.000968845
0.000969355
0.000969494
0.000969421
0.00096929
0.000969259
0.000969085
0.000968468
0.00118193
0.00122114
0.00126281
0.00130142
0.00133062
0.00134828
0.00135542
0.00135646
0.00135639
0.00135702
0.00135775
0.00135736
0.00135757
0.00135764
0.00135752
0.00135739
0.00135685
0.0013564
0.00135638
0.00135635
0.00135585
0.00135573
0.00135668
0.00135743
0.00135725
0.00135741
0.00135749
0.00135748
0.00135763
0.00135759
0.00135752
0.00135697
0.00135724
0.00135773
0.00135747
0.00135791
0.00135826
0.00135838
0.00135834
0.00135834
0.0013589
0.00135927
0.00135939
0.00135941
0.00135932
0.00135938
0.00135922
0.0013596
0.00136016
0.00136024
0.0013603
0.00136003
0.00136002
0.00135992
0.0013597
0.00135945
0.00135925
0.00135924
0.00135923
0.00135919
0.00135873
0.00135868
0.0013595
0.00135968
0.00135953
0.00135923
0.00135898
0.00135944
0.00135972
0.00135957
0.00135917
0.00135919
0.00135971
0.00135961
0.00135961
0.00135963
0.00135963
0.00135955
0.0013594
0.0013589
0.00135906
0.00135925
0.00135914
0.00135901
0.00135889
0.00135906
0.00135888
0.00135885
0.00135884
0.00135837
0.00118199
0.00122131
0.00126295
0.00130177
0.00133061
0.00134811
0.00135603
0.00135763
0.0013576
0.00135765
0.00135765
0.00135725
0.00135734
0.00135743
0.00135718
0.00135709
0.00135671
0.00135703
0.0013573
0.00135714
0.00135703
0.00135656
0.00135638
0.0013571
0.00135741
0.00135726
0.00135727
0.00135738
0.00135752
0.00135746
0.00135767
0.00135786
0.00135814
0.00135821
0.0013584
0.00135867
0.00135897
0.00135902
0.0013587
0.00135871
0.00135882
0.00135854
0.00135896
0.00135945
0.00135961
0.00135976
0.00135943
0.00135937
0.00135996
0.00136033
0.0013603
0.00136039
0.00136035
0.00136031
0.00136003
0.00135989
0.00135973
0.00135935
0.00135935
0.00135934
0.00135894
0.00135919
0.0013595
0.00135926
0.00135922
0.00135899
0.00135955
0.00136006
0.00135982
0.00135982
0.00135979
0.00135981
0.00135976
0.00135952
0.00135928
0.00135905
0.00135894
0.00135865
0.00135878
0.00135888
0.00135859
0.00135837
0.00135863
0.00135912
0.00135876
0.00135904
0.00135923
0.00135917
0.00135915
0.00135837
0.00118195
0.00122142
0.00126332
0.00130193
0.00133079
0.00134844
0.00135651
0.00135813
0.00135816
0.00135789
0.00135791
0.00135824
0.00135819
0.00135804
0.00135735
0.00135707
0.00135714
0.00135683
0.00135704
0.00135725
0.00135685
0.00135677
0.00135659
0.00135614
0.00135631
0.00135656
0.00135657
0.00135664
0.00135612
0.00135631
0.00135738
0.00135775
0.00135779
0.00135817
0.00135848
0.00135873
0.00135902
0.00135919
0.00135938
0.00135937
0.00135949
0.00135961
0.00135973
0.00135978
0.00135978
0.00135936
0.00135961
0.00135992
0.00135993
0.00135989
0.00135954
0.00135975
0.00135996
0.00135986
0.00135985
0.00135977
0.00135976
0.00135965
0.00135927
0.00135959
0.0013601
0.00135994
0.00135996
0.00135981
0.00135948
0.00135917
0.0013592
0.00135896
0.00135891
0.00135954
0.0013599
0.00135961
0.00135955
0.00135952
0.00135945
0.00135901
0.00135916
0.00135983
0.00135954
0.00135967
0.00135984
0.00135969
0.00135922
0.00135933
0.00135956
0.00135944
0.00135925
0.00135901
0.00135892
0.00135838
0.00118194
0.00122153
0.00126348
0.00130183
0.00133116
0.00134878
0.00135583
0.0013581
0.00135818
0.00135805
0.00135797
0.00135752
0.00135767
0.00135768
0.0013574
0.00135728
0.00135708
0.0013564
0.00135639
0.00135652
0.00135633
0.00135622
0.00135579
0.0013562
0.00135664
0.00135636
0.00135639
0.0013565
0.00135648
0.00135685
0.00135726
0.00135723
0.00135756
0.00135792
0.00135815
0.0013583
0.00135806
0.00135822
0.00135901
0.00135946
0.00135965
0.00135994
0.00136018
0.0013603
0.00136047
0.00136054
0.00136068
0.0013607
0.0013607
0.00136062
0.00136026
0.00136011
0.00136001
0.00135976
0.00135963
0.00135951
0.00135936
0.00135886
0.00135902
0.00135944
0.00135936
0.00135932
0.001359
0.00135902
0.00135883
0.00135871
0.00135843
0.00135868
0.00135915
0.00135895
0.0013589
0.00135864
0.00135913
0.00135991
0.00135959
0.00135984
0.00135996
0.00135956
0.00135964
0.00135979
0.00135966
0.00135965
0.00135963
0.00135949
0.00135875
0.00135869
0.00135914
0.00135916
0.00135905
0.00135843
0.00118196
0.00122151
0.00126337
0.00130215
0.00133153
0.00134843
0.00135526
0.00135694
0.00135812
0.00135809
0.00135769
0.00135765
0.00135756
0.00135729
0.00135682
0.00135634
0.00135641
0.00135686
0.0013567
0.00135652
0.00135631
0.00135616
0.00135567
0.00135567
0.00135606
0.00135606
0.00135585
0.00135611
0.00135685
0.00135706
0.00135723
0.00135749
0.0013578
0.00135793
0.00135792
0.00135798
0.00135815
0.00135799
0.0013585
0.00135911
0.00135906
0.00135942
0.00135982
0.00135996
0.00136018
0.00136019
0.00135984
0.00135952
0.00135973
0.00136005
0.00136008
0.00136012
0.00135982
0.00135972
0.00136002
0.00136023
0.00136016
0.00136012
0.00135978
0.00135966
0.00135976
0.00135971
0.00135968
0.00135966
0.00135961
0.00135908
0.00135932
0.00135996
0.00135964
0.00135985
0.00135993
0.00135983
0.00135977
0.00135933
0.00135927
0.00135897
0.00135917
0.00135965
0.00135933
0.00135948
0.00135952
0.00135935
0.00135884
0.00135879
0.00135918
0.0013591
0.0013593
0.00135937
0.0013592
0.0013586
0.00118192
0.00122153
0.00126347
0.00130216
0.00133173
0.00134818
0.0013559
0.00135767
0.00135765
0.00135763
0.00135739
0.00135678
0.00135661
0.00135734
0.00135719
0.00135703
0.00135773
0.00135827
0.00135784
0.00135767
0.00135785
0.00135781
0.00135755
0.00135693
0.00135681
0.00135708
0.00135713
0.00135723
0.00135739
0.00135758
0.00135759
0.00135787
0.00135797
0.00135765
0.00135806
0.00135855
0.00135885
0.00135916
0.00135876
0.00135919
0.00135977
0.00135997
0.00136016
0.00135982
0.00136002
0.0013603
0.00136038
0.00136052
0.00136048
0.00136053
0.00136039
0.00135977
0.00135988
0.0013601
0.00136001
0.00135999
0.0013598
0.00135974
0.00135937
0.00135966
0.00135995
0.00135991
0.00135987
0.00135959
0.0013595
0.00135899
0.00135916
0.00135948
0.00135939
0.00135935
0.00135895
0.00135903
0.00135924
0.00135913
0.00135887
0.00135908
0.00135945
0.00135924
0.00135922
0.00135918
0.00135875
0.00135873
0.0013593
0.00135936
0.00135925
0.00135913
0.0013588
0.00135898
0.00135915
0.00135861
0.00118197
0.00122143
0.00126375
0.00130219
0.00133078
0.00134865
0.00135724
0.00135991
0.00136014
0.00135992
0.00135933
0.0013594
0.00135951
0.00135922
0.0013591
0.00135876
0.00135863
0.00135847
0.00135819
0.00135746
0.00135738
0.00135762
0.00135718
0.00135731
0.0013575
0.00135748
0.00135763
0.00135768
0.00135765
0.00135777
0.00135796
0.0013583
0.0013585
0.00135875
0.00135913
0.00135951
0.00135963
0.00135941
0.00135913
0.00135972
0.00136027
0.00136049
0.00136077
0.00136082
0.00136088
0.00136055
0.0013607
0.00136093
0.00136081
0.00136086
0.00136087
0.00136043
0.00136028
0.00136078
0.00136094
0.00136079
0.00136031
0.00136044
0.00136073
0.00136049
0.00136059
0.00136071
0.0013606
0.00136048
0.00136045
0.00136021
0.0013597
0.00135916
0.00135905
0.00135888
0.00135914
0.00135986
0.00135977
0.00135964
0.00135947
0.00135912
0.0013594
0.00135991
0.00135981
0.00135978
0.00135978
0.00135973
0.00135899
0.00135908
0.00135954
0.00135945
0.00135944
0.00135938
0.00135927
0.00135851
0.00118195
0.00122151
0.00126349
0.00130237
0.0013313
0.00134864
0.00135631
0.00135787
0.00135786
0.00135771
0.0013571
0.00135676
0.00135758
0.00135821
0.00135762
0.00135766
0.00135761
0.00135697
0.00135707
0.00135772
0.00135723
0.00135738
0.00135745
0.00135677
0.00135693
0.00135736
0.00135704
0.00135736
0.00135776
0.00135779
0.00135818
0.00135853
0.00135878
0.00135897
0.00135906
0.00135926
0.00135939
0.00135965
0.00135979
0.00135962
0.00135943
0.00135973
0.00136002
0.00136002
0.00136049
0.00136093
0.00136059
0.00136096
0.00136125
0.00136131
0.00136135
0.00136112
0.00136111
0.00136104
0.00136096
0.00136058
0.00135978
0.00135984
0.00136013
0.00136005
0.00135998
0.00135942
0.00135969
0.00136005
0.0013599
0.00135987
0.00135974
0.00135961
0.00135901
0.00135911
0.0013601
0.00136016
0.00135996
0.00135995
0.0013599
0.00135974
0.00135912
0.00135928
0.00135999
0.00135964
0.00135991
0.00136009
0.00136
0.00135996
0.00135961
0.00135954
0.00135929
0.00135917
0.00135899
0.0013584
0.0011821
0.0012212
0.00126365
0.00130245
0.0013313
0.00134867
0.00135601
0.00135724
0.00135692
0.00135672
0.0013573
0.00135778
0.00135757
0.00135734
0.00135662
0.00135652
0.00135637
0.00135643
0.00135665
0.00135637
0.00135605
0.00135565
0.00135557
0.00135537
0.00135567
0.00135587
0.00135586
0.00135576
0.00135607
0.00135684
0.00135686
0.00135718
0.00135756
0.00135787
0.00135822
0.00135854
0.00135872
0.00135897
0.00135941
0.00135984
0.00135992
0.00136034
0.00136063
0.00136079
0.00136094
0.00136074
0.00136025
0.00136011
0.00136008
0.00135999
0.00135955
0.00135961
0.00135984
0.00135983
0.00135978
0.00135925
0.00135924
0.00135923
0.00135878
0.00135885
0.00135985
0.00136005
0.00135987
0.00135979
0.00135963
0.00135952
0.00135897
0.00135871
0.00135921
0.0013594
0.00135935
0.00135931
0.00135901
0.00135871
0.00135876
0.0013588
0.00135839
0.00135851
0.00135944
0.00135949
0.00135937
0.00135925
0.00135883
0.00135918
0.00135969
0.00135949
0.00135952
0.00135954
0.00135945
0.00135868
0.00118201
0.00122146
0.00126357
0.00130223
0.00133137
0.00134891
0.00135627
0.0013575
0.00135707
0.00135719
0.00135755
0.0013573
0.00135706
0.00135669
0.00135661
0.00135622
0.00135593
0.00135614
0.00135603
0.00135607
0.00135702
0.00135689
0.00135661
0.00135595
0.00135586
0.00135616
0.00135572
0.001356
0.00135654
0.00135682
0.00135714
0.00135685
0.00135741
0.00135828
0.00135841
0.00135909
0.00135961
0.00135983
0.00136034
0.00136091
0.00136117
0.00136131
0.00136119
0.00136113
0.00136107
0.00136071
0.0013599
0.00136001
0.0013605
0.00136049
0.00136018
0.0013603
0.00136054
0.00136041
0.0013602
0.00136
0.0013598
0.00135964
0.00135957
0.00135936
0.00135972
0.00135991
0.00135972
0.00135922
0.0013592
0.00135962
0.00135962
0.00135953
0.00135886
0.00135875
0.00135913
0.00135913
0.00135881
0.00135898
0.00135943
0.00135936
0.0013593
0.00135894
0.00135867
0.001359
0.00135924
0.00135883
0.00135905
0.00135961
0.00135956
0.00135951
0.00135927
0.00135917
0.00135903
0.00135859
0.00118191
0.00122157
0.00126352
0.00130228
0.00133142
0.00134859
0.00135656
0.0013585
0.00135845
0.00135821
0.00135797
0.00135746
0.00135729
0.00135818
0.00135806
0.00135757
0.00135739
0.00135716
0.00135682
0.00135637
0.00135636
0.00135673
0.00135661
0.00135638
0.00135593
0.00135613
0.00135681
0.00135683
0.00135702
0.00135735
0.0013578
0.00135804
0.00135854
0.00135897
0.00135939
0.00135983
0.00136027
0.00136066
0.00136098
0.00136102
0.001361
0.00136101
0.00136097
0.00136049
0.00136008
0.00136007
0.00136028
0.00136037
0.00136027
0.00136021
0.00135981
0.00135987
0.00136052
0.0013604
0.00136062
0.00136067
0.00136039
0.00136043
0.00136055
0.00136038
0.00136022
0.00136006
0.00135958
0.00135906
0.00135952
0.00136011
0.00135998
0.00135982
0.00135921
0.00135924
0.00135988
0.0013599
0.00135974
0.00135915
0.0013592
0.00135963
0.00135958
0.00135944
0.00135878
0.00135883
0.00135932
0.00135943
0.00135931
0.00135891
0.00135923
0.00135959
0.00135951
0.00135949
0.0013593
0.00135855
0.00118199
0.00122139
0.00126387
0.00130212
0.00133086
0.00134887
0.00135727
0.00135898
0.00135853
0.00135847
0.00135876
0.00135852
0.00135833
0.00135804
0.0013574
0.00135705
0.00135769
0.00135784
0.00135749
0.00135712
0.00135655
0.00135664
0.00135668
0.0013562
0.00135641
0.00135694
0.00135652
0.00135694
0.00135742
0.00135745
0.00135795
0.0013585
0.0013589
0.00135932
0.00135967
0.00135953
0.00135977
0.00136019
0.00136057
0.00136084
0.00136083
0.00136102
0.00136122
0.00136133
0.00136127
0.00136103
0.00136101
0.00136087
0.00136123
0.00136151
0.00136132
0.00136127
0.00136125
0.00136121
0.00136097
0.00136053
0.00136048
0.00136046
0.00136025
0.0013598
0.00135981
0.00136027
0.00135995
0.00136017
0.00136028
0.00136014
0.00136005
0.00135969
0.00135954
0.00135907
0.00135915
0.00135974
0.00135975
0.0013597
0.00135934
0.00135896
0.00135938
0.00135981
0.00135974
0.00135968
0.00135917
0.00135921
0.00135949
0.00135946
0.00135942
0.00135895
0.0013589
0.00135903
0.00135897
0.00135861
0.001182
0.00122147
0.00126341
0.00130238
0.00133179
0.00134831
0.0013559
0.0013574
0.0013568
0.00135676
0.00135696
0.00135622
0.00135619
0.00135633
0.00135582
0.00135533
0.00135525
0.00135526
0.00135523
0.00135556
0.00135529
0.00135503
0.00135477
0.00135511
0.00135591
0.00135609
0.00135561
0.00135601
0.00135664
0.0013568
0.00135729
0.00135784
0.00135842
0.00135892
0.00135935
0.00135966
0.00135994
0.00135976
0.00135994
0.00136032
0.00136041
0.00136084
0.00136137
0.00136153
0.00136174
0.00136185
0.00136146
0.00136134
0.00136174
0.00136186
0.00136177
0.00136174
0.00136149
0.00136075
0.00136069
0.00136066
0.00136045
0.00136012
0.00135993
0.00136031
0.00136032
0.0013601
0.00135948
0.00135946
0.0013597
0.00135956
0.00135949
0.00135916
0.00135914
0.00135894
0.00135923
0.00135989
0.0013598
0.00135976
0.00135963
0.00135942
0.00135895
0.00135868
0.00135887
0.00135879
0.00135882
0.0013596
0.00136021
0.00136013
0.00136
0.00135976
0.00135944
0.00135951
0.00135957
0.001359
0.00118198
0.00122145
0.00126375
0.00130229
0.00133076
0.00134869
0.00135749
0.00135943
0.001359
0.00135897
0.00135923
0.00135851
0.00135831
0.00135843
0.00135788
0.00135755
0.00135724
0.00135691
0.00135644
0.0013561
0.00135574
0.00135577
0.00135625
0.00135611
0.00135599
0.00135636
0.00135667
0.0013564
0.00135691
0.00135739
0.00135751
0.0013582
0.00135882
0.00135929
0.00135994
0.00136059
0.00136116
0.00136154
0.0013616
0.00136168
0.00136181
0.00136175
0.00136106
0.00136072
0.00136081
0.00136099
0.0013611
0.00136112
0.00136113
0.00136106
0.00136098
0.00136079
0.00136026
0.00136032
0.00136081
0.00136047
0.00136057
0.0013607
0.00136058
0.00136048
0.00135988
0.00135985
0.00136034
0.00136029
0.00136023
0.00135996
0.00136023
0.00136039
0.00136022
0.00136006
0.00135949
0.00135957
0.00135968
0.00135953
0.00135933
0.00135893
0.00135941
0.00135981
0.00135969
0.00135954
0.0013591
0.001359
0.00135886
0.00135922
0.00135944
0.0013593
0.001359
0.00135884
0.00135887
0.00135835
0.00118194
0.0012217
0.0012635
0.00130203
0.00133163
0.00134836
0.00135643
0.00135833
0.00135839
0.00135811
0.00135743
0.00135731
0.00135725
0.00135683
0.00135617
0.00135612
0.00135647
0.00135606
0.00135554
0.00135513
0.00135499
0.00135472
0.00135445
0.00135471
0.00135495
0.00135454
0.00135496
0.0013557
0.00135583
0.00135625
0.00135662
0.00135711
0.0013572
0.00135796
0.00135875
0.00135922
0.00135987
0.0013605
0.00136112
0.0013615
0.00136184
0.00136199
0.0013622
0.00136242
0.00136262
0.0013627
0.00136256
0.00136192
0.00136162
0.001361
0.0013605
0.00136085
0.00136106
0.00136084
0.00136028
0.00136011
0.00136052
0.00136034
0.0013607
0.00136195
0.00136188
0.00136162
0.00136098
0.00136096
0.00136105
0.0013604
0.00136057
0.00136089
0.00136072
0.00136066
0.00136063
0.00136055
0.00136005
0.00135984
0.00135969
0.00135952
0.00135912
0.00135925
0.00135939
0.00135924
0.00135892
0.00135884
0.00135963
0.00135974
0.00135961
0.00135908
0.00135917
0.00135933
0.00135919
0.00135873
0.00118195
0.00122152
0.00126371
0.00130235
0.0013307
0.00134833
0.00135755
0.00136024
0.00136024
0.00135991
0.00135922
0.00135911
0.00135923
0.00135861
0.00135832
0.00135814
0.00135777
0.0013574
0.00135682
0.00135618
0.00135611
0.00135614
0.00135581
0.00135523
0.00135508
0.00135549
0.0013556
0.00135592
0.00135643
0.00135688
0.00135739
0.00135797
0.00135855
0.00135929
0.00135993
0.00136057
0.00136116
0.00136161
0.00136199
0.00136233
0.0013626
0.00136262
0.00136208
0.00136174
0.00136158
0.00136154
0.00136148
0.00136142
0.00136121
0.00136068
0.00136023
0.00136046
0.00136066
0.00136048
0.00136011
0.00135991
0.00136083
0.00136121
0.00136104
0.00136092
0.00136067
0.00136022
0.00135996
0.00136028
0.00136032
0.00136004
0.00136001
0.0013601
0.00136014
0.00135997
0.00135975
0.00135937
0.0013592
0.00135971
0.00135995
0.00135982
0.00135966
0.00135944
0.00135931
0.00135897
0.00135918
0.00135965
0.00135967
0.00135953
0.00135921
0.00135919
0.0013592
0.00135924
0.00135906
0.00135841
0.00118196
0.00122151
0.00126362
0.00130247
0.00133061
0.00134847
0.0013577
0.00135994
0.00135955
0.00135965
0.00135975
0.00135943
0.0013591
0.00135809
0.00135776
0.00135775
0.00135716
0.00135664
0.00135651
0.00135637
0.00135574
0.00135574
0.00135602
0.00135538
0.00135556
0.00135613
0.00135624
0.00135649
0.0013568
0.00135731
0.00135776
0.00135837
0.00135891
0.00135964
0.00136034
0.001361
0.00136157
0.001362
0.00136212
0.00136213
0.00136229
0.00136234
0.00136219
0.00136215
0.00136212
0.001362
0.00136159
0.00136083
0.00136099
0.00136166
0.00136157
0.00136151
0.00136137
0.00136111
0.0013606
0.00136089
0.00136128
0.00136057
0.00136051
0.00136089
0.00136041
0.00136051
0.00136107
0.00136105
0.00136085
0.00136051
0.00136041
0.00136027
0.00136013
0.0013595
0.00135949
0.00136031
0.00136059
0.00136048
0.00136035
0.00136032
0.0013602
0.00136004
0.00135975
0.00135967
0.0013595
0.00135913
0.00135887
0.0013593
0.00135955
0.0013594
0.0013591
0.00135882
0.00135876
0.00135833
0.00118197
0.00122147
0.0012638
0.00130221
0.00133072
0.00134858
0.0013572
0.00135971
0.00135964
0.00135905
0.0013588
0.00135877
0.00135837
0.00135803
0.00135773
0.00135737
0.0013569
0.00135649
0.00135596
0.001356
0.00135605
0.00135565
0.00135504
0.00135494
0.00135526
0.00135507
0.00135516
0.00135539
0.00135583
0.00135639
0.00135701
0.00135766
0.00135832
0.00135897
0.00135962
0.0013598
0.00135967
0.00136029
0.00136108
0.00136166
0.00136215
0.00136245
0.00136274
0.00136288
0.00136302
0.00136301
0.0013629
0.00136256
0.00136166
0.00136083
0.001361
0.00136121
0.0013611
0.00136097
0.00136036
0.0013601
0.00136086
0.00136125
0.00136064
0.00136063
0.00136097
0.00136044
0.0013605
0.00136116
0.00136107
0.00136081
0.00136013
0.00136014
0.00136027
0.00135957
0.00135964
0.00135998
0.00135932
0.00135928
0.00135988
0.00135989
0.0013597
0.00135926
0.00135911
0.00135963
0.0013599
0.00135973
0.0013597
0.00135963
0.00135936
0.00135887
0.0013589
0.00135899
0.00135883
0.00135827
0.00118182
0.00122176
0.00126359
0.00130213
0.00133099
0.00134876
0.00135686
0.00135857
0.00135844
0.00135791
0.0013577
0.00135769
0.00135728
0.00135692
0.00135645
0.00135601
0.00135524
0.00135516
0.00135552
0.00135499
0.00135463
0.00135412
0.00135423
0.00135533
0.00135561
0.00135539
0.00135576
0.00135611
0.00135624
0.00135676
0.00135738
0.001358
0.00135871
0.00135955
0.0013603
0.00136109
0.0013616
0.00136202
0.0013624
0.00136271
0.00136276
0.00136286
0.00136284
0.00136262
0.00136245
0.00136184
0.00136145
0.00136113
0.00136099
0.0013609
0.00136037
0.0013603
0.00136181
0.00136248
0.00136197
0.0013619
0.00136262
0.00136272
0.00136256
0.00136243
0.00136207
0.00136195
0.00136167
0.001361
0.00136105
0.00136123
0.00136113
0.00136104
0.00136067
0.00136058
0.00136028
0.0013605
0.00136066
0.00136046
0.00136012
0.00135979
0.00135966
0.00135955
0.00135957
0.00135952
0.00135943
0.00135947
0.00135946
0.00135913
0.00135909
0.00135906
0.0013589
0.0013588
0.00135864
0.0013581
0.00118198
0.00122152
0.00126352
0.0013022
0.00133143
0.00134882
0.00135556
0.0013564
0.00135619
0.00135659
0.00135722
0.00135692
0.00135654
0.00135575
0.00135512
0.00135522
0.0013553
0.0013548
0.00135425
0.00135376
0.00135437
0.00135559
0.00135504
0.00135523
0.00135553
0.00135551
0.00135572
0.00135585
0.00135622
0.00135678
0.00135756
0.0013583
0.00135904
0.00135974
0.00136041
0.00136064
0.00136063
0.00136108
0.00136157
0.00136199
0.00136235
0.00136264
0.00136284
0.00136293
0.00136279
0.00136212
0.00136177
0.00136162
0.00136124
0.00136141
0.0013616
0.00136129
0.0013612
0.00136111
0.00136092
0.00136031
0.00135995
0.00135997
0.00136007
0.00135982
0.00135927
0.00135939
0.00135952
0.00135935
0.00135924
0.00135874
0.00135896
0.0013591
0.00135901
0.00135889
0.00135901
0.00135945
0.00135967
0.00136005
0.00136001
0.00135996
0.00135962
0.00135932
0.00135923
0.00135902
0.00135932
0.00135962
0.0013595
0.0013593
0.00135911
0.00135895
0.00135838
0.00135829
0.00135858
0.0013582
0.001182
0.00122137
0.00126389
0.00130205
0.00133083
0.00134879
0.0013572
0.00135908
0.00135896
0.00135872
0.00135817
0.00135764
0.00135762
0.00135764
0.00135742
0.00135699
0.00135646
0.00135593
0.00135539
0.00135479
0.00135451
0.0013549
0.00135465
0.00135484
0.00135527
0.00135503
0.00135521
0.00135553
0.00135614
0.00135676
0.00135737
0.00135798
0.00135866
0.00135923
0.00135991
0.00136063
0.00136112
0.00136168
0.00136217
0.00136261
0.00136287
0.0013631
0.00136319
0.00136325
0.00136328
0.00136311
0.00136257
0.00136172
0.00136131
0.00136134
0.00136127
0.00136103
0.00136056
0.00136097
0.00136223
0.00136207
0.00136174
0.00136168
0.00136207
0.0013618
0.00136184
0.00136175
0.0013612
0.00136131
0.00136167
0.0013615
0.00136141
0.00136123
0.00136111
0.00136067
0.00136049
0.00135993
0.00135986
0.00136031
0.00136006
0.00136038
0.00136078
0.00136022
0.00136041
0.00136093
0.00136086
0.00136074
0.00136061
0.00136035
0.00136012
0.00135994
0.00135959
0.0013595
0.00135929
0.00135853
0.00118197
0.00122147
0.00126369
0.00130235
0.00133058
0.00134875
0.00135729
0.00135909
0.00135947
0.00135952
0.00135867
0.00135853
0.00135839
0.00135793
0.00135746
0.00135674
0.00135668
0.00135647
0.0013557
0.00135551
0.00135574
0.00135539
0.00135506
0.00135514
0.00135569
0.00135527
0.00135572
0.00135623
0.00135643
0.00135707
0.00135779
0.00135863
0.00135943
0.00136023
0.0013609
0.00136122
0.0013616
0.00136203
0.00136224
0.00136174
0.00136173
0.001362
0.00136206
0.00136233
0.00136251
0.00136247
0.00136221
0.00136178
0.00136197
0.00136217
0.00136202
0.00136186
0.00136113
0.0013612
0.00136243
0.00136312
0.00136292
0.00136233
0.00136247
0.00136262
0.00136238
0.00136207
0.00136168
0.00136159
0.00136138
0.0013613
0.00136121
0.00136106
0.00136076
0.00136061
0.00136032
0.0013606
0.00136102
0.00136041
0.00136057
0.00136104
0.001361
0.00136094
0.00136017
0.00136023
0.00136041
0.00135981
0.00135999
0.00136022
0.0013602
0.00136017
0.00135964
0.00135958
0.00135939
0.00135868
0.00118202
0.0012215
0.00126334
0.00130255
0.0013312
0.00134857
0.00135605
0.0013575
0.00135733
0.00135673
0.00135659
0.00135659
0.00135615
0.00135553
0.00135505
0.00135541
0.00135502
0.00135485
0.00135577
0.00135574
0.00135557
0.00135541
0.00135509
0.00135493
0.00135484
0.00135478
0.00135458
0.00135516
0.00135592
0.00135631
0.001357
0.00135783
0.00135862
0.00135935
0.00136035
0.0013612
0.00136192
0.00136241
0.00136232
0.00136218
0.00136229
0.00136186
0.00136181
0.00136195
0.001362
0.00136207
0.00136182
0.00136195
0.00136197
0.00136174
0.00136172
0.00136148
0.00136096
0.0013609
0.00136079
0.00136028
0.00136001
0.00135999
0.00135978
0.00136003
0.00136019
0.00136001
0.00135977
0.00135963
0.0013603
0.00136036
0.00136041
0.00136038
0.00136016
0.00135958
0.00135951
0.00135981
0.00135971
0.0013597
0.0013598
0.00135976
0.00135962
0.00135949
0.00135915
0.0013594
0.00135952
0.00135947
0.00135943
0.00135892
0.00135874
0.00135916
0.00135951
0.00135947
0.00135942
0.00135872
0.00118189
0.00122161
0.00126368
0.00130201
0.00133118
0.00134862
0.00135687
0.00135867
0.00135866
0.0013584
0.00135785
0.00135751
0.00135714
0.00135712
0.00135694
0.00135632
0.00135585
0.00135503
0.00135485
0.00135506
0.00135451
0.00135421
0.00135379
0.00135404
0.00135428
0.00135394
0.00135445
0.00135552
0.00135606
0.00135671
0.00135738
0.00135815
0.00135859
0.00135929
0.00135999
0.00136066
0.00136132
0.0013619
0.00136242
0.00136284
0.00136295
0.00136304
0.00136313
0.00136313
0.00136279
0.00136235
0.00136191
0.0013617
0.00136152
0.00136125
0.00136058
0.00136065
0.00136137
0.00136128
0.00136102
0.00136069
0.00136042
0.00136002
0.00135942
0.00135939
0.00135965
0.00135982
0.00135994
0.00135932
0.00135939
0.00135992
0.00135994
0.00135975
0.0013595
0.00135899
0.001359
0.00135928
0.00135871
0.00135887
0.00135932
0.001359
0.00135868
0.0013589
0.00135929
0.00135914
0.0013588
0.00135859
0.00135889
0.00135886
0.0013589
0.00135937
0.00135957
0.00135953
0.00135948
0.00135852
0.00118199
0.00122141
0.00126382
0.00130212
0.00133076
0.0013488
0.00135716
0.00135882
0.00135835
0.0013583
0.00135866
0.00135801
0.00135758
0.00135782
0.0013577
0.00135692
0.00135678
0.00135671
0.00135576
0.00135561
0.00135553
0.00135465
0.00135448
0.00135492
0.00135472
0.00135513
0.00135567
0.00135576
0.00135636
0.00135719
0.00135786
0.0013586
0.00135939
0.00136013
0.00136077
0.00136099
0.00136126
0.00136172
0.00136206
0.00136238
0.00136268
0.0013629
0.00136311
0.00136325
0.0013633
0.00136324
0.00136296
0.00136223
0.00136125
0.00136115
0.00136135
0.00136114
0.00136072
0.00136045
0.00136087
0.0013609
0.00136058
0.00135999
0.00135963
0.00135981
0.00135995
0.00135974
0.00135938
0.00135938
0.00135926
0.00135961
0.00135996
0.00135983
0.00135976
0.00135954
0.00135943
0.0013593
0.00135875
0.00135864
0.00135954
0.00135978
0.00135961
0.00135916
0.00135929
0.00135951
0.00135949
0.00135946
0.00135884
0.00135863
0.00135907
0.00135924
0.00135907
0.00135908
0.00135899
0.00135835
0.00118196
0.00122151
0.00126361
0.00130245
0.00133057
0.00134846
0.00135756
0.00136004
0.00135995
0.00135962
0.00135919
0.00135875
0.00135795
0.00135775
0.0013579
0.00135708
0.00135648
0.00135639
0.00135619
0.00135545
0.00135537
0.0013555
0.00135473
0.00135469
0.00135526
0.00135514
0.00135554
0.00135594
0.00135626
0.00135688
0.00135763
0.00135841
0.00135924
0.00136009
0.00136086
0.0013614
0.00136182
0.00136214
0.00136252
0.00136289
0.00136319
0.00136344
0.00136354
0.00136364
0.00136356
0.0013631
0.00136289
0.00136237
0.00136213
0.00136197
0.00136172
0.00136127
0.0013609
0.00136178
0.00136257
0.00136275
0.00136316
0.00136299
0.00136274
0.00136252
0.00136225
0.00136168
0.00136182
0.00136196
0.0013615
0.00136144
0.00136135
0.00136127
0.00136103
0.00136085
0.00136058
0.00136043
0.00136012
0.00136017
0.00136017
0.00135989
0.00135983
0.00135972
0.00135952
0.0013598
0.00136001
0.00135995
0.00135991
0.00135929
0.00135945
0.00135982
0.00135973
0.0013597
0.00135959
0.00135885
0.00118197
0.00122147
0.00126369
0.00130235
0.00133058
0.00134875
0.0013573
0.0013591
0.00135949
0.00135953
0.00135865
0.00135847
0.00135851
0.00135797
0.00135754
0.00135684
0.00135664
0.00135649
0.00135586
0.00135547
0.00135493
0.00135484
0.00135536
0.00135482
0.00135494
0.00135578
0.00135604
0.00135628
0.00135669
0.00135716
0.0013578
0.0013586
0.00135921
0.00135992
0.00136061
0.00136105
0.00136156
0.00136204
0.00136228
0.00136177
0.00136175
0.00136198
0.00136236
0.00136262
0.00136276
0.0013627
0.00136219
0.00136178
0.001362
0.00136217
0.00136199
0.00136182
0.00136114
0.00136143
0.00136232
0.00136178
0.00136169
0.00136245
0.00136249
0.00136229
0.00136215
0.00136185
0.0013616
0.00136091
0.00136061
0.00136074
0.00136065
0.00136078
0.0013608
0.00136059
0.00136005
0.00136002
0.00136041
0.00136003
0.00136028
0.00136053
0.00136008
0.00136021
0.00136023
0.00136012
0.0013601
0.00135987
0.00135934
0.00135891
0.00135888
0.00135873
0.0013591
0.00135948
0.00135933
0.00135874
0.001182
0.00122137
0.0012639
0.00130204
0.00133083
0.00134886
0.00135696
0.00135921
0.0013591
0.00135857
0.00135848
0.0013584
0.00135783
0.00135722
0.00135705
0.00135725
0.0013566
0.00135625
0.00135584
0.00135511
0.00135487
0.00135536
0.00135531
0.00135508
0.00135486
0.00135481
0.00135498
0.00135514
0.0013554
0.00135631
0.00135712
0.00135784
0.00135864
0.00135949
0.00136039
0.00136127
0.001362
0.00136264
0.0013631
0.00136305
0.00136288
0.00136294
0.00136296
0.00136298
0.001363
0.00136283
0.00136232
0.00136135
0.00136137
0.00136168
0.00136157
0.00136144
0.00136081
0.00136122
0.00136234
0.00136232
0.00136212
0.00136171
0.00136212
0.00136243
0.00136227
0.00136212
0.00136141
0.00136146
0.00136162
0.00136139
0.00136128
0.00136112
0.00136103
0.0013608
0.00136035
0.00136052
0.00136077
0.00136062
0.00136056
0.00136051
0.00136044
0.00135988
0.00135957
0.00135997
0.00136039
0.00136034
0.00136038
0.00136026
0.00136015
0.00135997
0.00135955
0.00135944
0.00135925
0.00135861
0.001182
0.00122149
0.00126354
0.00130225
0.00133134
0.00134866
0.00135604
0.00135726
0.00135712
0.00135677
0.00135675
0.00135713
0.00135664
0.00135629
0.00135587
0.0013551
0.00135466
0.00135498
0.00135469
0.00135407
0.00135386
0.00135485
0.00135521
0.00135497
0.00135456
0.00135477
0.0013552
0.00135487
0.00135549
0.00135639
0.00135702
0.0013578
0.00135859
0.0013595
0.00136029
0.00136099
0.00136131
0.00136193
0.00136227
0.00136208
0.00136203
0.00136224
0.00136237
0.00136204
0.00136222
0.0013624
0.00136182
0.00136199
0.00136218
0.00136148
0.00136135
0.00136162
0.00136149
0.00136136
0.0013612
0.00136125
0.00136117
0.00136088
0.00136047
0.00135974
0.00135991
0.00136033
0.00136023
0.00136012
0.00135946
0.00135965
0.0013602
0.00135985
0.00136001
0.00136002
0.00135987
0.00135979
0.00135925
0.00135935
0.00135997
0.00135949