/*--------------------------------*- C++ -*----------------------------------*\
  =========                 |
  \\      /  F ield         | OpenFOAM: The Open Source CFD Toolbox
   \\    /   O peration     | Website:  https://openfoam.org
    \\  /    A nd           | Version:  11
     \\/     M anipulation  |
\*---------------------------------------------------------------------------*/
FoamFile
{
    format      ascii;
    class       volScalarField;
    location    "0.08";
    object      omega;
}
// * * * * * * * * * * * * * * * * * * * * * * * * * * * * * * * * * * * * * //

dimensions      [0 0 -1 0 0 0 0];

internalField   nonuniform List<scalar> 
287084
(
54.9996
55.9162
56.8711
57.7118
58.3097
58.6411
58.7563
58.7671
58.7657
58.7641
58.7624
58.7581
58.7655
58.777
58.7762
58.7769
58.7758
58.7747
58.7695
58.7642
58.7638
58.7633
58.7719
58.7895
58.7884
58.7862
58.7794
58.7738
58.7769
58.7785
58.7837
58.7873
58.7804
58.783
58.7834
58.7801
58.7737
58.7703
58.7673
58.7633
58.7545
58.7512
58.7446
58.7422
58.7399
58.7402
58.74
58.7326
58.7308
58.7237
58.7184
58.7291
58.7429
58.7422
58.7429
58.7363
58.7342
58.7322
58.7194
58.7207
58.7303
58.7304
58.7304
58.7227
58.7333
58.7451
58.7454
58.7454
58.734
58.7382
58.7432
58.7416
58.7413
58.7326
58.7381
58.7476
58.7426
58.7463
58.7475
58.7465
58.7461
58.7346
58.7374
58.7526
58.7537
58.7545
58.7511
58.7484
58.7438
58.7284
55.0018
55.9148
56.8569
57.6959
58.2998
58.6432
58.7663
58.7759
58.7715
58.784
58.7978
58.7905
58.7955
58.7979
58.7967
58.796
58.7852
58.7793
58.7823
58.7835
58.776
58.776
58.7999
58.8144
58.8112
58.8133
58.8141
58.8119
58.8096
58.8053
58.8007
58.7865
58.7887
58.7938
58.7827
58.786
58.7871
58.7832
58.7735
58.7704
58.7782
58.7802
58.7777
58.7707
58.7641
58.7616
58.7574
58.7647
58.7739
58.7727
58.7718
58.7637
58.7632
58.7602
58.7526
58.7466
58.7453
58.7483
58.7482
58.7477
58.7373
58.738
58.7569
58.7592
58.7568
58.7483
58.7457
58.7588
58.7641
58.7616
58.7534
58.7561
58.769
58.7669
58.7678
58.7662
58.7638
58.7625
58.7623
58.7533
58.7572
58.7612
58.7595
58.7546
58.7546
58.7619
58.757
58.7571
58.7566
58.7454
55.0022
55.9141
56.8551
57.6973
58.2929
58.6357
58.7784
58.8
58.7968
58.797
58.7966
58.7877
58.7905
58.7939
58.7924
58.7934
58.7869
58.7968
58.8037
58.8022
58.8018
58.7921
58.7909
58.8105
58.8154
58.8106
58.8101
58.8108
58.8113
58.8085
58.8099
58.8072
58.8054
58.8044
58.8053
58.8027
58.8005
58.7954
58.7815
58.7758
58.7748
58.7648
58.7691
58.7746
58.7732
58.7727
58.7607
58.758
58.7706
58.7751
58.7721
58.7715
58.7695
58.7687
58.7614
58.7567
58.7525
58.7472
58.7483
58.7486
58.7419
58.7477
58.7541
58.7512
58.7515
58.7467
58.7603
58.7707
58.7671
58.7684
58.7684
58.7694
58.7664
58.7588
58.7538
58.7495
58.7475
58.7445
58.7489
58.7511
58.744
58.7404
58.7485
58.7586
58.7518
58.7579
58.7615
58.7615
58.7613
58.7438
55.0005
55.9142
56.858
57.6928
58.2874
58.634
58.7806
58.8041
58.803
58.7971
58.7994
58.8088
58.8075
58.8052
58.7916
58.7905
58.7983
58.7933
58.7999
58.8063
58.7984
58.7983
58.7981
58.7895
58.7932
58.7977
58.7963
58.7958
58.7826
58.7852
58.8039
58.8058
58.8032
58.8044
58.8049
58.8037
58.8036
58.8004
58.7955
58.789
58.786
58.7831
58.7805
58.7768
58.7733
58.7624
58.7655
58.7692
58.7662
58.7605
58.754
58.7587
58.7618
58.7583
58.7581
58.7584
58.7583
58.7529
58.7453
58.7549
58.7655
58.7617
58.7614
58.7605
58.7523
58.7475
58.7519
58.7468
58.7468
58.7614
58.7681
58.7638
58.7638
58.7636
58.7603
58.7514
58.7572
58.7723
58.7665
58.7687
58.7725
58.7701
58.76
58.763
58.7679
58.765
58.7584
58.7559
58.7567
58.7449
55.0001
55.9147
56.8585
57.6873
58.2924
58.636
58.7619
58.799
58.7998
58.7978
58.7967
58.7909
58.7966
58.7989
58.7974
58.7986
58.7951
58.7829
58.7864
58.7917
58.7893
58.789
58.7828
58.7936
58.8021
58.7966
58.7966
58.7973
58.7939
58.7972
58.8014
58.7971
58.7972
58.7975
58.7986
58.7944
58.7793
58.7785
58.7911
58.793
58.7929
58.7913
58.791
58.7885
58.7881
58.7856
58.7836
58.7813
58.7809
58.778
58.7664
58.7612
58.7582
58.7521
58.7493
58.7464
58.7455
58.7364
58.7408
58.7499
58.7479
58.7477
58.7406
58.7403
58.7395
58.7398
58.734
58.7401
58.7502
58.7454
58.7453
58.7423
58.7547
58.771
58.765
58.7705
58.7729
58.7661
58.7676
58.7711
58.7703
58.771
58.7704
58.7651
58.7494
58.7507
58.7592
58.7596
58.7595
58.7457
55.0004
55.9137
56.8555
57.6932
58.2966
58.6234
58.7446
58.7712
58.795
58.7968
58.7917
58.7921
58.793
58.7919
58.7815
58.7758
58.7826
58.7952
58.794
58.793
58.7934
58.7907
58.7814
58.784
58.7934
58.7913
58.7856
58.7906
58.804
58.8027
58.8018
58.8025
58.8031
58.799
58.7894
58.7834
58.782
58.7732
58.7776
58.7839
58.7774
58.7788
58.7818
58.7793
58.7773
58.775
58.7629
58.7554
58.759
58.764
58.7627
58.7624
58.7543
58.7528
58.7603
58.7641
58.7623
58.7614
58.7537
58.753
58.7589
58.7581
58.7582
58.7562
58.7549
58.7458
58.753
58.767
58.7615
58.7661
58.768
58.7662
58.7649
58.7552
58.7532
58.75
58.7568
58.7671
58.7616
58.7643
58.7651
58.7626
58.7514
58.7524
58.7623
58.7599
58.763
58.7641
58.7609
58.7486
54.9992
55.9134
56.8566
57.6919
58.2986
58.6168
58.7584
58.7866
58.7844
58.7842
58.7835
58.7738
58.7746
58.7965
58.7946
58.7949
58.815
58.8278
58.8228
58.8229
58.8283
58.8291
58.8254
58.813
58.8131
58.8197
58.8186
58.8187
58.8165
58.8164
58.811
58.8091
58.8054
58.7935
58.7959
58.7988
58.7971
58.7961
58.7808
58.7837
58.7895
58.787
58.7831
58.7733
58.7742
58.7765
58.7746
58.7738
58.7706
58.7689
58.7651
58.7526
58.7553
58.7595
58.7569
58.7567
58.7525
58.7518
58.7459
58.7534
58.7598
58.7592
58.7591
58.7532
58.7521
58.7434
58.7484
58.7557
58.7538
58.7509
58.7456
58.7495
58.7544
58.7526
58.7478
58.7538
58.7618
58.7593
58.7599
58.759
58.7492
58.7504
58.7623
58.7628
58.7606
58.7554
58.7508
58.7565
58.7597
58.7498
55.0005
55.9114
56.8625
57.6901
58.2774
58.6293
58.7887
58.8332
58.8377
58.8355
58.8252
58.8308
58.8362
58.8333
58.832
58.8312
58.8329
58.8335
58.8331
58.8195
58.8218
58.8299
58.8222
58.8256
58.8299
58.8289
58.828
58.8263
58.8251
58.8255
58.8219
58.8204
58.8203
58.8206
58.8187
58.8157
58.8097
58.796
58.7855
58.7929
58.7974
58.7954
58.7938
58.7896
58.7868
58.7782
58.7792
58.7819
58.7783
58.7784
58.7768
58.7628
58.7609
58.7737
58.7759
58.773
58.7629
58.7673
58.7739
58.7709
58.7727
58.7733
58.7742
58.7724
58.7703
58.7657
58.7549
58.7471
58.7485
58.7456
58.7519
58.7651
58.7654
58.7653
58.7593
58.7529
58.7618
58.7725
58.7725
58.7725
58.7706
58.7694
58.7544
58.7581
58.7683
58.7676
58.7678
58.7638
58.7597
58.7462
55.0001
55.9127
56.8567
57.6946
58.2878
58.6259
58.7645
58.7882
58.7872
58.7848
58.7734
58.7721
58.7982
58.8136
58.8052
58.8101
58.8127
58.8042
58.8116
58.8293
58.8218
58.8275
58.8307
58.8179
58.8223
58.8309
58.8232
58.827
58.8315
58.8288
58.8297
58.8303
58.8296
58.8223
58.8136
58.8093
58.8033
58.8004
58.7951
58.7828
58.7748
58.7755
58.7761
58.7727
58.778
58.7832
58.7736
58.7791
58.783
58.7827
58.7827
58.7765
58.7763
58.7747
58.7722
58.763
58.7485
58.7523
58.7593
58.7579
58.7573
58.7474
58.7549
58.7629
58.7598
58.7593
58.7572
58.7566
58.7456
58.7505
58.772
58.7729
58.7712
58.7722
58.7694
58.7632
58.7529
58.7598
58.7755
58.7685
58.7744
58.7779
58.776
58.7748
58.7667
58.7641
58.7588
58.7566
58.7537
58.7443
55.0033
55.9055
56.8607
57.6958
58.2873
58.6253
58.7563
58.7736
58.7651
58.7642
58.7835
58.796
58.7948
58.7931
58.7839
58.7865
58.7874
58.7945
58.8037
58.8014
58.7955
58.7925
58.7963
58.7931
58.7995
58.8024
58.8006
58.7956
58.7995
58.8111
58.8049
58.8051
58.8042
58.7991
58.7957
58.7942
58.7882
58.7863
58.7875
58.7885
58.7843
58.7853
58.7854
58.785
58.7827
58.772
58.7572
58.7528
58.7506
58.7495
58.7411
58.7426
58.748
58.7464
58.7445
58.7354
58.7361
58.7367
58.7293
58.7331
58.7556
58.7594
58.756
58.7557
58.7558
58.7537
58.7391
58.7365
58.7508
58.7542
58.7539
58.7538
58.747
58.7422
58.7447
58.746
58.739
58.7434
58.7629
58.7636
58.7609
58.756
58.7498
58.7603
58.7709
58.7679
58.7681
58.7688
58.7677
58.7504
55.0014
55.9113
56.858
57.691
58.2892
58.6307
58.7619
58.7791
58.7706
58.7763
58.7871
58.7861
58.7829
58.7813
58.788
58.7811
58.7805
58.7918
58.7927
58.8005
58.8241
58.8244
58.8216
58.8087
58.8093
58.8162
58.8031
58.8062
58.8131
58.8125
58.8121
58.7984
58.8021
58.8109
58.804
58.8074
58.8079
58.8045
58.805
58.8057
58.8058
58.8018
58.7902
58.7834
58.7772
58.7648
58.7479
58.751
58.7605
58.7584
58.7509
58.7539
58.7591
58.7563
58.75
58.7463
58.7458
58.7459
58.7456
58.742
58.751
58.7552
58.7523
58.7427
58.7452
58.7562
58.7551
58.7528
58.7407
58.7414
58.7495
58.7495
58.7451
58.7497
58.7596
58.7578
58.7555
58.7476
58.7445
58.7541
58.7587
58.7513
58.7569
58.7688
58.767
58.7634
58.7583
58.7565
58.7562
58.7494
54.9992
55.914
56.8568
57.6921
58.2897
58.624
58.77
58.7995
58.7996
58.7996
58.7955
58.7892
58.7933
58.818
58.8189
58.8155
58.8158
58.816
58.8147
58.81
58.815
58.8238
58.8261
58.8236
58.8145
58.8197
58.8323
58.8275
58.8271
58.8283
58.83
58.8256
58.824
58.8233
58.8211
58.819
58.8185
58.817
58.8126
58.803
58.7942
58.7873
58.7801
58.7635
58.751
58.751
58.7558
58.7538
58.7478
58.7461
58.7393
58.7426
58.7581
58.7556
58.7603
58.7618
58.7587
58.7597
58.7607
58.7608
58.759
58.7547
58.7443
58.7373
58.752
58.7619
58.762
58.762
58.7486
58.7516
58.7651
58.766
58.7653
58.7523
58.755
58.7627
58.7632
58.7631
58.7479
58.7505
58.76
58.7603
58.7607
58.754
58.7613
58.7686
58.7663
58.7662
58.7627
58.7472
55.0009
55.9102
56.8646
57.6872
58.2781
58.6321
58.7861
58.8123
58.8031
58.8055
58.8166
58.8163
58.8177
58.8153
58.8068
58.807
58.8283
58.8349
58.8323
58.8267
58.8219
58.8298
58.8331
58.8261
58.8316
58.8421
58.831
58.8365
58.841
58.8358
58.8367
58.8367
58.8369
58.8331
58.825
58.8094
58.8037
58.8016
58.7992
58.7958
58.7868
58.7833
58.7812
58.7781
58.7722
58.7637
58.7613
58.7593
58.7678
58.7726
58.7676
58.7675
58.7681
58.7682
58.7633
58.7556
58.7568
58.7577
58.755
58.7469
58.7503
58.7624
58.7566
58.7623
58.7654
58.7633
58.7615
58.7543
58.7522
58.7455
58.7501
58.7644
58.7635
58.7621
58.7541
58.7484
58.7606
58.7695
58.7677
58.7649
58.7567
58.7591
58.7658
58.7644
58.7616
58.7538
58.7546
58.758
58.7562
58.7492
55.0013
55.9113
56.8546
57.6952
58.2972
58.6165
58.7547
58.7779
58.7652
58.7683
58.7776
58.766
58.7712
58.7798
58.7732
58.7697
58.776
58.7796
58.786
58.8019
58.8013
58.7975
58.7965
58.809
58.8238
58.8288
58.8165
58.8215
58.8287
58.826
58.8277
58.8266
58.8243
58.822
58.8179
58.8113
58.8048
58.788
58.7841
58.7849
58.7772
58.7787
58.7839
58.7829
58.7833
58.7816
58.7672
58.7651
58.7745
58.776
58.7742
58.7738
58.7697
58.755
58.7556
58.7566
58.7539
58.746
58.746
58.7578
58.7585
58.756
58.7436
58.746
58.7529
58.7499
58.7497
58.7433
58.7424
58.7417
58.7514
58.7661
58.7657
58.7632
58.7593
58.7564
58.7463
58.7435
58.7518
58.7498
58.7513
58.7691
58.7783
58.7787
58.7787
58.7705
58.7645
58.7671
58.7683
58.758
55.0005
55.9115
56.862
57.691
58.2754
58.6291
58.7923
58.8234
58.8146
58.8178
58.8285
58.8174
58.8198
58.8292
58.8233
58.8239
58.8239
58.8209
58.8176
58.8191
58.817
58.8223
58.8365
58.8364
58.8347
58.8416
58.8449
58.8354
58.8397
58.841
58.8348
58.8367
58.8368
58.8352
58.8356
58.8332
58.8291
58.8239
58.813
58.8042
58.7978
58.788
58.7657
58.7569
58.7578
58.7578
58.7576
58.7555
58.7554
58.7538
58.7506
58.748
58.7402
58.7448
58.7572
58.7519
58.755
58.7595
58.7586
58.7581
58.7481
58.7506
58.764
58.7637
58.7615
58.7577
58.7667
58.7707
58.7678
58.7623
58.7541
58.7583
58.7614
58.7583
58.7522
58.7472
58.7611
58.7689
58.7663
58.7607
58.7543
58.7555
58.7528
58.7603
58.7645
58.7618
58.7529
58.7518
58.7555
58.7439
55.0002
55.9167
56.8556
57.6871
58.2947
58.619
58.7685
58.7975
58.7978
58.7979
58.7896
58.7922
58.7967
58.7944
58.787
58.7947
58.8091
58.8076
58.8006
58.8
58.8061
58.8023
58.801
58.811
58.8163
58.8078
58.8146
58.825
58.8194
58.8185
58.815
58.8136
58.8029
58.8044
58.8063
58.8031
58.8035
58.8014
58.7996
58.7965
58.7941
58.7921
58.7922
58.7921
58.7925
58.7885
58.7801
58.7651
58.7584
58.745
58.7385
58.7499
58.755
58.752
58.7416
58.7421
58.7548
58.7516
58.7628
58.7891
58.7895
58.786
58.7739
58.776
58.7794
58.7677
58.7735
58.7813
58.7806
58.781
58.7792
58.7778
58.7669
58.7623
58.7602
58.7599
58.7536
58.7569
58.76
58.7565
58.7504
58.7517
58.7693
58.7704
58.7694
58.7574
58.7594
58.7628
58.76
58.7511
55.0001
55.9129
56.8613
57.6926
58.2739
58.6218
58.7963
58.8409
58.8416
58.8386
58.8287
58.8332
58.842
58.8367
58.8376
58.8415
58.8412
58.8397
58.8322
58.8272
58.8338
58.8394
58.837
58.8269
58.827
58.8365
58.8349
58.8351
58.8357
58.8361
58.8376
58.837
58.832
58.8303
58.83
58.8278
58.8234
58.8187
58.814
58.81
58.8056
58.7974
58.778
58.766
58.7592
58.7559
58.753
58.7511
58.7468
58.7352
58.7293
58.7379
58.7433
58.7414
58.7357
58.7357
58.7596
58.7673
58.765
58.7649
58.7617
58.7517
58.7505
58.7612
58.7628
58.7601
58.7605
58.7615
58.7627
58.7629
58.7596
58.75
58.75
58.7643
58.769
58.7667
58.7613
58.7571
58.7547
58.7507
58.7578
58.7655
58.7655
58.7655
58.7607
58.7615
58.7597
58.7582
58.7548
58.7438
55.0002
55.9126
56.8595
57.6953
58.2722
58.6255
58.7992
58.8364
58.8288
58.835
58.8417
58.8404
58.8402
58.8263
58.828
58.8364
58.8286
58.8261
58.8326
58.8364
58.831
58.837
58.8469
58.8367
58.8422
58.8533
58.8514
58.8514
58.8496
58.8487
58.8454
58.8451
58.8404
58.8378
58.8358
58.8347
58.8305
58.8231
58.8119
58.8006
58.7941
58.7865
58.7766
58.7709
58.7663
58.761
58.7497
58.7358
58.7424
58.7577
58.7573
58.7552
58.7545
58.7505
58.7431
58.7545
58.7646
58.7518
58.7542
58.7655
58.7564
58.7613
58.773
58.7731
58.7731
58.7672
58.7671
58.7657
58.7628
58.7523
58.7557
58.7745
58.7778
58.7787
58.7768
58.7747
58.7727
58.7709
58.7652
58.7635
58.762
58.7537
58.7504
58.7621
58.7666
58.7635
58.7547
58.7512
58.7528
58.7439
55.0003
55.912
56.8632
57.6897
58.2754
58.6273
58.7882
58.8298
58.8299
58.8226
58.8235
58.8299
58.8283
58.8287
58.8281
58.8279
58.8259
58.8236
58.8229
58.8341
58.8412
58.8389
58.8302
58.8327
58.8414
58.8338
58.8328
58.834
58.8327
58.8306
58.8302
58.83
58.8295
58.8242
58.819
58.8037
58.7872
58.7879
58.7917
58.7901
58.7899
58.7876
58.7875
58.7852
58.7821
58.7792
58.7754
58.7675
58.7473
58.7338
58.7416
58.7475
58.747
58.7468
58.7348
58.7334
58.7563
58.7648
58.7547
58.7577
58.768
58.7583
58.7628
58.7772
58.7774
58.7741
58.7608
58.7634
58.7675
58.7543
58.7579
58.7664
58.7528
58.7545
58.7676
58.7679
58.7653
58.7536
58.7531
58.7675
58.7723
58.7707
58.7712
58.7679
58.759
58.7513
58.753
58.7553
58.752
58.7409
54.9972
55.9185
56.858
57.6888
58.2818
58.6306
58.7792
58.8069
58.8059
58.7983
58.8002
58.8068
58.8033
58.803
58.801
58.8009
58.7947
58.8025
58.8183
58.8133
58.8132
58.8107
58.8197
58.8454
58.8521
58.8477
58.8508
58.8514
58.8465
58.8467
58.8427
58.8401
58.8403
58.8399
58.8348
58.8312
58.8246
58.8179
58.8118
58.8059
58.7962
58.7899
58.7822
58.7722
58.765
58.749
58.7399
58.7359
58.7364
58.7357
58.7252
58.7275
58.7656
58.7789
58.7709
58.7734
58.7915
58.7951
58.7941
58.794
58.7884
58.7862
58.7831
58.7729
58.7771
58.7827
58.782
58.782
58.7748
58.7743
58.7713
58.7774
58.7814
58.7779
58.7687
58.7649
58.7656
58.7643
58.7658
58.7627
58.7615
58.7632
58.7634
58.7581
58.7587
58.756
58.7501
58.7494
58.7466
58.7371
55.0009
55.9127
56.857
57.6912
58.2916
58.6296
58.7477
58.7586
58.758
58.7723
58.7903
58.7893
58.7877
58.7774
58.7741
58.7881
58.7975
58.796
58.7904
58.79
58.8167
58.847
58.8402
58.8477
58.8548
58.8523
58.8502
58.849
58.8496
58.8469
58.8464
58.8453
58.8447
58.84
58.8329
58.8182
58.8006
58.795
58.7912
58.7876
58.7847
58.7823
58.7796
58.7762
58.7694
58.7522
58.7441
58.743
58.7376
58.7433
58.749
58.7462
58.7477
58.7463
58.7435
58.7323
58.7299
58.7345
58.7392
58.7372
58.7278
58.7335
58.7382
58.7364
58.7341
58.7276
58.7356
58.7397
58.7391
58.738
58.7436
58.7517
58.7578
58.7695
58.7691
58.7684
58.7609
58.7537
58.7527
58.7515
58.7606
58.7667
58.7639
58.7576
58.7536
58.7527
58.7421
58.7421
58.7498
58.7409
55.001
55.9098
56.8654
57.6863
58.2788
58.6324
58.788
58.819
58.819
58.818
58.8089
58.8057
58.8149
58.8206
58.824
58.8261
58.8239
58.8219
58.822
58.8173
58.8198
58.8364
58.8357
58.8427
58.8525
58.8471
58.8476
58.8474
58.8482
58.8483
58.8475
58.8402
58.8338
58.8265
58.8218
58.8179
58.8102
58.8059
58.8018
58.7985
58.7931
58.7892
58.7842
58.7807
58.7775
58.7714
58.758
58.7399
58.7358
58.7391
58.7394
58.7374
58.7301
58.7453
58.7743
58.774
58.7698
58.7721
58.7843
58.7807
58.783
58.7834
58.7752
58.7801
58.7896
58.7873
58.7872
58.7849
58.7834
58.7747
58.7722
58.7635
58.7651
58.7773
58.772
58.7796
58.7884
58.7773
58.7829
58.7916
58.7926
58.7901
58.7853
58.7799
58.7755
58.7721
58.7648
58.7631
58.7599
58.7461
55.0004
55.9119
56.8611
57.693
58.273
58.6322
58.7903
58.8175
58.8268
58.8345
58.8227
58.8271
58.8315
58.8292
58.8253
58.8217
58.8318
58.836
58.83
58.8352
58.8482
58.8479
58.8463
58.8521
58.865
58.8543
58.8595
58.8623
58.8576
58.859
58.856
58.8535
58.8513
58.8503
58.8438
58.8291
58.8189
58.8114
58.7997
58.7756
58.7659
58.7631
58.7603
58.7614
58.762
58.7599
58.7503
58.7431
58.75
58.7557
58.754
58.7529
58.7413
58.7485
58.7787
58.7952
58.7952
58.7846
58.7908
58.7964
58.7936
58.7869
58.7835
58.7869
58.7845
58.7852
58.7846
58.7803
58.7737
58.7728
58.7706
58.7796
58.7891
58.7774
58.7824
58.7932
58.7925
58.7913
58.7762
58.7786
58.7831
58.771
58.7758
58.7808
58.7803
58.7799
58.7671
58.7651
58.762
58.7496
55.0018
55.9117
56.8537
57.699
58.286
58.6256
58.7612
58.7844
58.783
58.7745
58.7779
58.7846
58.7831
58.7784
58.779
58.7985
58.7978
58.8046
58.8338
58.8381
58.8423
58.8486
58.848
58.8459
58.8438
58.8433
58.8364
58.8414
58.8465
58.8401
58.8369
58.8365
58.8361
58.8312
58.8306
58.83
58.8279
58.8197
58.8004
58.7845
58.7763
58.7575
58.7532
58.7539
58.749
58.7487
58.7443
58.7466
58.7478
58.7446
58.7442
58.7437
58.7374
58.7384
58.7393
58.7304
58.729
58.7348
58.7329
58.7409
58.7461
58.7453
58.7429
58.7439
58.7607
58.7613
58.7644
58.7667
58.7643
58.7528
58.7545
58.763
58.7622
58.7624
58.7635
58.7644
58.7619
58.7572
58.7534
58.761
58.7635
58.7627
58.762
58.7499
58.7482
58.76
58.7666
58.7654
58.7639
58.751
54.9986
55.9151
56.8603
57.6864
58.2866
58.6282
58.781
58.8082
58.809
58.8109
58.8064
58.807
58.807
58.8143
58.8185
58.8138
58.8136
58.8073
58.8136
58.8269
58.8243
58.8255
58.8217
58.8305
58.8359
58.828
58.8353
58.8502
58.8501
58.8499
58.8475
58.8447
58.8331
58.8271
58.8217
58.8165
58.8121
58.8074
58.8034
58.7991
58.7901
58.7833
58.7784
58.7731
58.762
58.7504
58.7407
58.737
58.7343
58.7311
58.7213
58.7279
58.7443
58.7462
58.7438
58.7377
58.7366
58.7304
58.7219
58.7259
58.7321
58.7385
58.7459
58.7356
58.7403
58.7516
58.7524
58.7525
58.7481
58.7391
58.7424
58.7498
58.739
58.7442
58.7545
58.7466
58.7415
58.7488
58.7574
58.7548
58.7453
58.7433
58.7541
58.7531
58.7541
58.7637
58.7675
58.7667
58.7654
58.746
55.0008
55.9106
56.864
57.6882
58.2775
58.6331
58.7872
58.8136
58.8056
58.8101
58.8245
58.8144
58.814
58.8307
58.8353
58.8288
58.8358
58.8433
58.8328
58.839
58.8448
58.8336
58.8367
58.8511
58.8473
58.8541
58.8606
58.856
58.857
58.8581
58.8586
58.8559
58.8504
58.8456
58.8383
58.8225
58.8099
58.8031
58.7952
58.7892
58.7848
58.7807
58.7784
58.7763
58.7741
58.7708
58.7638
58.7468
58.7304
58.7326
58.7398
58.7373
58.7285
58.7277
58.7426
58.745
58.7415
58.7291
58.7269
58.7357
58.7407
58.7404
58.7351
58.7387
58.7382
58.7476
58.7561
58.7543
58.7541
58.7531
58.7533
58.7498
58.7388
58.7399
58.7614
58.7652
58.7624
58.7532
58.7576
58.7628
58.7626
58.7624
58.7477
58.7453
58.7572
58.76
58.7585
58.7596
58.7557
58.7423
55.0002
55.9126
56.8595
57.6955
58.2722
58.6264
58.7982
58.8388
58.8389
58.8368
58.8313
58.829
58.8221
58.8277
58.8398
58.8292
58.827
58.8365
58.8408
58.8351
58.8416
58.8511
58.8403
58.8443
58.8586
58.854
58.8569
58.8575
58.8556
58.8558
58.8531
58.849
58.8473
58.8452
58.8414
58.8328
58.8228
58.8126
58.806
58.8009
58.7966
58.793
58.7883
58.7854
58.7802
58.768
58.7629
58.7518
58.7484
58.7469
58.744
58.7369
58.7346
58.7617
58.7772
58.7841
58.7958
58.7972
58.7948
58.7905
58.79
58.7819
58.7879
58.7925
58.7862
58.788
58.7857
58.7832
58.7796
58.7772
58.773
58.772
58.7691
58.7714
58.7723
58.7664
58.7641
58.7638
58.7626
58.7699
58.7742
58.7731
58.7726
58.7606
58.7649
58.773
58.7729
58.7729
58.7685
58.7531
55.0004
55.9119
56.8611
57.693
58.2729
58.6322
58.7904
58.8177
58.8271
58.8347
58.8221
58.826
58.8346
58.8324
58.8325
58.8261
58.8306
58.8366
58.8339
58.8351
58.8309
58.8365
58.8538
58.8446
58.8496
58.8641
58.8656
58.8629
58.8587
58.8583
58.8586
58.8571
58.8477
58.8415
58.8359
58.8257
58.8183
58.8117
58.801
58.7763
58.7661
58.7655
58.7697
58.7678
58.7646
58.763
58.7497
58.7431
58.7509
58.7555
58.7534
58.751
58.7411
58.7532
58.7748
58.7661
58.7685
58.788
58.7903
58.7885
58.7882
58.784
58.7798
58.7665
58.7653
58.7737
58.773
58.7762
58.7778
58.7753
58.7648
58.7672
58.7776
58.7697
58.776
58.7816
58.7738
58.7766
58.7775
58.7754
58.7735
58.769
58.757
58.7511
58.7541
58.7507
58.7587
58.7662
58.763
58.7511
55.0011
55.9097
56.8656
57.6861
58.279
58.6336
58.7828
58.8223
58.8222
58.8145
58.8182
58.8231
58.8171
58.8127
58.8198
58.8329
58.8292
58.8293
58.8296
58.8241
58.8276
58.8441
58.8479
58.8459
58.8428
58.8428
58.8401
58.8334
58.8314
58.8395
58.8406
58.8382
58.8368
58.838
58.8354
58.8324
58.8317
58.8284
58.8217
58.8068
58.7925
58.7853
58.7792
58.7745
58.7715
58.7655
58.7524
58.7348
58.7385
58.7469
58.7458
58.7454
58.7359
58.7505
58.7742
58.7751
58.7764
58.7724
58.7849
58.7932
58.7918
58.7906
58.779
58.7828
58.7882
58.7845
58.7845
58.7854
58.7852
58.7784
58.7707
58.7774
58.7836
58.7832
58.7832
58.7808
58.7797
58.7667
58.7626
58.7743
58.783
58.7818
58.7807
58.7784
58.7764
58.7733
58.7643
58.7639
58.7607
58.7482
55.0013
55.9119
56.8575
57.6921
58.2893
58.627
58.7598
58.7778
58.7758
58.7729
58.7805
58.7951
58.793
58.7941
58.7917
58.7835
58.785
58.8007
58.802
58.7989
58.8029
58.8324
58.8431
58.8411
58.8336
58.8373
58.8421
58.8284
58.8323
58.8387
58.8387
58.8385
58.8351
58.834
58.8314
58.829
58.8173
58.8134
58.8058
58.7882
58.777
58.7732
58.7698
58.7598
58.7607
58.7625
58.7493
58.7531
58.7577
58.7445
58.7452
58.7545
58.7539
58.7541
58.7536
58.7562
58.7569
58.7536
58.7445
58.7339
58.7428
58.7537
58.7534
58.7532
58.742
58.7493
58.7625
58.7574
58.7618
58.7629
58.7608
58.7605
58.7511
58.7555
58.7707
58.7599
58.7639
58.7731
58.7601
58.7635
58.7735
58.7732
58.7728
58.7665
58.7597
58.7651
58.774
58.7726
58.772
58.7559
55.0008
55.916
56.8553
57.6879
58.295
58.6185
58.7672
58.7992
58.799
58.7965
58.7989
58.7995
58.7964
58.7875
58.7876
58.8031
58.8001
58.8073
58.8121
58.8105
58.8056
58.8062
58.8351
58.8442
58.8432
58.8435
58.8392
58.8367
58.8265
58.8286
58.8294
58.8267
58.826
58.8221
58.818
58.8137
58.8049
58.8003
58.7963
58.7912
58.7851
58.7812
58.7772
58.7742
58.7716
58.7682
58.7577
58.7581
58.7592
58.7582
58.7579
58.7492
58.7376
58.7383
58.7405
58.7362
58.7341
58.7391
58.7625
58.7697
58.7694
58.769
58.7569
58.7605
58.7661
58.7643
58.7618
58.7561
58.7562
58.7546
58.7524
58.7615
58.7688
58.7686
58.7685
58.7563
58.7605
58.7704
58.77
58.77
58.768
58.7671
58.7546
58.7582
58.7635
58.7604
58.7524
58.7494
58.7507
58.7402
55.0002
55.9166
56.8556
57.6872
58.2948
58.6193
58.7686
58.7973
58.7864
58.7845
58.7905
58.7952
58.7924
58.7803
58.781
58.8078
58.8167
58.8142
58.8075
58.8039
58.8177
58.8224
58.8216
58.8202
58.8286
58.8376
58.835
58.8343
58.8342
58.8341
58.8295
58.8198
58.8121
58.8086
58.7988
58.7957
58.7971
58.7967
58.7947
58.7941
58.7927
58.7902
58.7872
58.7825
58.768
58.756
58.7512
58.749
58.7444
58.7295
58.7306
58.7437
58.7378
58.7449
58.7725
58.7782
58.7764
58.7722
58.7695
58.7677
58.762
58.7675
58.7726
58.7703
58.7701
58.77
58.7693
58.7585
58.7614
58.7733
58.7726
58.7695
58.7695
58.7683
58.757
58.7559
58.7628
58.7601
58.7636
58.7644
58.76
58.7598
58.7591
58.7597
58.7602
58.7594
58.7468
58.7499
58.7559
58.7432
55.0003
55.9121
56.8607
57.6934
58.2733
58.6283
58.795
58.8316
58.8312
58.8261
58.8235
58.8278
58.8223
58.8289
58.8398
58.8391
58.8393
58.8356
58.8365
58.8331
58.8336
58.8338
58.8282
58.8348
58.8479
58.8358
58.841
58.8472
58.8394
58.8422
58.8423
58.8383
58.8294
58.8221
58.8161
58.8106
58.8067
58.799
58.7956
58.792
58.7887
58.7858
58.7806
58.7743
58.7589
58.75
58.7522
58.7525
58.7509
58.7596
58.7699
58.7653
58.7667
58.7671
58.7658
58.7559
58.7504
58.7539
58.7628
58.7618
58.7588
58.7597
58.7637
58.762
58.7594
58.7519
58.754
58.7614
58.7605
58.7561
58.7582
58.7723
58.772
58.7762
58.7772
58.7752
58.7746
58.7657
58.7656
58.7664
58.765
58.7646
58.7523
58.758
58.7687
58.7678
58.7677
58.7635
58.7594
58.7461
54.9999
55.9134
56.8602
57.695
58.2697
58.6269
58.7936
58.832
58.8397
58.837
58.8251
58.828
58.8374
58.8322
58.832
58.831
58.832
58.8319
58.8402
58.8549
58.8536
58.8551
58.8544
58.8427
58.8457
58.8523
58.8469
58.8458
58.8434
58.8434
58.8436
58.8404
58.8392
58.8357
58.8283
58.8249
58.8188
58.8143
58.8095
58.7992
58.795
58.7923
58.7874
58.7761
58.7709
58.7677
58.7624
58.7594
58.7534
58.7519
58.7476
58.754
58.7632
58.7621
58.7619
58.7546
58.76
58.7684
58.7679
58.7692
58.7666
58.7608
58.7542
58.7538
58.7527
58.7585
58.7719
58.766
58.7737
58.7803
58.7805
58.7805
58.7673
58.7686
58.7828
58.7839
58.7821
58.7828
58.7803
58.7752
58.7728
58.77
58.7699
58.7677
58.7642
58.7531
58.7545
58.7581
58.7549
58.7443
54.9979
55.9167
56.8609
57.686
58.2815
58.6345
58.7747
58.8003
58.7996
58.7986
58.7975
58.788
58.7904
58.7924
58.782
58.7876
58.805
58.8075
58.8055
58.798
58.8063
58.8157
58.8236
58.8294
58.8202
58.8254
58.8277
58.8243
58.8177
58.81
58.8143
58.8164
58.8124
58.7984
58.7988
58.8
58.7939
58.7953
58.7927
58.7899
58.7899
58.7871
58.7819
58.77
58.7579
58.7479
58.745
58.7421
58.7318
58.7347
58.7496
58.7495
58.7536
58.7549
58.7533
58.7528
58.7416
58.7454
58.7667
58.7614
58.7682
58.7739
58.7674
58.768
58.7673
58.7582
58.7598
58.7681
58.7633
58.765
58.7624
58.753
58.7542
58.7621
58.7576
58.7537
58.76
58.7677
58.7653
58.7566
58.76
58.7689
58.7594
58.7637
58.7657
58.7634
58.757
58.7588
58.7617
58.7484
55.0005
55.9116
56.8618
57.6909
58.2767
58.6262
58.7927
58.8348
58.8393
58.837
58.8248
58.8301
58.8376
58.827
58.824
58.825
58.8184
58.8222
58.835
58.8254
58.825
58.8328
58.8293
58.8373
58.8499
58.8475
58.8475
58.8463
58.8461
58.8409
58.8235
58.8215
58.8223
58.8177
58.8167
58.8146
58.8141
58.8117
58.8096
58.8044
58.7968
58.7914
58.7849
58.772
58.764
58.7605
58.7542
58.7506
58.7436
58.7348
58.7463
58.7638
58.7624
58.7626
58.7617
58.7532
58.7547
58.7581
58.7516
58.7509
58.7505
58.7518
58.7468
58.7507
58.7548
58.7441
58.7491
58.7554
58.7479
58.7449
58.7567
58.7738
58.7723
58.7725
58.7726
58.7701
58.7686
58.7667
58.7644
58.7629
58.7547
58.7586
58.767
58.7634
58.7654
58.7627
58.7502
58.7526
58.758
58.7439
55.0007
55.9116
56.8565
57.6945
58.2911
58.627
58.7511
58.767
58.7601
58.7658
58.7886
58.7891
58.7867
58.7836
58.7776
58.789
58.8044
58.7979
58.7964
58.811
58.8228
58.8132
58.817
58.8343
58.8297
58.8373
58.8496
58.8498
58.8497
58.8451
58.8444
58.8405
58.8387
58.8325
58.8177
58.8107
58.8069
58.8023
58.7945
58.7909
58.7885
58.7884
58.7886
58.7869
58.7844
58.7708
58.7598
58.7654
58.77
58.7635
58.7659
58.7666
58.7631
58.7541
58.7453
58.7496
58.7558
58.7528
58.7415
58.7416
58.7494
58.7502
58.7505
58.7434
58.7519
58.7587
58.7576
58.7572
58.7498
58.7485
58.741
58.7447
58.7595
58.7603
58.7602
58.7485
58.7464
58.7519
58.7527
58.7453
58.7446
58.7551
58.7529
58.7609
58.7674
58.7573
58.7629
58.7668
58.7629
58.7488
55.0007
55.9106
56.864
57.6876
58.278
58.633
58.7792
58.8334
58.8359
58.8357
58.8354
58.8229
58.819
58.8196
58.8125
58.8179
58.8282
58.8172
58.8232
58.8304
58.8246
58.8232
58.8221
58.8179
58.8249
58.8356
58.8266
58.8314
58.8329
58.83
58.8251
58.8221
58.8157
58.8139
58.8135
58.812
58.8103
58.7985
58.7862
58.7868
58.7882
58.7867
58.7868
58.7844
58.7845
58.7801
58.7628
58.7617
58.7697
58.766
58.7673
58.7688
58.7687
58.7675
58.7699
58.7702
58.7678
58.7646
58.7482
58.7464
58.7495
58.7486
58.7475
58.7487
58.7497
58.7395
58.7371
58.7488
58.7538
58.7457
58.7473
58.7655
58.7685
58.7659
58.7618
58.7538
58.7619
58.7689
58.7662
58.7606
58.7548
58.7566
58.7534
58.7606
58.7647
58.762
58.7531
58.7521
58.7558
58.7441
54.9992
55.914
56.8568
57.6921
58.2897
58.624
58.7699
58.7994
58.7994
58.7995
58.7956
58.789
58.7939
58.8179
58.8295
58.8239
58.8285
58.8302
58.8284
58.8283
58.8243
58.816
58.8163
58.8251
58.8339
58.8341
58.8205
58.8242
58.8341
58.8319
58.8317
58.8321
58.8328
58.83
58.8281
58.8251
58.821
58.8105
58.8049
58.7918
58.772
58.7724
58.7743
58.7682
58.765
58.7714
58.7772
58.7767
58.7767
58.7703
58.7697
58.7701
58.7693
58.7636
58.7595
58.7575
58.7533
58.7517
58.7494
58.7464
58.7377
58.7418
58.7458
58.7362
58.7401
58.7536
58.7534
58.7522
58.7413
58.7446
58.7634
58.7656
58.7625
58.7503
58.7538
58.7642
58.7625
58.7602
58.7469
58.7471
58.7661
58.7723
58.775
58.7732
58.7717
58.7708
58.7543
58.7538
58.7599
58.7495
55.0017
55.9102
56.8564
57.6939
58.294
58.6282
58.74
58.7487
58.7525
58.7772
58.7805
58.7857
58.8008
58.7921
58.7967
58.8087
58.7965
58.798
58.8082
58.8009
58.7997
58.8049
58.7999
58.8067
58.8163
58.8166
58.8167
58.8036
58.8083
58.8171
58.8069
58.8112
58.8138
58.8122
58.8084
58.8087
58.8087
58.8036
58.8019
58.8024
58.8031
58.8011
58.8003
58.7935
58.7768
58.7684
58.7619
58.745
58.7409
58.7451
58.7456
58.7408
58.7402
58.7566
58.7608
58.7592
58.7587
58.7492
58.7533
58.7613
58.7552
58.7547
58.7542
58.7437
58.7438
58.7473
58.7451
58.74
58.7444
58.7614
58.7564
58.7617
58.7638
58.7623
58.7634
58.7612
58.7566
58.7475
58.7571
58.7745
58.7668
58.7727
58.7763
58.772
58.7725
58.7687
58.771
58.772
58.7672
58.7495
54.9998
55.9141
56.8576
57.69
58.2936
58.6184
58.7621
58.7892
58.789
58.7867
58.7759
58.7817
58.7956
58.7895
58.7942
58.7958
58.7854
58.7845
58.8042
58.8135
58.812
58.8102
58.8018
58.8043
58.805
58.8124
58.8185
58.8169
58.8159
58.8045
58.8068
58.8082
58.8023
58.8014
58.8015
58.8023
58.8019
58.7969
58.7836
58.7796
58.7776
58.7751
58.7706
58.7683
58.7646
58.7575
58.744
58.7504
58.7662
58.7564
58.7608
58.7702
58.7691
58.7695
58.7654
58.7541
58.7503
58.75
58.7498
58.7436
58.7442
58.7542
58.754
58.7563
58.7568
58.7503
58.7539
58.7732
58.7745
58.7704
58.7754
58.7795
58.7768
58.7766
58.7777
58.7773
58.7617
58.758
58.7695
58.7736
58.7711
58.7628
58.7662
58.7709
58.7652
58.7661
58.7655
58.7662
58.7629
58.7484
55.0016
55.9117
56.8574
57.694
58.285
58.6247
58.7696
58.7958
58.7955
58.7932
58.7864
58.7821
58.7908
58.8193
58.8191
58.8147
58.8105
58.8107
58.8062
58.8064
58.8256
58.8351
58.8331
58.8295
58.8243
58.8209
58.8103
58.8151
58.8205
58.8081
58.8131