/*--------------------------------*- C++ -*----------------------------------*\
  =========                 |
  \\      /  F ield         | OpenFOAM: The Open Source CFD Toolbox
   \\    /   O peration     | Website:  https://openfoam.org
    \\  /    A nd           | Version:  11
     \\/     M anipulation  |
\*---------------------------------------------------------------------------*/
FoamFile
{
    format      ascii;
    class       volScalarField;
    location    "0.08";
    object      p;
}
// * * * * * * * * * * * * * * * * * * * * * * * * * * * * * * * * * * * * * //

dimensions      [0 2 -2 0 0 0 0];

internalField   nonuniform List<scalar> 
287084
(
1.68967
1.40261
1.34598
1.27641
1.20685
1.15396
1.10347
1.05692
1.01204
0.968235
0.924605
0.88042
0.836566
0.792925
0.748259
0.702649
0.656687
0.610586
0.564499
0.518729
0.473365
0.428937
0.385338
0.343325
0.302211
0.26334
0.229336
0.199024
0.172379
0.150893
0.129466
0.108471
0.0908651
0.0774276
0.0678068
0.0609919
0.056945
0.0553476
0.0558629
0.0581923
0.0620347
0.0671067
0.073127
0.0798501
0.0870434
0.0944765
0.102003
0.109412
0.116517
0.123403
0.129104
0.135025
0.141777
0.146935
0.151395
0.1552
0.158687
0.16133
0.162865
0.163807
0.164047
0.163804
0.162972
0.161625
0.159743
0.157317
0.154435
0.150993
0.147249
0.142839
0.138212
0.133522
0.128084
0.122235
0.116274
0.109901
0.103287
0.0964481
0.0893542
0.0820932
0.074551
0.066873
0.0590293
0.0509627
0.0425469
0.0341181
0.0253072
0.0157242
0.00511942
0.000452276
1.55402
1.36162
1.31425
1.25609
1.19514
1.1458
1.09779
1.05268
1.00875
0.965497
0.922209
0.87847
0.834682
0.790543
0.74551
0.699856
0.653829
0.607588
0.561307
0.515308
0.46973
0.425105
0.381378
0.339404
0.298835
0.260504
0.226276
0.196259
0.16889
0.14331
0.12083
0.101164
0.0850259
0.0723816
0.0630803
0.056663
0.0529553
0.0516737
0.0524928
0.0551196
0.0592462
0.0645893
0.0708649
0.0778297
0.0852425
0.0928931
0.100603
0.108215
0.115559
0.1226
0.129147
0.135303
0.141169
0.146268
0.150708
0.154583
0.157877
0.160475
0.162239
0.163316
0.163739
0.163555
0.16279
0.161471
0.159604
0.157232
0.154326
0.150972
0.147166
0.142932
0.138308
0.133319
0.127918
0.122187
0.116214
0.109852
0.103274
0.0964517
0.0893442
0.0820794
0.0745663
0.0668891
0.0590091
0.0509957
0.0427293
0.0343578
0.0257188
0.0168286
0.00740534
0.00172874
1.52742
1.35545
1.30634
1.25006
1.19141
1.1427
1.09524
1.05021
1.00614
0.962643
0.91903
0.875133
0.831017
0.786293
0.740912
0.694926
0.648485
0.601776
0.555006
0.508482
0.46242
0.417255
0.373214
0.330798
0.290295
0.25216
0.217209
0.185232
0.156626
0.131679
0.109792
0.0909492
0.0754022
0.0631209
0.0541912
0.0482439
0.0450442
0.0442937
0.0456717
0.0488614
0.0535418
0.0594188
0.0662068
0.0736494
0.0815095
0.089577
0.0976709
0.105627
0.113308
0.120628
0.127425
0.133785
0.139795
0.145078
0.149732
0.153723
0.157024
0.159671
0.161536
0.162719
0.163233
0.163148
0.162427
0.161164
0.15934
0.156979
0.15414
0.150797
0.147027
0.142786
0.138155
0.133225
0.127874
0.122134
0.116149
0.109839
0.103247
0.0963986
0.0893481
0.0820853
0.0745959
0.0669405
0.0590909
0.0510146
0.0428394
0.0343941
0.0256117
0.0166122
0.00759541
0.00237711
1.47968
1.32077
1.27723
1.22593
1.17303
1.128
1.08347
1.0405
0.99793
0.955342
0.912372
0.868778
0.824559
0.779525
0.733767
0.687318
0.64032
0.592976
0.545519
0.498244
0.451442
0.405519
0.36078
0.317718
0.276679
0.238064
0.202554
0.170513
0.141613
0.116034
0.0939275
0.0752839
0.0602327
0.0486891
0.0405066
0.0353978
0.0330585
0.0331892
0.0354483
0.0395083
0.0450358
0.0517275
0.0592843
0.0674484
0.0759777
0.0846644
0.0933288
0.101808
0.109979
0.117742
0.125018
0.131738
0.137897
0.143381
0.148173
0.152324
0.15577
0.158518
0.160537
0.161855
0.162499
0.162497
0.161896
0.160702
0.15894
0.156666
0.153848
0.150558
0.146811
0.142622
0.138036
0.133052
0.127718
0.122031
0.116048
0.109741
0.103186
0.0963844
0.0893175
0.0820531
0.0745814
0.0669133
0.0590809
0.051108
0.0429398
0.0345504
0.0260091
0.0171031
0.00823974
0.00288427
1.45658
1.30631
1.26525
1.21605
1.16534
1.12124
1.07733
1.03456
0.991932
0.949106
0.90576
0.861744
0.816984
0.771342
0.724871
0.677621
0.62977
0.581485
0.53304
0.484738
0.436888
0.389931
0.344216
0.300231
0.258381
0.219123
0.182919
0.150013
0.120667
0.095023
0.0731794
0.055106
0.0407743
0.0300485
0.0227673
0.0186483
0.0173795
0.0186237
0.0220154
0.0271999
0.0338304
0.0415805
0.050147
0.0592589
0.0686685
0.0781675
0.0875701
0.096728
0.105505
0.113808
0.121552
0.128689
0.135205
0.141034
0.146143
0.150542
0.154183
0.157116
0.159312
0.160784
0.16157
0.161711
0.161203
0.160104
0.15843
0.156196
0.153459
0.150226
0.146521
0.142375
0.137817
0.132874
0.127569
0.121899
0.115926
0.109659
0.10312
0.096316
0.0892925
0.0820556
0.0746025
0.0669843
0.0591763
0.0511892
0.0430823
0.0346573
0.0260661
0.0171807
0.00830283
0.00292938
1.43197
1.28336
1.24397
1.19686
1.14856
1.10649
1.06436
1.02296
0.981319
0.939105
0.896058
0.852018
0.806957
0.760778
0.713591
0.665482
0.616615
0.567219
0.517564
0.467981
0.41885
0.370573
0.32362
0.278438
0.23554
0.195337
0.158354
0.124919
0.0952389
0.069509
0.0478337
0.0302232
0.0166114
0.00685449
0.000706121
-0.00213473
-0.00204238
0.000616248
0.00544065
0.0120446
0.0200552
0.0291306
0.0389486
0.049232
0.0597279
0.0702238
0.0805399
0.0905233
0.100053
0.109029
0.117387
0.125064
0.132031
0.138245
0.143686
0.148367
0.152282
0.155438
0.15784
0.159508
0.160466
0.160741
0.160373
0.159383
0.1578
0.155669
0.152997
0.149819
0.14617
0.142066
0.137551
0.132636
0.127355
0.121726
0.115781
0.109538
0.103017
0.096242
0.0892239
0.0819922
0.0745646
0.0669478
0.059162
0.0512186
0.0431152
0.0347139
0.026188
0.0173251
0.00850061
0.00312717
1.41383
1.26792
1.23029
1.18465
1.13781
1.09661
1.05506
1.01389
0.972235
0.929801
0.886337
0.841732
0.795931
0.748876
0.700671
0.651389
0.601254
0.550448
0.49931
0.448182
0.397455
0.347621
0.299122
0.252522
0.208317
0.167011
0.129105
0.0949562
0.0649092
0.0391332
0.0177757
0.000812278
-0.0118602
-0.0204397
-0.0252226
-0.0265576
-0.0248534
-0.0205265
-0.0140148
-0.0057386
0.00389803
0.0145284
0.02582
0.0374829
0.0492553
0.0609227
0.0723033
0.0832539
0.0936501
0.103404
0.112445
0.12073
0.128229
0.134914
0.140776
0.145827
0.150056
0.153486
0.156133
0.158019
0.15917
0.15962
0.159396
0.158534
0.157069
0.155022
0.15244
0.149341
0.145757
0.141719
0.137256
0.132386
0.127143
0.121546
0.115628
0.109407
0.102911
0.0961552
0.0891639
0.0819568
0.0745452
0.0669599
0.0591914
0.0512553
0.0431706
0.0348003
0.0262626
0.0173651
0.0085409
0.00312594
1.3968
1.25119
1.21411
1.16943
1.12353
1.08324
1.04246
1.00187
0.960564
0.918224
0.87459
0.829541
0.783062
0.735102
0.685788
0.635224
0.583615
0.531227
0.478374
0.425447
0.372904
0.321219
0.270964
0.222676
0.176969
0.134364
0.0954189
0.0605598
0.0301283
0.00436015
-0.0166326
-0.0328626
-0.0444725
-0.0517044
-0.0549034
-0.0544774
-0.0508924
-0.0446225
-0.0361505
-0.0259399
-0.0144296
-0.00200983
0.0109695
0.0242032
0.0374251
0.0504233
0.063016
0.0750584
0.086438
0.0970697
0.106896
0.115873
0.123984
0.131203
0.137532
0.142984
0.147572
0.151318
0.154243
0.156372
0.157738
0.158372
0.158311
0.157592
0.156248
0.154314
0.151823
0.148804
0.145291
0.141312
0.136901
0.132076
0.126872
0.121316
0.11543
0.109246
0.102778
0.096048
0.0890785
0.0818928
0.0745048
0.0669351
0.0591893
0.051283
0.0432111
0.0348698
0.0263686
0.0173936
0.00853471
0.00314097
1.38199
1.23717
1.20089
1.15686
1.11169
1.07187
1.03139
0.99086
0.949393
0.906711
0.8625
0.816699
0.76925
0.720132
0.66947
0.617364
0.564075
0.509832
0.455022
0.40005
0.345395
0.29164
0.239338
0.189163
0.141738
0.0976718
0.0575808
0.0219072
-0.00890109
-0.0346476
-0.0551672
-0.0705252
-0.0808854
-0.0865476
-0.0879291
-0.0854949
-0.0797817
-0.0713209
-0.0606519
-0.048279
-0.0346724
-0.0202564
-0.00540255
0.00957796
0.0244106
0.0388759
0.0528016
0.0660475
0.0785066
0.0901045
0.100785
0.110521
0.119295
0.127101
0.133948
0.139855
0.144843
0.148935
0.152161
0.154556
0.156157
0.156999
0.157122
0.156558
0.155351
0.153534
0.151146
0.148217
0.144785
0.14088
0.136528
0.131758
0.1266
0.121082
0.115232
0.109074
0.102636
0.0959343
0.088988
0.0818221
0.074453
0.0669053
0.0591742
0.0512789
0.0432224
0.0349208
0.02645
0.0174636
0.0085511
0.00315955
1.36831
1.22361
1.18758
1.14392
1.09909
1.05957
1.01926
0.978772
0.937146
0.894105
0.849333
0.802705
0.754218
0.703833
0.651685
0.597901
0.542719
0.486446
0.429448
0.372198
0.315233
0.259141
0.204612
0.152312
0.102998
0.0573205
0.0159585
-0.0205476
-0.0517675
-0.077425
-0.0973984
-0.111748
-0.120694
-0.124602
-0.123941
-0.119271
-0.111188
-0.100297
-0.0871955
-0.0724382
-0.056537
-0.0399408
-0.023042
-0.00616686
0.0104083
0.026465
0.0418296
0.0563751
0.0699991
0.0826342
0.0942422
0.104794
0.114287
0.122725
0.130127
0.136518
0.141929
0.146393
0.149947
0.15263
0.154479
0.155535
0.155845
0.155451
0.15439
0.152699
0.150422
0.147592
0.144241
0.140403
0.136112
0.131397
0.12629
0.12082
0.11501
0.108888
0.102478
0.0958039
0.0888823
0.0817398
0.0743908
0.0668617
0.0591489
0.0512722
0.0432216
0.0349033
0.0264136
0.0174278
0.00856271
0.00316622
1.35578
1.21126
1.17548
1.13207
1.08746
1.04803
1.0077
0.966995
0.924966
0.881368
0.835786
0.788166
0.738446
0.686623
0.63281
0.577144
0.519906
0.461374
0.401993
0.342251
0.282726
0.22411
0.167101
0.112516
0.0611329
0.013713
-0.0289867
-0.0664033
-0.0979987
-0.123536
-0.142841
-0.156045
-0.163397
-0.165341
-0.162436
-0.155307
-0.144641
-0.131113
-0.115384
-0.098064
-0.0796989
-0.06077
-0.041688
-0.022791
-0.00435927
0.0133852
0.030281
0.0461986
0.0610475
0.0747734
0.0873473
0.0987593
0.109006
0.11811
0.126099
0.133006
0.138868
0.143723
0.147619
0.1506
0.152713
0.153999
0.154511
0.15429
0.153383
0.151824
0.149661
0.146929
0.143667
0.13991
0.135687
0.131031
0.125975
0.120549
0.114777
0.108689
0.102311
0.0956629
0.0887686
0.0816495
0.0743185
0.0668099
0.0591117
0.051243
0.043201
0.0349055
0.0263906
0.0173933
0.00858923
0.0032132
1.34415
1.19964
1.16393
1.12062
1.07601
1.03654
0.996048
0.955031
0.912528
0.868241
0.821785
0.773051
0.722009
0.668616
0.613007
0.555331
0.49585
0.434916
0.372962
0.310548
0.2483
0.186949
0.127329
0.0702665
0.0166915
-0.0325753
-0.076702
-0.115027
-0.147009
-0.172334
-0.190891
-0.202814
-0.20842
-0.208236
-0.20289
-0.193118
-0.17968
-0.163336
-0.144809
-0.124765
-0.103797
-0.0824099
-0.0610359
-0.0400252
-0.0196588
-0.000151037
0.0183303
0.0356714
0.0517949
0.0666557
0.0802373
0.0925373
0.10357
0.113361
0.121953
0.129387
0.135709
0.140968
0.145217
0.148507
0.15089
0.152413
0.15313
0.153096
0.152346
0.150923
0.148878
0.146248
0.143076
0.139398
0.135245
0.130648
0.125642
0.120262
0.114533
0.108482
0.102134
0.0955143
0.0886461
0.0815518
0.0742435
0.0667482
0.0590639
0.0512159
0.0431892
0.0349207
0.0264648
0.0174286
0.00854373
0.00317843
1.33333
1.18884
1.15313
1.10984
1.06517
1.02553
0.984757
0.943304
0.900192
0.855092
0.807633
0.757692
0.705192
0.650126
0.592601
0.532777
0.470944
0.40744
0.342778
0.277519
0.212383
0.148171
0.0857575
0.0261243
-0.0297606
-0.080954
-0.126534
-0.165788
-0.198088
-0.223157
-0.240843
-0.251359
-0.255072
-0.252591
-0.244651
-0.232073
-0.215716
-0.196418
-0.174975
-0.152106
-0.128439
-0.104514
-0.0807773
-0.0575921
-0.0352385
-0.0139304
0.00617529
0.0249724
0.0423939
0.0584058
0.0730057
0.0862073
0.0980337
0.108528
0.117733
0.125707
0.132502
0.138175
0.142785
0.146388
0.149047
0.15081
0.151737
0.151879
0.151285
0.150003
0.148079
0.145556
0.142474
0.138876
0.134794
0.130261
0.12531
0.119975
0.114286
0.108273
0.101959
0.0953661
0.0885193
0.0814462
0.0741568
0.0666825
0.0590119
0.0511694
0.0431478
0.0348667
0.0263515
0.0173557
0.00859082
0.00324001
1.32327
1.17875
1.14299
1.09963
1.05477
1.01488
0.973736
0.931762
0.887974
0.841985
0.79348
0.742237
0.688223
0.631387
0.571863
0.509806
0.445505
0.379358
0.311862
0.24368
0.175538
0.108343
0.0430727
-0.0192414
-0.0774913
-0.130652
-0.177705
-0.21785
-0.250453
-0.275173
-0.291912
-0.300905
-0.302603
-0.29771
-0.287053
-0.271564
-0.252186
-0.229848
-0.20541
-0.179645
-0.153228
-0.126722
-0.100595
-0.0752103
-0.0508547
-0.0277359
-0.00599984
0.0142627
0.0329893
0.0501598
0.0657855
0.0798894
0.0925119
0.103705
0.113527
0.122038
0.129301
0.135387
0.140358
0.144274
0.147203
0.149203
0.150339
0.150667
0.150232
0.149088
0.147284
0.144865
0.141876
0.138357
0.134345
0.12987
0.124972
0.119684
0.114036
0.108058
0.101772
0.0952113
0.0883931
0.0813403
0.0740734
0.0666142
0.0589542
0.0511298
0.0431099
0.0348576
0.0263542
0.017343
0.00857579
0.00322296
1.31396
1.16939
1.13353
1.09005
1.04498
1.00477
0.963197
0.920631
0.876076
0.829177
0.779542
0.726953
0.671354
0.612711
0.551126
0.486773
0.419959
0.351081
0.280715
0.209509
0.138321
0.0680955
-0.00010602
-0.0651157
-0.12576
-0.180871
-0.229368
-0.270377
-0.303196
-0.327501
-0.343192
-0.350572
-0.350167
-0.342777
-0.329332
-0.310867
-0.288426
-0.26302
-0.235574
-0.206911
-0.177744
-0.148671
-0.12016
-0.0925895
-0.066245
-0.0413285
-0.0179776
0.0037243
0.0237333
0.042046
0.0586797
0.0736743
0.0870802
0.0989642
0.109389
0.11843
0.126157
0.132644
0.137966
0.142191
0.145393
0.147633
0.148974
0.149476
0.149195
0.148187
0.146502
0.144185
0.141283
0.137841
0.133897
0.129486
0.124643
0.1194
0.113793
0.107852
0.101599
0.0950621
0.088263
0.0812333
0.0739813
0.0665408
0.0588972
0.0510859
0.0430836
0.0348287
0.0263536
0.0173476
0.00856996
0.00322955
1.30536
1.16076
1.12477
1.08113
1.03578
0.995213
0.953148
0.909975
0.864653
0.816776
0.765985
0.712038
0.654847
0.594371
0.530727
0.464072
0.394726
0.323131
0.249852
0.17566
0.101395
0.0281424
-0.0429652
-0.110665
-0.173663
-0.230692
-0.280578
-0.322381
-0.355362
-0.379171
-0.393757
-0.399466
-0.396911
-0.386994
-0.370751
-0.349318
-0.323828
-0.295381
-0.264959
-0.233441
-0.201575
-0.169979
-0.139143
-0.109444
-0.081167
-0.0545051
-0.029588
-0.00648281
0.0147758
0.0341943
0.0518113
0.0676674
0.0818324
0.0943803
0.10539
0.114946
0.12312
0.129999
0.135665
0.140187
0.143642
0.146104
0.147643
0.148321
0.14819
0.147314
0.145745
0.14353
0.140716
0.137349
0.13347
0.129111
0.124319
0.119123
0.113553
0.107643
0.101419
0.09491
0.0881365
0.0811256
0.0738938
0.0664678
0.0588386
0.0510324
0.0430416
0.0347923
0.0263154
0.0173161
0.0085532
0.00324046
1.29753
1.15285
1.11673
1.0729
1.02729
0.986327
0.943782
0.899946
0.853829
0.804993
0.753083
0.697754
0.638978
0.576697
0.511004
0.442079
0.370246
0.295955
0.219845
0.142679
0.0654266
-0.0108006
-0.0847536
-0.155059
-0.22033
-0.279176
-0.330372
-0.37287
-0.40593
-0.42918
-0.442609
-0.446621
-0.441921
-0.4295
-0.410507
-0.386173
-0.357723
-0.326331
-0.293037
-0.258771
-0.224312
-0.190301
-0.157235
-0.125496
-0.0953676
-0.0670364
-0.0406223
-0.0161832
0.00626137
0.0267344
0.0452802
0.0619584
0.0768408
0.0900218
0.101588
0.11163
0.12023
0.127477
0.133465
0.138272
0.141977
0.144659
0.14639
0.147229
0.14724
0.146487
0.145024
0.142903
0.140172
0.136875
0.133058
0.12876
0.124017
0.118863
0.11333
0.107452
0.101255
0.0947709
0.0880171
0.08103
0.0738117
0.0664009
0.0587827
0.0509964
0.0430202
0.0347999
0.0263626
0.017321
0.0085125
0.00320163
1.29045
1.14571
1.10945
1.06544
1.0195
0.978173
0.935102
0.890659
0.843678
0.794006
0.740998
0.684303
0.623999
0.559975
0.492327
0.421212
0.346983
0.270124
0.191263
0.111275
0.0311238
-0.0479253
-0.124599
-0.197374
-0.26478
-0.325335
-0.377713
-0.420825
-0.453885
-0.476535
-0.488795
-0.491135
-0.484345
-0.469514
-0.447889
-0.420788
-0.389527
-0.355346
-0.319338
-0.282478
-0.245578
-0.209293
-0.174133
-0.140484
-0.108623
-0.0787326
-0.0509204
-0.0252298
-0.00166933
0.0197858
0.0391975
0.0566396
0.0721999
0.0859696
0.0980506
0.108544
0.117536
0.12513
0.131425
0.136494
0.140428
0.143312
0.145213
0.146203
0.146348
0.145713
0.144351
0.142319
0.139665
0.136438
0.132683
0.128432
0.123731
0.118614
0.113116
0.107267
0.101096
0.0946331
0.0879003
0.0809285
0.0737245
0.0663269
0.0587245
0.05095
0.0429809
0.0347763
0.0263692
0.0173484
0.00849123
0.003175
1.28417
1.13937
1.10294
1.05876
1.01254
0.970818
0.927291
0.882224
0.834583
0.783944
0.729808
0.671935
0.610201
0.544537
0.475033
0.401867
0.325386
0.246096
0.164683
0.082023
-0.000803507
-0.0825155
-0.1617
-0.236755
-0.306131
-0.36821
-0.421641
-0.465236
-0.498236
-0.520249
-0.531363
-0.532098
-0.523333
-0.506241
-0.482159
-0.452493
-0.418627
-0.381872
-0.343368
-0.304129
-0.264991
-0.226627
-0.189554
-0.154159
-0.120716
-0.0893979
-0.0603089
-0.033484
-0.00891707
0.01344
0.033645
0.0517864
0.0679564
0.0822627
0.0948174
0.105726
0.115085
0.122992
0.129558
0.134872
0.139017
0.142081
0.144147
0.145275
0.145541
0.145009
0.143741
0.141788
0.139203
0.136036
0.132333
0.12813
0.123471
0.118393
0.112926
0.107104
0.100955
0.0945142
0.0878041
0.0808499
0.0736569
0.0662734
0.0586766
0.0509085
0.0429496
0.0347423
0.0263045
0.0172749
0.00850549
0.00322206
1.2787
1.13385
1.0973
1.05291
1.00643
0.96436
0.920374
0.874768
0.826439
0.774966
0.719883
0.660858
0.597812
0.530655
0.459472
0.384433
0.305912
0.224423
0.140666
0.0556035
-0.0296815
-0.113764
-0.195228
-0.272319
-0.343437
-0.406875
-0.461187
-0.505183
-0.538057
-0.559446
-0.569477
-0.568728
-0.558156
-0.539011
-0.512712
-0.480738
-0.444549
-0.405495
-0.364764
-0.3234
-0.282265
-0.242043
-0.203263
-0.166312
-0.131458
-0.0988731
-0.0686424
-0.0408003
-0.0153299
0.00781963
0.0287299
0.0474949
0.0642131
0.0789941
0.0919621
0.103232
0.112907
0.121096
0.127906
0.133429
0.13776
0.140988
0.143191
0.144446
0.14482
0.144384
0.143195
0.141312
0.138791
0.13568
0.132025
0.127863
0.123239
0.118188
0.112749
0.106954
0.100827
0.0944023
0.0877044
0.0807624
0.0735844
0.0662091
0.0586217
0.0508634
0.0429054
0.0347065
0.0262701
0.0172559
0.00850667
0.00322373
1.2741
1.12918
1.09248
1.04799
1.00123
0.958853
0.914471
0.868371
0.819454
0.767258
0.711301
0.651288
0.587094
0.51862
0.445956
0.369281
0.288956
0.205527
0.119736
0.0325568
-0.0548417
-0.141025
-0.224458
-0.303302
-0.375925
-0.440477
-0.495524
-0.539795
-0.572526
-0.593323
-0.60237
-0.600301
-0.58814
-0.567205
-0.538981
-0.505012
-0.466806
-0.425769
-0.383119
-0.33993
-0.297079
-0.255266
-0.215022
-0.176736
-0.140675
-0.106998
-0.0757942
-0.0470839
-0.0208446
0.00299084
0.0245002
0.04379
0.0609729
0.0761697
0.0894975
0.101081
0.111035
0.119465
0.126487
0.132194
0.136687
0.140053
0.142379
0.143738
0.144205
0.14385
0.142733
0.14091
0.138442
0.135377
0.131761
0.127637
0.123046
0.118024
0.112605
0.106826
0.100717
0.094312
0.08763
0.0807022
0.0735336
0.0661694
0.0585887
0.0508398
0.0428914
0.0346906
0.0262771
0.0172598
0.00849702
0.00321657
1.27037
1.12542
1.08862
1.04396
0.997015
0.954365
0.90966
0.863138
0.813732
0.760895
0.704219
0.643393
0.578236
0.50867
0.434777
0.356726
0.274911
0.189874
0.102375
0.013447
-0.0757437
-0.163634
-0.248708
-0.328996
-0.402835
-0.468316
-0.523875
-0.568355
-0.600931
-0.621209
-0.629426
-0.626246
-0.612758
-0.590336
-0.560525
-0.524912
-0.485059
-0.442395
-0.398174
-0.353487
-0.309227
-0.266107
-0.224659
-0.185275
-0.148218
-0.113653
-0.0816508
-0.0522264
-0.0253512
-0.000959168
0.0210465
0.0407736
0.0583451
0.073877
0.087496
0.0993308
0.109506
0.118136
0.125328
0.131184
0.135806
0.139286
0.141709
0.143161
0.143703
0.14341
0.142347
0.140576
0.138149
0.13512
0.131539
0.127442
0.12288
0.117879
0.112482
0.106724
0.100628
0.0942327
0.0875606
0.0806408
0.0734804
0.066119
0.0585491
0.0508018
0.0428629
0.0346768
0.0262524
0.0172359
0.00848021
0.00321881
1.26754
1.12257
1.08569
1.04092
0.993801
0.950959
0.905985
0.859143
0.809332
0.756048
0.698821
0.637336
0.571435
0.501014
0.426158
0.347052
0.264072
0.177783
0.0889724
-0.0013158
-0.0918667
-0.181087
-0.267419
-0.348789
-0.423618
-0.489717
-0.545667
-0.590246
-0.622718
-0.642576
-0.65013
-0.646089
-0.631576
-0.608012
-0.576979
-0.540109
-0.49899
-0.455085
-0.409662
-0.363832
-0.318498
-0.27438
-0.232015
-0.191795
-0.153983
-0.118733
-0.0861211
-0.0561521
-0.0287969
-0.00397813
0.0184046
0.0384626
0.0563219
0.0721141
0.0859607
0.0979942
0.108338
0.117114
0.12444
0.130411
0.135134
0.138699
0.141201
0.142712
0.143313
0.143073
0.142056
0.140323
0.137932
0.134933
0.131376
0.127305
0.122755
0.117772
0.112392
0.106643
0.100559
0.0941725
0.0875094
0.0806005
0.0734461
0.0660967
0.0585308
0.0507927
0.0428509
0.0346692
0.0262386
0.0172128
0.00847962
0.00321498
1.26565
1.12065
1.08371
1.03887
0.991645
0.948647
0.903507
0.85644
0.806343
0.752754
0.695154
0.633226
0.566814
0.495823
0.42032
0.340484
0.256716
0.169583
0.0798671
-0.0113402
-0.102846
-0.192944
-0.280167
-0.362259
-0.437856
-0.504318
-0.560359
-0.605
-0.637445
-0.657016
-0.664126
-0.659492
-0.644284
-0.619942
-0.588084
-0.550363
-0.508394
-0.463652
-0.417419
-0.370817
-0.324759
-0.279967
-0.236979
-0.196195
-0.15787
-0.12216
-0.089136
-0.0588028
-0.0311204
-0.00601318
0.0166225
0.0369033
0.0549614
0.0709227
0.0849195
0.0970846
0.107549
0.116428
0.123841
0.129892
0.134682
0.138307
0.140858
0.142419
0.143059
0.142851
0.141861
0.140154
0.137781
0.134799
0.131261
0.1272
0.122668
0.117699
0.112328
0.106589
0.100511
0.0941328
0.0874761
0.0805682
0.0734187
0.0660676
0.0585074
0.0507709
0.0428428
0.0346681
0.0262695
0.0172545
0.00847116
0.00321171
1.2647
1.1197
1.08272
1.03784
0.99057
0.947489
0.902287
0.855084
0.804875
0.751096
0.69328
0.631157
0.564486
0.493195
0.417353
0.337154
0.25298
0.165415
0.07525
-0.0164261
-0.108393
-0.198955
-0.286611
-0.369073
-0.445094
-0.511819
-0.56766
-0.612402
-0.644854
-0.664287
-0.671172
-0.666243
-0.65068
-0.625949
-0.593674
-0.555524
-0.513121
-0.467955
-0.421315
-0.374327
-0.327906
-0.282776
-0.239481
-0.198414
-0.159831
-0.123888
-0.0906569
-0.0601371
-0.0322915
-0.00703888
0.015728
0.0361264
0.0542824
0.0703294
0.0844011
0.0966344
0.107154
0.116081
0.12354
0.129629
0.134454
0.138108
0.140682
0.14226
0.142922
0.142733
0.141759
0.140064
0.137707
0.134739
0.131204
0.127152
0.122623
0.117661
0.112293
0.106557
0.100491
0.094115
0.0874597
0.0805537
0.0734049
0.0660637
0.0585034
0.0507692
0.0428364
0.0346571
0.0262297
0.0171973
0.00846698
0.0032259
1.26471
1.11969
1.08271
1.03785
0.990573
0.947487
0.902286
0.855088
0.804881
0.751093
0.693269
0.631159
0.564487
0.4932
0.417365
0.337163
0.252997
0.165427
0.07526
-0.0164113
-0.108387
-0.198942
-0.286601
-0.369063
-0.445094
-0.511802
-0.567633
-0.612404
-0.644839
-0.664272
-0.671157
-0.666225
-0.650664
-0.625933
-0.593659
-0.55551
-0.513108
-0.467943
-0.421302
-0.374314
-0.327892
-0.282763
-0.239467
-0.1984
-0.159819
-0.123879
-0.090652
-0.0601368
-0.0322889
-0.00703497
0.0157288
0.036121
0.0542765
0.0703247
0.0843982
0.0966301
0.107151
0.116081
0.12354
0.129628
0.134452
0.138107
0.140683
0.142264
0.142926
0.142739
0.141763
0.140068
0.137708
0.134734
0.131202
0.12715
0.122624
0.117661
0.112294
0.10656
0.100486
0.0941118
0.0874577
0.080551
0.073405
0.0660557
0.0584956
0.0507639
0.0428335
0.0346579
0.0262506
0.0172332
0.00846707
0.00320742
1.26565
1.12066
1.08371
1.03888
0.991662
0.948657
0.903541
0.856452
0.806364
0.752762
0.69515
0.633235
0.566823
0.495832
0.420319
0.340492
0.256721
0.169592
0.0798767
-0.0113254
-0.102818
-0.192918
-0.280134
-0.362206
-0.437823
-0.504225
-0.560279
-0.605009
-0.637399
-0.656968
-0.664076
-0.659442
-0.644232
-0.619895
-0.58804
-0.550322
-0.508354
-0.463612
-0.417382
-0.370784
-0.324731
-0.279942
-0.236959
-0.196176
-0.157855
-0.122147
-0.0891241
-0.0587917
-0.0311103
-0.00600259
0.0166348
0.036917
0.054978
0.0709406
0.0849341
0.0970994
0.10756
0.116434
0.123843
0.12989
0.13468
0.138303
0.140855
0.14241
0.14305
0.142843
0.141855
0.140148
0.137778
0.134799
0.131256
0.127197
0.122662
0.117693
0.112321
0.10658
0.10051
0.0941329
0.0874761
0.0805685
0.0734163
0.0660693
0.0585025
0.0507702
0.0428328
0.0346553
0.026228
0.0172008
0.00847178
0.00322081
1.26755
1.12257
1.0857
1.04092
0.993815
0.950966
0.905998
0.859163
0.80935
0.756047
0.698809
0.637349
0.571446
0.501032
0.426182
0.347072
0.264104
0.177818
0.0890069
-0.00127185
-0.0918289
-0.181028
-0.267371
-0.348722
-0.423568
-0.489597
-0.54558
-0.590217
-0.622641
-0.642501
-0.650052
-0.64601
-0.631495
-0.607931
-0.576903
-0.540035
-0.498922
-0.455021
-0.409604
-0.36378
-0.318448
-0.274334
-0.231973
-0.191758
-0.153948
-0.118702
-0.0860956
-0.0561306
-0.0287764
-0.00396037
0.0184198
0.0384746
0.056333
0.0721208
0.0859636
0.0979947
0.108343
0.117118
0.124439
0.130411
0.135133
0.1387
0.141198
0.142711
0.143315
0.143077
0.142058
0.140324
0.137931
0.134928
0.131369
0.127297
0.122748
0.117767
0.112386
0.106636
0.100554
0.0941691
0.0875047
0.0805898
0.0734376
0.0660823
0.0585166
0.0507758
0.0428396
0.0346369
0.0262127
0.0172272
0.00850893
0.00325434
1.27037
1.12543
1.08863
1.04397
0.997031
0.954379
0.909691
0.863156
0.813751
0.760912
0.704233
0.643412
0.578253
0.508697
0.434798
0.356761
0.27494
0.189909
0.102419
0.01349
-0.0756772
-0.163573
-0.248627
-0.328915
-0.402745
-0.468201
-0.523782
-0.568258
-0.600818
-0.621094
-0.629309
-0.626132
-0.612647
-0.590229
-0.56042
-0.524813
-0.484965
-0.442308
-0.398096
-0.353418
-0.309166
-0.26605
-0.224607
-0.185227
-0.148175
-0.113612
-0.0816143
-0.0521929
-0.0253225
-0.000934355
0.0210675
0.0407911
0.0583594
0.0738915
0.0875109
0.0993463
0.10952
0.118145
0.125334
0.131188
0.135808
0.139283
0.141707
0.143152
0.143695
0.143401
0.142341
0.140573
0.138146
0.135117
0.131534
0.12744
0.12287
0.117869
0.112472
0.106712
0.100621
0.0942262
0.0875563
0.0806386
0.0734738
0.0661142
0.0585387
0.0508006
0.0428521
0.0346663
0.0262535
0.0172263
0.00848363
0.00321627
1.2741
1.1292
1.09252
1.04798
1.00125
0.958863
0.914493
0.8684
0.819491
0.767259
0.711291
0.651308
0.587116
0.518649
0.445992
0.369315
0.28901
0.205585
0.119794
0.0326316
-0.0547719
-0.14093
-0.224366
-0.303201
-0.375809
-0.440353
-0.495388
-0.539673
-0.572383
-0.593185
-0.602231
-0.600163
-0.587999
-0.567067
-0.538849
-0.504886
-0.46669
-0.425663
-0.383024
-0.339846
-0.296999
-0.255193
-0.214953
-0.176671
-0.140613
-0.106942
-0.0757453
-0.0470391
-0.0208054
0.003023
0.0245332
0.0438186
0.0609969
0.0761896
0.0895148
0.101093
0.111041
0.119468
0.126485
0.132194
0.136687
0.140054
0.142377
0.143734
0.144203
0.14385
0.142729
0.140908
0.13844
0.13537
0.131752
0.127625
0.123032
0.118013
0.112596
0.106818
0.100712
0.0943004
0.0876145
0.0806871
0.0735191
0.0661509
0.0585712
0.0508207
0.042873
0.034675
0.0262475
0.017241
0.00850675
0.00324032
1.2787
1.13387
1.09732
1.05293
1.00644
0.964374
0.920407
0.874792
0.826487
0.774986
0.719875
0.660882
0.59784
0.530695
0.459514
0.384487
0.305968
0.224477
0.140743
0.0556728
-0.0295792
-0.113675
-0.19511
-0.272207
-0.343302
-0.406731
-0.461037
-0.505025
-0.537895
-0.55928
-0.569312
-0.568563
-0.557994
-0.538854
-0.51256
-0.480593
-0.44441
-0.405364
-0.364645
-0.323291
-0.282165
-0.241951
-0.203179
-0.166235
-0.131386
-0.0988069
-0.0685839
-0.040748
-0.0152872
0.00785664
0.0287574
0.0475108
0.0642248
0.0790086
0.0919762
0.103241
0.112918
0.12111
0.127917
0.133435
0.137764
0.140985
0.143188
0.144441
0.144816
0.144377
0.143189
0.14131
0.138787
0.135674
0.132018
0.127857
0.123231
0.118182
0.112737
0.106941
0.100818
0.0943949
0.0876952
0.0807538
0.0735711
0.0661957
0.0586084
0.0508578
0.0428952
0.0346989
0.0262653
0.0172453
0.00850035
0.00320654
1.28417
1.13939
1.10297
1.05877
1.01255
0.970837
0.927307
0.88226
0.834625
0.783948
0.729821
0.671959
0.61023
0.544573
0.475087
0.401926
0.325457
0.246175
0.164762
0.082125
-0.000700475
-0.0823906
-0.161568
-0.236615
-0.305968
-0.368049
-0.421461
-0.465065
-0.49805
-0.520064
-0.531177
-0.531914
-0.52315
-0.506063
-0.481985
-0.452325
-0.418471
-0.381729
-0.343235
-0.304011
-0.26488
-0.226525
-0.189462
-0.154077
-0.12064
-0.0893276
-0.0602418
-0.0334189
-0.00885744
0.0134904
0.0336915
0.051825
0.067992
0.0822993
0.0948441
0.105739
0.115089
0.122997
0.129558
0.134867
0.139013
0.142079
0.14414
0.145269
0.145536
0.145007
0.143736
0.141784
0.1392
0.136032
0.132324
0.12812
0.123458
0.118376
0.112911
0.107089
0.100943
0.0944989
0.0877844
0.0808279
0.0736351
0.0662492
0.0586503
0.0508871
0.0429175
0.0347154
0.0262577
0.0172421
0.00851843
0.0032192
1.29047
1.14573
1.10944
1.06547
1.01953
0.978187
0.935151
0.890686
0.843796
0.794013
0.740943
0.684332
0.624039
0.560027
0.492383
0.421275
0.347064
0.270193
0.191366
0.11136
0.0312508
-0.0478131
-0.124451
-0.197223
-0.264614
-0.32516
-0.377524
-0.420625
-0.453684
-0.476325
-0.488589
-0.49093
-0.484149
-0.469323
-0.4477
-0.420606
-0.389351
-0.355178
-0.319183
-0.282336
-0.245449
-0.209174
-0.174027
-0.14039
-0.108538
-0.0786514
-0.0508421
-0.025163
-0.00161205
0.0198395
0.0392442
0.0566778
0.0722286
0.0859944
0.0980689
0.108552
0.117547
0.125143
0.131431
0.136495
0.14043
0.143308
0.145208
0.146196
0.146342
0.145707
0.144346
0.142314
0.139658
0.13643
0.132673
0.128423
0.12372
0.118604
0.113102
0.107254
0.101082
0.0946199
0.0878855
0.0809141
0.0737078
0.0663078
0.0587016
0.0509261
0.0429573
0.0347049
0.0262806
0.01731
0.00854301
0.00324017
1.29754
1.15287
1.11676
1.07293
1.0273
0.986364
0.943799
0.900003
0.853882
0.805029
0.753071
0.697781
0.639015
0.57674
0.511066
0.442148
0.370327
0.296057
0.21995
0.142803
0.0655552
-0.0106601
-0.0845934
-0.154894
-0.220142
-0.278989
-0.330165
-0.372662
-0.405715
-0.42896
-0.44239
-0.446402
-0.441705
-0.429292
-0.410306
-0.38598
-0.357538
-0.326159
-0.292876
-0.258622
-0.224172
-0.190171
-0.157117
-0.125393
-0.0952729
-0.0669499
-0.0405419
-0.0161078
0.00633096
0.0267985
0.0453366
0.0620092
0.0768878
0.0900602
0.101614
0.111645
0.120238
0.127483
0.133466
0.138271
0.141975
0.144652
0.146381
0.147221
0.147233
0.146483
0.14502
0.142899
0.140168
0.136871
0.133049
0.128748
0.124002
0.118848
0.113315
0.107432
0.101235
0.0947486
0.0879945
0.0810037
0.0737815
0.0663703
0.0587527
0.050965
0.0429838
0.0347533
0.0262906
0.0172584
0.00852798
0.00324115
1.3054
1.16078
1.12476
1.08117
1.03581
0.995245
0.953186
0.910003
0.864695
0.816814
0.766013
0.712076
0.654892
0.594428
0.530795
0.464145
0.394826
0.323214
0.249977
0.175764
0.101541
0.0282816
-0.0428017
-0.110492
-0.173475
-0.230491
-0.280367
-0.322157
-0.355136
-0.378937
-0.393526
-0.399232
-0.396689
-0.386773
-0.370532
-0.349107
-0.323628
-0.295192
-0.264784
-0.23328
-0.201429
-0.169843
-0.139022
-0.109335
-0.0810668
-0.0544115
-0.0294961
-0.00640169
0.0148504
0.0342657
0.0518708
0.0677179
0.0818736
0.0944152
0.105417
0.114959
0.12313
0.130008