/*--------------------------------*- C++ -*----------------------------------*\
  =========                 |
  \\      /  F ield         | OpenFOAM: The Open Source CFD Toolbox
   \\    /   O peration     | Website:  https://openfoam.org
    \\  /    A nd           | Version:  11
     \\/     M anipulation  |
\*---------------------------------------------------------------------------*/
FoamFile
{
    format      ascii;
    class       volScalarField;
    location    "0.09";
    object      k;
}
// * * * * * * * * * * * * * * * * * * * * * * * * * * * * * * * * * * * * * //

dimensions      [0 2 -2 0 0 0 0];

internalField   nonuniform List<scalar> 
287084
(
0.381618
0.393896
0.406806
0.419672
0.430495
0.437939
0.441811
0.442931
0.44299
0.442971
0.442963
0.442844
0.442856
0.443021
0.442987
0.443065
0.443148
0.443095
0.44313
0.443149
0.443116
0.443008
0.442967
0.443224
0.44334
0.443337
0.443335
0.443235
0.443171
0.443209
0.443338
0.443304
0.443161
0.4432
0.443228
0.443151
0.443142
0.443154
0.443161
0.443115
0.443022
0.44297
0.442865
0.442814
0.442733
0.442682
0.442644
0.442582
0.442541
0.442466
0.442261
0.442194
0.442346
0.442418
0.442412
0.442377
0.442386
0.442388
0.442368
0.442216
0.442255
0.442358
0.442325
0.442209
0.442202
0.44252
0.4426
0.442556
0.442401
0.442381
0.442513
0.442563
0.442522
0.442343
0.442353
0.442499
0.442419
0.442513
0.442634
0.442617
0.44261
0.442522
0.442435
0.442538
0.442705
0.442646
0.44269
0.442707
0.442654
0.442409
0.381627
0.393897
0.406647
0.419416
0.430263
0.437884
0.441988
0.443137
0.44314
0.44326
0.44355
0.443423
0.443502
0.443673
0.443659
0.443627
0.44361
0.443504
0.443439
0.443423
0.4434
0.443316
0.443397
0.443742
0.443681
0.443787
0.443862
0.443817
0.443834
0.443816
0.443772
0.443635
0.443569
0.443509
0.443326
0.443372
0.443423
0.443404
0.443393
0.443178
0.443207
0.443266
0.443255
0.443253
0.443196
0.443169
0.442975
0.442912
0.443051
0.443145
0.443132
0.443089
0.443056
0.443058
0.443062
0.443009
0.442929
0.44287
0.442836
0.442804
0.442761
0.442622
0.442718
0.442925
0.442947
0.442912
0.442735
0.44281
0.442971
0.442941
0.442944
0.44285
0.442925
0.443025
0.443082
0.443088
0.442997
0.442987
0.442984
0.442841
0.44287
0.442956
0.44293
0.442927
0.442856
0.442872
0.442825
0.442839
0.442842
0.442707
0.381629
0.393898
0.406603
0.419438
0.430227
0.437719
0.441967
0.44343
0.443587
0.443572
0.443561
0.443428
0.443469
0.443551
0.443524
0.443519
0.443365
0.443448
0.443746
0.443746
0.44372
0.443713
0.443576
0.443653
0.443843
0.443818
0.443827
0.44382
0.443822
0.443707
0.443674
0.443665
0.443674
0.443658
0.443663
0.443648
0.44365
0.443615
0.443559
0.443528
0.443434
0.44319
0.443076
0.44312
0.443171
0.44314
0.443097
0.442955
0.442985
0.443107
0.443064
0.44304
0.443041
0.443043
0.443006
0.443006
0.442998
0.442941
0.442906
0.442843
0.442638
0.442665
0.442805
0.442816
0.442817
0.442658
0.442759
0.443021
0.442922
0.443002
0.443046
0.443017
0.443009
0.443017
0.443024
0.442987
0.442972
0.442761
0.442763
0.442814
0.442798
0.442756
0.442706
0.442792
0.442734
0.442836
0.443002
0.442993
0.442974
0.44274
0.381618
0.39387
0.406645
0.419416
0.430142
0.437645
0.441928
0.443508
0.443675
0.443601
0.443562
0.443675
0.443756
0.443739
0.443736
0.443651
0.443629
0.443486
0.443542
0.443709
0.443624
0.443649
0.443613
0.443471
0.443506
0.443639
0.443643
0.443636
0.443538
0.443426
0.443543
0.443707
0.443576
0.443655
0.443703
0.443697
0.443698
0.44367
0.44366
0.443594
0.443591
0.443548
0.443529
0.443487
0.443404
0.44318
0.443069
0.443019
0.443007
0.442995
0.442835
0.44287
0.442942
0.442891
0.442873
0.442896
0.442917
0.442873
0.442734
0.442722
0.442906
0.442932
0.442912
0.442911
0.442913
0.442844
0.442854
0.442819
0.442716
0.442807
0.443012
0.442932
0.442979
0.442999
0.44296
0.44288
0.442827
0.442904
0.442897
0.443007
0.443123
0.443087
0.442999
0.442946
0.442995
0.443062
0.443033
0.443017
0.443005
0.442762
0.381614
0.393862
0.406679
0.419334
0.430132
0.437775
0.441721
0.443409
0.44369
0.443671
0.443636
0.443466
0.44353
0.443621
0.443512
0.443507
0.443502
0.443372
0.443387
0.443543
0.443574
0.44353
0.443363
0.443439
0.443651
0.443594
0.443624
0.443588
0.443491
0.443561
0.443666
0.443515
0.443577
0.443628
0.44362
0.443616
0.443537
0.44336
0.443382
0.443464
0.443357
0.443424
0.443442
0.443384
0.44341
0.443391
0.443338
0.443345
0.443348
0.443316
0.443289
0.443222
0.443181
0.443098
0.443042
0.443004
0.442922
0.442709
0.442594
0.442706
0.442796
0.442775
0.442754
0.442723
0.442682
0.442641
0.442501
0.442529
0.442758
0.442802
0.442762
0.442618
0.442677
0.442968
0.442902
0.443011
0.443126
0.442964
0.443018
0.443104
0.442982
0.443058
0.443096
0.443067
0.443044
0.442859
0.442901
0.442964
0.442919
0.442767
0.381617
0.393873
0.40662
0.419348
0.430252
0.437705
0.441601
0.442967
0.443544
0.443544
0.443444
0.443508
0.443552
0.443539
0.443534
0.443394
0.443328
0.443451
0.443593
0.443622
0.443606
0.443603
0.443548
0.44341
0.443479
0.443535
0.443395
0.443381
0.443623
0.443719
0.443596
0.443671
0.44371
0.443687
0.443683
0.443621
0.443573
0.44335
0.443236
0.443226
0.443136
0.443203
0.443273
0.443249
0.44325
0.443224
0.443196
0.443046
0.44291
0.442918
0.442993
0.442984
0.44298
0.442849
0.442846
0.442987
0.44301
0.442984
0.442924
0.442896
0.442892
0.442814
0.442845
0.442875
0.442835
0.44271
0.442689
0.442856
0.442826
0.442941
0.443082
0.443097
0.443063
0.442997
0.442981
0.442792
0.442785
0.442923
0.442859
0.44296
0.443035
0.44302
0.443016
0.442883
0.442863
0.442824
0.442929
0.443021
0.442978
0.442826
0.38161
0.393856
0.406638
0.419315
0.430314
0.437584
0.441642
0.44325
0.443442
0.443451
0.443452
0.443396
0.443295
0.443395
0.443551
0.443458
0.443609
0.443992
0.443995
0.443953
0.444019
0.444091
0.444075
0.444072
0.443984
0.443973
0.443864
0.443892
0.443914
0.443868
0.443859
0.443829
0.443813
0.443702
0.443592
0.4436
0.443601
0.443548
0.443436
0.443331
0.443362
0.443386
0.443346
0.443277
0.443218
0.443183
0.443191
0.443212
0.443187
0.443153
0.443097
0.442961
0.442843
0.442857
0.442918
0.442872
0.442868
0.44285
0.442678
0.442728
0.44288
0.442875
0.442883
0.442862
0.442845
0.442661
0.442677
0.442829
0.442881
0.44285
0.442684
0.442739
0.442851
0.44283
0.442764
0.442762
0.44288
0.442835
0.442867
0.442874
0.442846
0.442781
0.442879
0.442994
0.443
0.443
0.442814
0.442865
0.44295
0.442766
0.381634
0.393811
0.406676
0.419439
0.430032
0.437513
0.44183
0.443763
0.444142
0.444124
0.444001
0.444004
0.444096
0.444039
0.444038
0.443983
0.444077
0.444142
0.444113
0.444079
0.443951
0.443919
0.44387
0.443974
0.444104
0.444001
0.444079
0.444118
0.444055
0.444053
0.444037
0.44406
0.444022
0.444005
0.444009
0.444011
0.443965
0.44386
0.443581
0.443454
0.443433
0.443451
0.443466
0.443446
0.443422
0.443326
0.443311
0.443278
0.443215
0.443173
0.443141
0.443125
0.442968
0.443015
0.443122
0.443085
0.442994
0.442948
0.442994
0.44294
0.443032
0.443138
0.443067
0.443111
0.443172
0.44315
0.443131
0.443028
0.442963
0.442824
0.44274
0.442922
0.443053
0.443055
0.443053
0.442864
0.442845
0.443056
0.443147
0.443104
0.443115
0.443099
0.44298
0.442895
0.442959
0.443049
0.443001
0.443014
0.442995
0.442784
0.381619
0.393857
0.406607
0.419409
0.430162
0.437603
0.441736
0.443295
0.443474
0.443467
0.443461
0.443278
0.44336
0.4437
0.443615
0.443713
0.443826
0.443654
0.443663
0.443874
0.443853
0.443979
0.444116
0.443917
0.44391
0.444023
0.443938
0.444022
0.444142
0.444005
0.444084
0.444134
0.444117
0.444112
0.444041
0.444023
0.443936
0.443898
0.443831
0.443692
0.443501
0.443404
0.443333
0.44312
0.443125
0.443228
0.443061
0.443111
0.443248
0.443207
0.443233
0.443193
0.443166
0.443177
0.443182
0.443126
0.442988
0.442823
0.442845
0.442924
0.442881
0.44272
0.442743
0.442899
0.442822
0.442865
0.442885
0.442854
0.442814
0.442735
0.442918
0.443103
0.443032
0.443033
0.443042
0.443031
0.44292
0.442864
0.442943
0.442932
0.443053
0.443262
0.443254
0.443224
0.443195
0.443159
0.44311
0.443099
0.443031
0.442796
0.381678
0.39377
0.406613
0.419436
0.430162
0.437618
0.441718
0.443067
0.443172
0.443098
0.443202
0.443548
0.443564
0.443533
0.443379
0.443388
0.443553
0.443716
0.443722
0.443704
0.443704
0.443637
0.443628
0.443517
0.443615
0.443744
0.443707
0.443711
0.443644
0.44367
0.443654
0.443734
0.443751
0.44372
0.443714
0.443684
0.443674
0.443592
0.443554
0.443489
0.443286
0.443309
0.443333
0.443319
0.443316
0.443272
0.443218
0.443112
0.443062
0.442994
0.442846
0.442705
0.442643
0.442654
0.442648
0.442513
0.442553
0.442588
0.44247
0.442421
0.442621
0.442864
0.442786
0.442842
0.442868
0.442846
0.442833
0.442654
0.442673
0.442852
0.442842
0.442846
0.442843
0.442778
0.442766
0.442727
0.442641
0.442608
0.442817
0.443027
0.443007
0.442975
0.442802
0.442836
0.443021
0.442947
0.443031
0.443083
0.443031
0.44285
0.381637
0.393835
0.406634
0.419371
0.430135
0.437659
0.441795
0.44309
0.443107
0.443196
0.443391
0.443395
0.443395
0.44329
0.443354
0.443404
0.443326
0.443423
0.443677
0.443667
0.443902
0.444048
0.444042
0.44404
0.443938
0.443906
0.443735
0.44371
0.443878
0.443896
0.443857
0.443777
0.443685
0.443657
0.443584
0.443679
0.443729
0.443562
0.443607
0.44367
0.44366
0.443656
0.443577
0.443566
0.443502
0.443379
0.443083
0.442811
0.44283
0.442862
0.442705
0.442756
0.442864
0.44282
0.44285
0.442812
0.442792
0.442796
0.44278
0.442625
0.442685
0.442823
0.442817
0.442815
0.442682
0.442768
0.442858
0.442842
0.442836
0.442679
0.442732
0.442797
0.442642
0.442665
0.442897
0.442959
0.442942
0.442929
0.442773
0.442792
0.442901
0.442756
0.442767
0.443026
0.443108
0.443066
0.443074
0.44308
0.443052
0.442834
0.381607
0.393863
0.406629
0.419368
0.430183
0.437573
0.441732
0.443428
0.443646
0.443654
0.443654
0.443582
0.443516
0.443681
0.443889
0.443768
0.443852
0.443914
0.443898
0.443916
0.443846
0.444018
0.44411
0.444084
0.444047
0.443959
0.444081
0.444163
0.444127
0.444134
0.444148
0.444163
0.444137
0.444098
0.44406
0.443987
0.443965
0.443968
0.443965
0.44389
0.443787
0.443667
0.443572
0.443381
0.443167
0.443011
0.442964
0.442931
0.4429
0.442853
0.442759
0.44263
0.442698
0.442788
0.442888
0.442922
0.442778
0.442844
0.442942
0.442901
0.442914
0.44289
0.442852
0.442649
0.442649
0.442902
0.442951
0.442921
0.442878
0.442793
0.4429
0.443019
0.442995
0.442962
0.44284
0.442921
0.442986
0.442959
0.442938
0.44281
0.442883
0.442993
0.442963
0.442855
0.44288
0.443025
0.443015
0.443017
0.442995
0.442815
0.381645
0.393785
0.406708
0.419413
0.430013
0.437528
0.441928
0.443504
0.443623
0.443616
0.443759
0.443835
0.443879
0.443847
0.443818
0.443769
0.443855
0.444204
0.444217
0.444173
0.444024
0.444081
0.444201
0.444043
0.444089
0.444275
0.444142
0.444213
0.444324
0.444163
0.44422
0.444265
0.444244
0.444239
0.444185
0.444091
0.443967
0.443888
0.443834
0.443772
0.443641
0.44356
0.443507
0.443463
0.443403
0.443274
0.443192
0.442948
0.442926
0.443015
0.443021
0.443033
0.443004
0.442973
0.442976
0.442972
0.442927
0.442902
0.442868
0.442844
0.442752
0.442733
0.442712
0.442842
0.442979
0.442967
0.44297
0.442951
0.44294
0.442821
0.442743
0.442874
0.442988
0.442989
0.442988
0.442799
0.442824
0.443053
0.44307
0.443039
0.44298
0.442908
0.442958
0.443053
0.443039
0.443047
0.443016
0.442991
0.442939
0.442772
0.381632
0.393855
0.406588
0.419345
0.430306
0.437576
0.441654
0.443038
0.443052
0.443078
0.443173
0.443074
0.443134
0.4433
0.443292
0.443274
0.44325
0.443398
0.443626
0.443762
0.443736
0.443745
0.443664
0.443696
0.444072
0.444194
0.443983
0.443995
0.444107
0.444001
0.444061
0.444128
0.444052
0.444058
0.444056
0.444048
0.443969
0.443765
0.443613
0.443526
0.443356
0.443218
0.443177
0.443129
0.443145
0.443149
0.443114
0.442993
0.443036
0.443112
0.443115
0.443116
0.443075
0.443012
0.442964
0.442863
0.442807
0.44278
0.442674
0.442776
0.442877
0.442859
0.442852
0.442715
0.442744
0.442822
0.442808
0.442824
0.44278
0.442627
0.442651
0.442939
0.443017
0.443003
0.442983
0.442952
0.442939
0.442894
0.442864
0.44282
0.442732
0.442869
0.443178
0.443155
0.443168
0.443158
0.443072
0.443035
0.443016
0.442876
0.381634
0.393817
0.406663
0.419454
0.430019
0.437464
0.441936
0.443622
0.44377
0.443831
0.443932
0.443866
0.44384
0.443861
0.44384
0.443935
0.443982
0.443928
0.443979
0.443995
0.443902
0.443912
0.444169
0.44423
0.444148
0.444276
0.444414
0.444228
0.444291
0.444345
0.444159
0.444215
0.444233
0.444086
0.444065
0.444086
0.44411
0.444072
0.444007
0.443916
0.443809
0.443688
0.443423
0.443195
0.443023
0.442949
0.442909
0.442832
0.442774
0.442776
0.442784
0.442783
0.44273
0.442625
0.442635
0.442618
0.442721
0.442924
0.442908
0.442895
0.442817
0.442716
0.442817
0.442961
0.442939
0.442862
0.442925
0.443093
0.443074
0.443043
0.442853
0.442881
0.442952
0.442957
0.442957
0.442761
0.442829
0.443059
0.443078
0.443044
0.442991
0.44298
0.442814
0.442877
0.443006
0.443012
0.443013
0.442961
0.44294
0.442721
0.381605
0.393896
0.406663
0.419279
0.430239
0.43754
0.441707
0.44339
0.44365
0.443623
0.44353
0.443498
0.44353
0.443534
0.443457
0.443447
0.443688
0.443811
0.443789
0.443712
0.443748
0.443795
0.443709
0.443836
0.444012
0.443846
0.443891
0.444101
0.44414
0.444103
0.444066
0.44404
0.443832
0.443779
0.443741
0.443628
0.443602
0.443581
0.443539
0.443508
0.443502
0.443497
0.443499
0.443453
0.443444
0.443414
0.44336
0.443232
0.443172
0.443047
0.442728
0.442669
0.44276
0.442775
0.442744
0.442613
0.442644
0.442662
0.442691
0.443147
0.443309
0.443286
0.443242
0.443178
0.443131
0.442974
0.443018
0.443173
0.443087
0.443161
0.443202
0.443156
0.443166
0.443177
0.443187
0.443123
0.442882
0.442849
0.442929
0.442978
0.442945
0.442797
0.442935
0.443088
0.443054
0.442955
0.442924
0.442941
0.442938
0.442835
0.381624
0.393836
0.406654
0.419469
0.430048
0.437379
0.44184
0.443867
0.444218
0.444201
0.444145
0.444066
0.444087
0.444047
0.444074
0.444244
0.444301
0.444296
0.444296
0.444141
0.444164
0.444285
0.444265
0.444265
0.444168
0.444212
0.444243
0.444285
0.444327
0.444208
0.444273
0.444285
0.444221
0.444237
0.444183
0.444147
0.444131
0.444116
0.444032
0.443947
0.443879
0.443777
0.443553
0.443343
0.443186
0.4431
0.443041
0.443009
0.44296
0.442857
0.442576
0.442499
0.442572
0.442649
0.442622
0.442479
0.44263
0.442919
0.442889
0.442937
0.442959
0.442927
0.442786
0.44285
0.442946
0.442812
0.442806
0.442979
0.443019
0.443009
0.443009
0.442968
0.442853
0.442882
0.44309
0.443104
0.443074
0.443076
0.443035
0.442866
0.442822
0.442994
0.4431
0.443056
0.443055
0.44306
0.443039
0.443018
0.442959
0.442754
0.381623
0.393846
0.406616
0.419503
0.430026
0.437391
0.441939
0.443783
0.444001
0.444102
0.444282
0.444265
0.444251
0.444174
0.444061
0.444089
0.444133
0.444038
0.444127
0.44426
0.444121
0.444196
0.444416
0.444275
0.444286
0.444546
0.444591
0.444571
0.444591
0.444567
0.444542
0.444497
0.444413
0.444395
0.444363
0.44432
0.444269
0.444202
0.444064
0.443874
0.443733
0.44362
0.443465
0.443342
0.443254
0.443191
0.443074
0.442781
0.442581
0.442681
0.442836
0.44283
0.442842
0.442809
0.442637
0.442664
0.442852
0.442801
0.442747
0.442745
0.442709
0.442747
0.44304
0.443135
0.443074
0.443108
0.443173
0.443151
0.443101
0.443012
0.442858
0.442963
0.443184
0.443128
0.443123
0.443095
0.443166
0.443192
0.443095
0.443103
0.44311
0.443089
0.442879
0.442899
0.44305
0.443078
0.443044
0.442993
0.442971
0.442739
0.381631
0.393814
0.406687
0.419445
0.430016
0.437479
0.441821
0.443755
0.444065
0.444023
0.44404
0.444008
0.443934
0.443926
0.444094
0.444119
0.444074
0.444072
0.443975
0.444097
0.444365
0.444359
0.444344
0.444289
0.44431
0.444258
0.444224
0.444179
0.444259
0.444277
0.4442
0.444194
0.444186
0.444187
0.444134
0.444025
0.443772
0.443526
0.443421
0.443357
0.443365
0.443371
0.443347
0.443358
0.443338
0.443315
0.443281
0.443221
0.443088
0.442723
0.442569
0.442641
0.442711
0.442691
0.442682
0.442542
0.44262
0.442876
0.44277
0.442742
0.442803
0.442757
0.442768
0.443041
0.443159
0.443121
0.443034
0.442938
0.442913
0.442822
0.442807
0.442865
0.442878
0.442835
0.442934
0.443051
0.443048
0.443046
0.442873
0.442943
0.4431
0.443008
0.443058
0.443074
0.443044
0.443004
0.442992
0.442968
0.442907
0.442706
0.381575
0.393897
0.406669
0.419389
0.430058
0.437565
0.441856
0.443502
0.443695
0.44362
0.443585
0.443574
0.443567
0.443645
0.443722
0.44369
0.443577
0.443601
0.443866
0.443932
0.443912
0.44384
0.44389
0.444292
0.444544
0.444417
0.444507
0.444566
0.444461
0.44445
0.444447
0.444447
0.444419
0.444379
0.444333
0.444301
0.444206
0.444111
0.443997
0.443906
0.443756
0.443634
0.443528
0.443375
0.443275
0.443072
0.44291
0.44277
0.442716
0.442658
0.442536
0.442373
0.44255
0.443005
0.442999
0.442983
0.443119
0.443394
0.44338
0.44338
0.44335
0.443354
0.4433
0.44314
0.443092
0.443156
0.44322
0.443202
0.443183
0.443177
0.443025
0.443098
0.443224
0.443198
0.443195
0.443166
0.443167
0.443127
0.443114
0.443077
0.442956
0.442988
0.443021
0.44287
0.442914
0.442934
0.44288
0.442877
0.442834
0.442658
0.381627
0.393854
0.406632
0.41936
0.430156
0.437712
0.441716
0.442889
0.442935
0.443036
0.443411
0.443411
0.443411
0.443413
0.443325
0.443386
0.443598
0.443568
0.443573
0.44355
0.443694
0.444241
0.444259
0.444396
0.444597
0.444518
0.444528
0.444575
0.444562
0.444505
0.4445
0.444449
0.444414
0.444406
0.444374
0.444244
0.443984
0.443799
0.443687
0.4436
0.443529
0.443471
0.443418
0.443374
0.443288
0.443092
0.442937
0.442843
0.44261
0.442549
0.442599
0.442531
0.442614
0.442673
0.442659
0.442655
0.44254
0.442488
0.442516
0.442522
0.442402
0.442454
0.442569
0.442567
0.442567
0.442403
0.442482
0.442615
0.442606
0.44259
0.44256
0.442754
0.443039
0.443095
0.443047
0.443036
0.443055
0.443068
0.443019
0.442857
0.442871
0.443
0.442985
0.442981
0.442961
0.442957
0.4429
0.442812
0.442764
0.442625
0.381649
0.393777
0.406721
0.419404
0.430017
0.437539
0.441905
0.443662
0.443896
0.443905
0.443904
0.443737
0.443735
0.443989
0.444071
0.443969
0.444052
0.44411
0.4441
0.444103
0.44401
0.44417
0.444418
0.444526
0.444584
0.444511
0.444503
0.444404
0.44448
0.444502
0.44447
0.444463
0.444411
0.444367
0.444254
0.444173
0.444037
0.443927
0.443826
0.443755
0.443661
0.443585
0.443499
0.443424
0.443375
0.443315
0.443198
0.442979
0.442689
0.44259
0.442562
0.442524
0.44241
0.442419
0.442836
0.443
0.442892
0.442889
0.443
0.443006
0.44314
0.443227
0.443051
0.443069
0.443279
0.44329
0.443235
0.44329
0.443307
0.443253
0.443244
0.443161
0.443069
0.443046
0.442987
0.443083
0.4433
0.443137
0.443145
0.443296
0.443295
0.443376
0.443401
0.443355
0.443352
0.443349
0.44331
0.443269
0.443176
0.442851
0.38163
0.393828
0.406642
0.419489
0.429984
0.437501
0.441937
0.443603
0.444152
0.44417
0.443951
0.443987
0.444094
0.444063
0.444062
0.44395
0.44406
0.444233
0.444101
0.444138
0.444427
0.444474
0.444389
0.444459
0.444669
0.44455
0.444634
0.444724
0.444664
0.444657
0.444593
0.444577
0.44457
0.444558
0.444497
0.444368
0.444192
0.444045
0.443899
0.443583
0.443326
0.443226
0.443087
0.443016
0.442977
0.442946
0.442876
0.442676
0.442629
0.442734
0.442764
0.442732
0.442626
0.442574
0.442793
0.443242
0.443237
0.443152
0.443223
0.443404
0.443427
0.443396
0.443324
0.443313
0.443178
0.443225
0.443256
0.443221
0.443222
0.443184
0.443065
0.443092
0.443262
0.443125
0.443115
0.443339
0.443404
0.44336
0.443256
0.443183
0.443167
0.443047
0.443104
0.443292
0.443295
0.44326
0.443206
0.443175
0.443106
0.442872
0.381633
0.393874
0.406546
0.419453
0.430159
0.437607
0.441731
0.443213
0.443357
0.443225
0.443271
0.44339
0.443341
0.443348
0.443307
0.443465
0.44378
0.443782
0.443999
0.444435
0.44456
0.444537
0.444453
0.444495
0.44452
0.444479
0.444355
0.44438
0.44447
0.444388
0.444407
0.444369
0.444329
0.444275
0.44426
0.4442
0.444149
0.444066
0.443899
0.443647
0.443506
0.443239
0.443042
0.44296
0.442917
0.442845
0.44261
0.442615
0.44266
0.442532
0.442582
0.442601
0.442458
0.442522
0.442573
0.4425
0.4425
0.442499
0.442415
0.442491
0.442658
0.442609
0.442608
0.442559
0.442712
0.443027
0.443035
0.443058
0.443029
0.442953
0.442843
0.442854
0.442952
0.442954
0.443025
0.443034
0.44302
0.442995
0.442847
0.442897
0.443029
0.442992
0.442993
0.442977
0.442847
0.442839
0.443029
0.443054
0.44302
0.442828
0.381603
0.39385
0.406698
0.419342
0.430117
0.437556
0.441848
0.443551
0.443807
0.443762
0.44377
0.44377
0.443687
0.443774
0.443931
0.443886
0.443885
0.443771
0.443818
0.444034
0.444016
0.444018
0.444001
0.444154
0.44435
0.444189
0.444191
0.444489
0.444585
0.444562
0.444556
0.444509
0.444443
0.444367
0.444262
0.444146
0.444042
0.443939
0.443844
0.443775
0.443647
0.443517
0.443415
0.443346
0.443221
0.443063
0.442891
0.442789
0.442748
0.442668
0.442473
0.442336
0.442499
0.442647
0.442574
0.442624
0.442644
0.442599
0.442503
0.442376
0.442415
0.442679
0.44268
0.442541
0.442503
0.442706
0.442839
0.442846
0.442847
0.442752
0.442718
0.442679
0.442558
0.442596
0.442761
0.442755
0.442681
0.44267
0.442827
0.442918
0.442881
0.442728
0.442772
0.442824
0.442744
0.442897
0.443048
0.443035
0.44303
0.44279
0.381642
0.393793
0.406698
0.419427
0.430008
0.437536
0.441946
0.44353
0.443654
0.443697
0.443901
0.443915
0.443841
0.44396
0.444158
0.444026
0.444118
0.444325
0.444173
0.444256
0.444437
0.444335
0.444289
0.444394
0.444445
0.444538
0.444692
0.444544
0.444601
0.444668
0.444648
0.444643
0.444595
0.444574
0.444489
0.444317
0.444084
0.443921
0.443769
0.443638
0.443538
0.443449
0.443387
0.443341
0.443303
0.443265
0.443195
0.443055
0.442786
0.442505
0.442495
0.44251
0.442487
0.442425
0.442497
0.442631
0.442632
0.44263
0.442439
0.442453
0.442561
0.442555
0.442562
0.442567
0.442501
0.442585
0.442808
0.442751
0.442751
0.442722
0.442734
0.442737
0.442723
0.442644
0.442769
0.442978
0.442953
0.44288
0.44284
0.442953
0.442984
0.44296
0.442951
0.442801
0.442839
0.442946
0.442899
0.442913
0.442871
0.442708
0.381623
0.393846
0.406614
0.419507
0.43002
0.437418
0.441895
0.443874
0.444196
0.444165
0.44417
0.444155
0.44407
0.444
0.444111
0.444176
0.444096
0.44418
0.444332
0.4442
0.444288
0.444516
0.444399
0.444369
0.444459
0.444464
0.444598
0.444671
0.444532
0.444567
0.444599
0.444534
0.444525
0.444515
0.444494
0.444401
0.444253
0.444068
0.443915
0.443797
0.443699
0.443629
0.443543
0.443489
0.443418
0.443259
0.443186
0.443034
0.442945
0.442912
0.44288
0.442807
0.442562
0.4426
0.443038
0.443324
0.443387
0.443296
0.443373
0.44341
0.443365
0.443213
0.443221
0.443321
0.443191
0.443247
0.44332
0.443284
0.443298
0.443315
0.443323
0.443268
0.443074
0.443091
0.443128
0.443046
0.443048
0.443046
0.442959
0.443004
0.443158
0.443169
0.443162
0.442981
0.442953
0.443076
0.443136
0.443113
0.443087
0.442888
0.38163
0.393828
0.406642
0.41949
0.429983
0.4375
0.441938
0.443606
0.444156
0.444175
0.443985
0.443939
0.444072
0.444158
0.444125
0.444004
0.444069
0.444238
0.444183
0.444181
0.444117
0.444188
0.444434
0.444374
0.44439
0.444679
0.444791
0.444759
0.444763
0.444742
0.444721
0.444677
0.444643
0.444564
0.444482
0.444322
0.444163
0.444039
0.443899
0.443583
0.443356
0.443152
0.443072
0.442994
0.442957
0.442922
0.442868
0.442702
0.442649
0.44274
0.442803
0.442762
0.442568
0.442568
0.44286
0.442908
0.44288
0.443068
0.443275
0.443249
0.44328
0.443294
0.443298
0.443236
0.443052
0.443023
0.443133
0.443213
0.443195
0.443199
0.443157
0.443048
0.443029
0.442954
0.443059
0.443223
0.443067
0.443139
0.443204
0.443185
0.443187
0.443163
0.443153
0.443065
0.443025
0.442819
0.442831
0.442983
0.442971
0.442841
0.38165
0.393774
0.406723
0.419404
0.430006
0.437583
0.441837
0.443663
0.443933
0.44379
0.443853
0.443971
0.443957
0.443963
0.443894
0.443971
0.443975
0.444102
0.444193
0.444076
0.444064
0.444299
0.444507
0.444446
0.444499
0.444565
0.444542
0.444514
0.444318
0.444331
0.444358
0.444279
0.444272
0.44422
0.444204
0.444204
0.444199
0.44417
0.444102
0.443951
0.443734
0.44357
0.443447
0.443347
0.44329
0.44323
0.443108
0.442807
0.44256
0.442569
0.442665
0.442633
0.442483
0.442489
0.442915
0.443099
0.443081
0.44301
0.443071
0.44331
0.443332
0.443333
0.443145
0.443158
0.443256
0.443186
0.44319
0.443292
0.443305
0.44326
0.443118
0.443088
0.443177
0.443167
0.443214
0.44327
0.443249
0.443228
0.443056
0.443035
0.44318
0.443143
0.443226
0.443295
0.44329
0.443289
0.443228
0.443219
0.443142
0.442865
0.381634
0.393845
0.406627
0.419378
0.430159
0.437632
0.44175
0.443152
0.443276
0.443181
0.443231
0.443436
0.443405
0.443499
0.443543
0.443523
0.443505
0.443608
0.443772
0.443654
0.443653
0.443967
0.444366
0.444359
0.444283
0.444336
0.444434
0.444211
0.444191
0.44426
0.444287
0.444287
0.444192
0.444183
0.444172
0.444159
0.444056
0.444004
0.443911
0.443712
0.443494
0.443374
0.443282
0.443086
0.442992
0.442916
0.44268
0.442685
0.442778
0.442726
0.442647
0.442681
0.442769
0.442759
0.44272
0.442769
0.442831
0.442825
0.44282
0.44263
0.442571
0.442745
0.442847
0.442806
0.442647
0.442618
0.442778
0.44275
0.44287
0.442968
0.442973
0.442974
0.442834
0.442786
0.442855
0.442822
0.442892
0.443049
0.442958
0.44292
0.443051
0.443174
0.443177
0.443176
0.443072
0.443008
0.4431
0.443155
0.443104
0.442915
0.381612
0.393893
0.406653
0.419284
0.43025
0.437545
0.441693
0.443392
0.443615
0.443499
0.44359
0.443657
0.443645
0.443644
0.443485
0.443575
0.443723
0.443844
0.443911
0.443844
0.443854
0.443821
0.444021
0.444484
0.444494
0.444434
0.444442
0.444418
0.444192
0.444202
0.444201
0.444166
0.444159
0.444106
0.444092
0.44404
0.44396
0.443853
0.443763
0.443677
0.443567
0.443481
0.443403
0.443338
0.443298
0.443227
0.443062
0.443004
0.442836
0.442818
0.442824
0.442808
0.442805
0.442739
0.442707
0.442678
0.442643
0.44252
0.44267
0.443021
0.443021
0.442991
0.442824
0.442836
0.442933
0.442941
0.442944
0.442873
0.442872
0.442872
0.442789
0.442818
0.443047
0.443074
0.443042
0.442941
0.442887
0.443021
0.443077
0.443008
0.443023
0.44301
0.442847
0.442874
0.442976
0.44294
0.442938
0.442947
0.442932
0.442691
0.381605
0.393895
0.406662
0.41928
0.430242
0.43754
0.441735
0.443344
0.44351
0.44341
0.443465
0.443563
0.443563
0.443562
0.443402
0.443527
0.443946
0.443982
0.443944
0.443815
0.443904
0.444133
0.444129
0.444083
0.444132
0.444308
0.444222
0.444315
0.444349
0.444322
0.444315
0.444243
0.444191
0.444113
0.443961
0.443826
0.443721
0.443627
0.443557
0.443481
0.443432
0.443398
0.443398
0.443389
0.443284
0.443144
0.443023
0.442975
0.442895
0.442719
0.442519
0.442484
0.442424
0.442439
0.442809
0.443077
0.443015
0.443085
0.443118
0.443075
0.442927
0.442932
0.443027
0.442949
0.44303
0.443084
0.443055
0.443017
0.442899
0.443001
0.443094
0.442985
0.443021
0.443032
0.443009
0.443024
0.442988
0.442869
0.44294
0.443017
0.442964
0.442957
0.442846
0.442922
0.442974
0.442934
0.442858
0.442785
0.442787
0.442665
0.381628
0.393833
0.406637
0.419485
0.430011
0.437447
0.441905
0.443785
0.444062
0.444018
0.444021
0.444018
0.443911
0.443941
0.444133
0.444144
0.44415
0.444107
0.444108
0.444074
0.444195
0.444285
0.444131
0.444176
0.444385
0.444264
0.44433
0.444461
0.444285
0.444347
0.444373
0.444338
0.444327
0.444241
0.444189
0.444072
0.443994
0.443862
0.443763
0.443683
0.443607
0.443552
0.443481
0.443403
0.443257
0.442975
0.442847
0.442796
0.442654
0.442708
0.442929
0.442828
0.442916
0.442977
0.442967
0.442966
0.442889
0.442795
0.442847
0.442893
0.442883
0.442867
0.442907
0.442949
0.44293
0.442927
0.442804
0.442858
0.4429
0.442858
0.442838
0.442947
0.443176
0.443221
0.443179
0.443195
0.443186
0.443098
0.44309
0.443034
0.443026
0.443006
0.442829
0.442802
0.443006
0.443087
0.443044
0.443058
0.443035
0.442801
0.381618
0.393851
0.406626
0.419519
0.429982
0.437423
0.441875
0.443763
0.444163
0.444165
0.44416
0.444074
0.444068
0.444018
0.444032
0.444136
0.444124
0.444036
0.444119
0.444405
0.444369
0.444485
0.444557
0.444369
0.444378
0.444471
0.444385
0.444452
0.444467
0.444441
0.444436
0.444403
0.444393
0.444353
0.444312
0.444257
0.444157
0.444062
0.443985
0.44383
0.443717
0.443654
0.443584
0.443435
0.443329
0.44327
0.443188
0.443145
0.443066
0.442986
0.442773
0.442697
0.442862
0.442948
0.442908
0.442766
0.442777
0.442923
0.44286
0.442938
0.442972
0.4429
0.442902
0.442899
0.442818
0.442782
0.44288
0.442866
0.442967
0.443244
0.443254
0.443262
0.443223
0.443084
0.443155
0.443274
0.443148
0.44322
0.443257
0.443165
0.443201
0.443213
0.443189
0.443181
0.443167
0.443051
0.442969
0.44293
0.442879
0.442715
0.381591
0.393862
0.406705
0.419376
0.430018
0.437621
0.441841
0.443438
0.443675
0.443684
0.44368
0.443474
0.443496
0.443551
0.443394
0.44336
0.443603
0.443793
0.443774
0.443695
0.44369
0.443941
0.444217
0.444195
0.444043
0.444108
0.444195
0.444189
0.44418
0.443935
0.443942
0.443965
0.443926
0.443891
0.443825
0.443768
0.44367
0.443519
0.443464
0.443451
0.443446
0.443409
0.443367
0.443338
0.443216
0.443043
0.442958
0.442879
0.44271
0.442512
0.442577
0.442796
0.442837
0.442795
0.442814
0.442802
0.4427
0.442618
0.442755
0.442876
0.442974
0.443075
0.442971
0.442981
0.442983
0.442956
0.442868
0.442839
0.442817
0.442892
0.442916
0.442897
0.442864
0.44289
0.442924
0.442795
0.442857
0.443012
0.443009
0.443017
0.442922
0.442908
0.44284
0.442942
0.443037
0.443008
0.442955
0.442903
0.442901
0.442754
0.381632
0.393818
0.406664
0.419442
0.430045
0.437454
0.441852
0.443791
0.444166
0.444145
0.44404
0.444
0.44406
0.444046
0.444062
0.444056
0.443993
0.443929
0.444032
0.444161
0.444167
0.444139
0.444068
0.444152
0.444419
0.444374
0.444421
0.44448
0.444469
0.444462
0.444371
0.444286
0.444229
0.444132
0.444081
0.444022
0.443966
0.443929
0.443884
0.443833
0.443771
0.443681
0.443601
0.443437
0.443277
0.4432
0.443102
0.443045
0.44295
0.442697
0.442596
0.442761
0.442861
0.442845
0.442844
0.44273
0.442773
0.442854
0.442733
0.442727
0.442725
0.44273
0.442637
0.442709
0.442827
0.442643
0.442689
0.442825
0.442811
0.442779
0.442755
0.442928
0.442945
0.443068
0.443133
0.443005
0.443052
0.443118
0.443115
0.44311
0.442964
0.442882
0.442895
0.442886
0.44291
0.442909
0.442815
0.442779
0.442797
0.442677
0.381629
0.393847
0.406604
0.419392
0.43018
0.437672
0.441705
0.442938
0.442955
0.442979
0.4433
0.443511
0.44353
0.443495
0.443305
0.44334
0.443646
0.443687
0.443615
0.443701
0.443956
0.443877
0.44386
0.44403
0.444119
0.444183
0.444441
0.44445
0.444455
0.444436
0.444409
0.444418
0.444423
0.444363
0.444241
0.444101
0.443999
0.443927
0.4438
0.443699
0.443634
0.443586
0.443503
0.443453
0.443409
0.443315
0.443076
0.442941
0.442919
0.442834
0.442922
0.442985
0.442975
0.442969
0.442819
0.442727
0.44275
0.442764
0.442731
0.442635