/*--------------------------------*- C++ -*----------------------------------*\
  =========                 |
  \\      /  F ield         | OpenFOAM: The Open Source CFD Toolbox
   \\    /   O peration     | Website:  https://openfoam.org
    \\  /    A nd           | Version:  11
     \\/     M anipulation  |
\*---------------------------------------------------------------------------*/
FoamFile
{
    format      ascii;
    class       volScalarField;
    location    "0.09";
    object      nut;
}
// * * * * * * * * * * * * * * * * * * * * * * * * * * * * * * * * * * * * * //

dimensions      [0 2 -1 0 0 0 0];

internalField   nonuniform List<scalar> 
287084
(
0.000836631
0.000864312
0.000893968
0.000923957
0.000949679
0.000967974
0.000978024
0.000981547
0.000982344
0.000982703
0.00098289
0.000982702
0.000982721
0.000983063
0.000982958
0.000983086
0.000983215
0.000983022
0.000983023
0.000982987
0.000982845
0.000982545
0.000982413
0.000982948
0.000983193
0.00098318
0.000983197
0.000983
0.000982881
0.000983024
0.000983411
0.00098347
0.000983353
0.000983701
0.000984037
0.000984125
0.000984353
0.000984618
0.000984859
0.000984978
0.00098498
0.000985061
0.000985015
0.000985072
0.000985046
0.000985072
0.000985111
0.00098508
0.000985079
0.000984984
0.000984606
0.000984492
0.000984842
0.000985011
0.000984999
0.000984915
0.00098492
0.000984907
0.000984837
0.00098447
0.000984535
0.000984742
0.00098464
0.000984358
0.000984309
0.000984984
0.000985136
0.000985003
0.000984614
0.000984526
0.000984798
0.000984877
0.00098474
0.000984309
0.000984305
0.000984615
0.00098442
0.000984604
0.000984855
0.0009848
0.000984762
0.000984552
0.00098434
0.000984547
0.000984906
0.000984754
0.000984822
0.000984828
0.000984691
0.000984075
0.00118253
0.00122055
0.00126042
0.00130039
0.00133459
0.00135888
0.00137216
0.00137613
0.00137639
0.00137692
0.0013779
0.00137752
0.00137773
0.0013782
0.00137809
0.00137788
0.00137771
0.00137727
0.00137694
0.00137679
0.00137661
0.00137626
0.00137646
0.00137748
0.00137729
0.00137764
0.00137791
0.00137783
0.00137801
0.00137812
0.00137816
0.00137796
0.001378
0.00137809
0.00137782
0.00137826
0.00137873
0.00137898
0.00137926
0.00137889
0.00137928
0.00137974
0.00137997
0.0013802
0.00138024
0.00138035
0.00137992
0.00137988
0.00138044
0.00138084
0.00138089
0.00138083
0.00138078
0.00138082
0.00138087
0.00138072
0.00138046
0.00138027
0.00138014
0.00138
0.00137983
0.00137937
0.00137963
0.00138024
0.00138027
0.00138012
0.00137952
0.00137971
0.00138017
0.00138003
0.00138
0.00137968
0.00137988
0.00138015
0.0013803
0.0013803
0.00137999
0.00137993
0.00137989
0.00137942
0.00137947
0.00137972
0.00137961
0.00137957
0.00137932
0.00137935
0.00137919
0.00137922
0.00137922
0.00137878
0.00118258
0.00122075
0.00126051
0.00130073
0.00133477
0.00135864
0.0013723
0.00137718
0.00137787
0.00137793
0.00137795
0.00137753
0.00137761
0.0013778
0.00137762
0.00137749
0.00137689
0.00137702
0.00137782
0.00137771
0.00137752
0.00137741
0.00137691
0.00137711
0.00137768
0.00137762
0.00137771
0.00137779
0.00137792
0.00137772
0.00137782
0.00137801
0.00137829
0.00137851
0.00137882
0.00137908
0.0013794
0.00137961
0.00137975
0.00137997
0.00137997
0.0013795
0.0013794
0.00137978
0.00138016
0.00138026
0.0013803
0.00138001
0.00138023
0.00138072
0.00138067
0.00138066
0.00138072
0.00138077
0.00138067
0.00138069
0.00138067
0.00138049
0.00138036
0.00138014
0.00137946
0.00137951
0.00137992
0.00137991
0.00137988
0.00137935
0.00137962
0.00138039
0.00138004
0.00138025
0.00138035
0.00138023
0.00138018
0.00138017
0.00138016
0.00138001
0.00137994
0.00137925
0.00137923
0.00137936
0.00137929
0.00137913
0.00137895
0.0013792
0.001379
0.0013793
0.0013798
0.00137976
0.0013797
0.00137893
0.00118257
0.00122079
0.00126085
0.00130098
0.00133494
0.00135888
0.00137265
0.00137783
0.00137847
0.00137827
0.00137812
0.00137841
0.00137858
0.00137842
0.00137829
0.0013779
0.00137769
0.0013771
0.00137715
0.00137753
0.00137716
0.00137714
0.00137695
0.00137647
0.00137656
0.00137699
0.00137706
0.00137714
0.00137696
0.00137678
0.00137735
0.0013781
0.00137795
0.00137848
0.00137894
0.00137924
0.00137957
0.00137982
0.00138011
0.00138022
0.00138052
0.00138067
0.00138088
0.001381
0.00138096
0.00138046
0.00138029
0.00138028
0.00138037
0.00138043
0.00138002
0.00138019
0.00138047
0.00138034
0.00138031
0.00138039
0.00138045
0.00138031
0.00137986
0.0013798
0.00138034
0.00138039
0.00138029
0.00138025
0.00138022
0.00137996
0.00137995
0.0013798
0.00137944
0.00137968
0.00138029
0.00138
0.0013801
0.00138013
0.00137997
0.00137969
0.00137949
0.0013797
0.00137965
0.00137997
0.00138031
0.00138017
0.00137987
0.00137969
0.00137982
0.00138002
0.00137992
0.00137985
0.00137981
0.001379
0.00118257
0.00122086
0.0012611
0.0013009
0.0013351
0.00135948
0.00137219
0.00137767
0.00137864
0.00137858
0.00137842
0.0013778
0.0013779
0.00137806
0.00137758
0.00137742
0.00137725
0.0013767
0.0013766
0.00137695
0.00137692
0.00137668
0.00137608
0.00137626
0.0013769
0.00137675
0.00137689
0.00137688
0.00137671
0.00137711
0.00137766
0.00137744
0.00137791
0.00137838
0.00137867
0.001379
0.0013791
0.0013789
0.00137931
0.0013799
0.00137988
0.00138038
0.00138071
0.00138078
0.00138108
0.00138122
0.00138122
0.00138139
0.00138152
0.00138152
0.00138152
0.00138137
0.00138129
0.00138106
0.0013809
0.00138078
0.00138052
0.00137984
0.00137946
0.00137979
0.00138004
0.00137993
0.00137983
0.00137969
0.00137952
0.00137935
0.00137887
0.00137891
0.00137958
0.00137968
0.00137952
0.00137902
0.00137917
0.00138004
0.0013798
0.0013801
0.00138043
0.00137989
0.00138003
0.00138027
0.00137987
0.00138008
0.00138018
0.00138007
0.00137998
0.00137938
0.0013795
0.00137969
0.00137954
0.00137901
0.00118259
0.00122091
0.00126095
0.00130102
0.0013356
0.00135943
0.001372
0.00137648
0.00137834
0.00137832
0.00137792
0.001378
0.001378
0.00137781
0.00137763
0.00137703
0.00137666
0.00137687
0.00137716
0.0013771
0.00137691
0.00137679
0.00137653
0.00137605
0.00137624
0.00137643
0.00137605
0.00137611
0.00137701
0.0013775
0.00137735
0.00137785
0.00137827
0.00137853
0.00137886
0.00137903
0.00137925
0.00137892
0.00137892
0.00137924
0.00137929
0.0013798
0.0013803
0.00138048
0.00138071
0.00138082
0.0013809
0.00138058
0.00138027
0.00138039
0.0013807
0.00138073
0.00138075
0.00138036
0.00138036
0.0013808
0.00138086
0.00138076
0.00138054
0.00138042
0.00138038
0.00138009
0.00138015
0.00138019
0.00138002
0.00137959
0.00137947
0.00137995
0.00137981
0.00138013
0.00138052
0.00138053
0.00138038
0.00138014
0.00138005
0.00137943
0.00137937
0.00137977
0.00137955
0.00137983
0.00138004
0.00137997
0.00137993
0.0013795
0.00137942
0.00137928
0.0013796
0.00137987
0.00137973
0.0013792
0.00118257
0.00122089
0.00126106
0.00130099
0.00133589
0.00135915
0.00137222
0.00137745
0.0013781
0.00137808
0.00137798
0.00137767
0.0013772
0.00137734
0.00137765
0.00137718
0.00137746
0.00137847
0.00137831
0.00137802
0.00137807
0.00137817
0.00137802
0.00137795
0.00137765
0.00137763
0.00137736
0.00137755
0.00137778
0.00137784
0.00137806
0.00137826
0.00137853
0.00137854
0.00137858
0.00137899
0.00137939
0.00137961
0.00137964
0.00137968
0.00138011
0.00138051
0.00138067
0.00138071
0.00138075
0.00138084
0.00138103
0.00138124
0.00138127
0.00138125
0.00138115
0.00138077
0.00138043
0.00138048
0.00138068
0.00138052
0.00138049
0.0013804
0.00137984
0.00137995
0.00138039
0.00138033
0.0013803
0.00138019
0.00138008
0.00137946
0.00137946
0.00137989
0.00138001
0.00137986
0.0013793
0.00137943
0.00137974
0.00137963
0.00137938
0.00137934
0.00137968
0.0013795
0.00137958
0.00137957
0.00137945
0.00137922
0.00137951
0.00137985
0.00137985
0.00137983
0.00137924
0.00137938
0.00137964
0.00137901
0.00118264
0.00122076
0.00126119
0.0013014
0.00133505
0.00135899
0.00137288
0.00137912
0.00138035
0.00138023
0.00137973
0.00137958
0.00137969
0.00137932
0.00137912
0.00137875
0.00137883
0.00137883
0.00137855
0.00137827
0.0013777
0.00137747
0.00137721
0.00137746
0.00137783
0.00137753
0.00137784
0.00137808
0.00137805
0.00137827
0.00137849
0.00137888
0.00137912
0.00137945
0.00137987
0.0013803
0.00138058
0.00138067
0.0013802
0.00138019
0.00138048
0.00138087
0.00138121
0.00138141
0.00138156
0.00138146
0.00138157
0.00138161
0.00138151
0.00138146
0.00138142
0.00138141
0.00138094
0.00138109
0.00138142
0.00138128
0.00138097
0.00138079
0.00138089
0.00138068
0.00138092
0.0013812
0.00138092
0.00138101
0.00138114
0.00138102
0.00138091
0.00138053
0.00138028
0.0013798
0.00137949
0.00138001
0.00138038
0.00138034
0.0013803
0.00137967
0.00137957
0.0013802
0.00138045
0.00138029
0.0013803
0.00138022
0.00137983
0.00137954
0.00137973
0.00137999
0.00137983
0.00137985
0.00137978
0.00137907
0.0011826
0.00122091
0.00126099
0.00130134
0.00133549
0.00135931
0.00137263
0.00137771
0.0013783
0.00137821
0.00137806
0.00137731
0.00137738
0.00137823
0.00137775
0.00137783
0.00137795
0.0013772
0.00137701
0.00137747
0.00137723
0.00137747
0.00137777
0.00137708
0.00137702
0.00137739
0.0013772
0.00137759
0.00137814
0.00137797
0.00137851
0.00137901
0.00137934
0.00137975
0.00137997
0.00138037
0.00138055
0.00138088
0.0013811
0.00138108
0.00138086
0.0013809
0.00138098
0.00138058
0.00138083
0.00138134
0.00138098
0.00138127
0.00138179
0.00138173
0.00138186
0.00138176
0.00138169
0.00138172
0.00138172
0.00138151
0.00138104
0.00138048
0.0013805
0.0013807
0.00138051
0.00137995
0.00137996
0.00138039
0.00138009
0.00138017
0.00138017
0.00138002
0.00137984
0.00137954
0.00138006
0.0013806
0.00138033
0.00138029
0.00138028
0.0013802
0.00137982
0.00137961
0.00137982
0.00137976
0.00138011
0.00138074
0.00138069
0.00138058
0.00138046
0.00138033
0.00138017
0.00138012
0.00137989
0.0013791
0.00118278
0.00122064
0.00126101
0.00130143
0.00133551
0.00135939
0.00137261
0.00137702
0.00137739
0.00137707
0.00137725
0.00137814
0.00137798
0.00137766
0.00137693
0.00137672
0.00137699
0.00137726
0.00137704
0.00137677
0.00137657
0.0013762
0.00137604
0.00137561
0.00137587
0.00137629
0.00137625
0.0013764
0.00137639
0.00137674
0.00137703
0.00137765
0.00137813
0.00137849
0.00137896
0.00137936
0.00137981
0.00138004
0.00138038
0.0013806
0.00138036
0.0013808
0.00138118
0.00138141
0.00138164
0.00138169
0.00138167
0.00138146
0.0013814
0.00138124
0.00138082
0.00138039
0.0013802
0.00138022
0.00138017
0.00137971
0.00137979
0.00137984
0.00137942
0.0013792
0.00137976
0.00138046
0.00138015
0.00138026
0.00138027
0.00138014
0.00138004
0.00137942
0.00137943
0.00137993
0.00137985
0.00137981
0.00137976
0.0013795
0.00137942
0.00137927
0.00137896
0.00137882
0.00137944
0.00138006
0.00137998
0.00137985
0.00137928
0.00137937
0.00137993
0.00137968
0.00137993
0.00138007
0.0013799
0.00137928
0.00118265
0.00122085
0.00126109
0.00130124
0.00133544
0.00135953
0.00137286
0.0013771
0.00137719
0.00137737
0.00137782
0.00137762
0.0013774
0.00137683
0.00137677
0.00137667
0.00137615
0.0013762
0.00137673
0.00137647
0.00137698
0.00137725
0.00137709
0.00137698
0.00137662
0.00137654
0.00137609
0.00137616
0.00137691
0.00137726
0.0013775
0.00137767
0.00137785
0.00137826
0.00137856
0.00137939
0.00138008
0.00138007
0.0013807
0.00138135
0.00138173
0.00138209
0.00138217
0.00138241
0.00138244
0.00138225
0.00138147
0.00138073
0.00138087
0.00138103
0.00138056
0.00138072
0.00138104
0.00138088
0.00138093
0.00138076
0.00138064
0.00138059
0.00138047
0.00137992
0.00138003
0.00138039
0.0013803
0.00138022
0.00137974
0.00137994
0.00138016
0.00138005
0.00137996
0.00137942
0.00137953
0.00137968
0.00137914
0.00137917
0.00137985
0.00138
0.00137991
0.00137983
0.00137931
0.00137934
0.00137965
0.00137917
0.00137918
0.00137997
0.0013802
0.00138005
0.00138006
0.00138007
0.00137997
0.00137923
0.00118256
0.00122094
0.00126107
0.00130123
0.00133559
0.00135927
0.00137266
0.00137816
0.00137885
0.00137878
0.0013786
0.00137816
0.00137771
0.00137796
0.00137834
0.00137768
0.00137765
0.00137756
0.00137724
0.00137703
0.00137658
0.00137692
0.00137704
0.00137685
0.00137668
0.00137643
0.0013769
0.00137732
0.00137746
0.0013778
0.00137824
0.00137874
0.00137918
0.0013796
0.00138006
0.00138041
0.00138091
0.00138147
0.00138199
0.00138223
0.00138235
0.00138236
0.0013824
0.00138208
0.00138164
0.00138134
0.00138134
0.00138134
0.00138131
0.0013812
0.00138091
0.0013805
0.00138069
0.00138093
0.00138118
0.00138123
0.00138071
0.00138084
0.00138107
0.00138086
0.00138082
0.00138066
0.00138047
0.00137976
0.00137968
0.0013804
0.00138048
0.00138032
0.00138012
0.0013798
0.00138007
0.00138039
0.00138026
0.00138011
0.00137968
0.00137989
0.00138006
0.00137994
0.00137983
0.0013794
0.0013796
0.00137992
0.0013798
0.00137944
0.0013795
0.00137993
0.00137988
0.00137987
0.00137979
0.00137917
0.00118268
0.00122069
0.00126132
0.00130137
0.00133506
0.00135912
0.00137327
0.00137839
0.00137877
0.00137863
0.00137889
0.0013789
0.00137878
0.00137839
0.001378
0.00137754
0.0013775
0.00137828
0.00137803
0.00137761
0.00137689
0.00137685
0.00137705
0.00137644
0.00137653
0.00137712
0.00137681
0.00137721
0.00137783
0.00137768
0.00137829
0.00137894
0.00137943
0.00138001
0.00138047
0.00138081
0.00138104
0.00138138
0.00138177
0.00138208
0.00138213
0.00138227
0.00138245
0.0013826
0.00138264
0.00138241
0.00138229
0.00138162
0.00138161
0.00138191
0.00138193
0.00138194
0.00138181
0.00138166
0.0013816
0.00138151
0.00138128
0.00138112
0.00138093
0.00138077
0.00138039
0.00138024
0.00138009
0.00138042
0.00138076
0.00138065
0.00138058
0.00138045
0.00138035
0.00137991
0.00137961
0.00137996
0.00138026
0.00138021
0.00138016
0.00137952
0.00137956
0.00138024
0.00138026
0.00138013
0.00137991
0.00137966
0.00137979
0.00138006
0.00138
0.00138
0.00137989
0.00137979
0.00137962
0.00137904
0.00118264
0.00122091
0.00126095
0.00130116
0.00133597
0.00135926
0.00137241
0.00137692
0.00137696
0.00137693
0.00137702
0.00137647
0.00137638
0.00137659
0.00137625
0.00137587
0.00137546
0.0013756
0.00137598
0.0013761
0.00137575
0.00137553
0.0013751
0.00137507
0.00137617
0.00137657
0.00137602
0.00137627
0.00137691
0.00137697
0.00137763
0.00137839
0.00137876
0.00137944
0.0013801
0.00138075
0.00138116
0.00138116
0.00138127
0.00138154
0.00138148
0.00138146
0.00138169
0.00138182
0.0013821
0.00138228
0.0013823
0.001382
0.00138218
0.00138243
0.00138242
0.00138238
0.0013822
0.00138193
0.0013817
0.0013813
0.00138103
0.00138085
0.00138042
0.00138063
0.00138086
0.00138071
0.00138059
0.00138007
0.00138008
0.00138024
0.00138011
0.00138009
0.00137988
0.00137933
0.00137934
0.00138018
0.00138037
0.00138027
0.00138016
0.00138002
0.00137993
0.00137975
0.00137962
0.00137945
0.00137914
0.00137954
0.00138048
0.00138038
0.0013804
0.00138035
0.00138007
0.00137993
0.00137986
0.00137936
0.00118264
0.00122079
0.00126118
0.0013015
0.00133507
0.0013589
0.00137327
0.00137871
0.00137917
0.00137922
0.00137933
0.00137886
0.00137849
0.00137823
0.00137784
0.00137778
0.00137758
0.00137706
0.00137687
0.00137659
0.00137601
0.00137578
0.00137637
0.00137642
0.0013761
0.00137652
0.00137707
0.00137671
0.00137723
0.00137783
0.00137777
0.00137854
0.00137926
0.0013795
0.00138016
0.00138095
0.00138173
0.00138229
0.00138271
0.00138298
0.00138314
0.00138319
0.00138272
0.00138229
0.00138198
0.00138192
0.00138191
0.00138174
0.00138159
0.00138159
0.00138158
0.00138153
0.00138129
0.00138087
0.00138081
0.00138066
0.00138087
0.0013814
0.00138124
0.00138109
0.00138074
0.00138032
0.00138054
0.00138089
0.00138073
0.0013804
0.00138051
0.00138096
0.00138083
0.00138066
0.00138
0.00138002
0.00138018
0.00138014
0.00138009
0.00137943
0.0013796
0.00138028
0.0013803
0.00138016
0.00137996
0.00137989
0.00137935
0.00137952
0.0013799
0.0013799
0.00137988
0.0013797
0.00137963
0.00137889
0.00118255
0.00122104
0.00126118
0.00130095
0.00133575
0.00135913
0.00137253
0.00137796
0.00137876
0.00137853
0.00137802
0.00137765
0.00137744
0.00137712
0.00137652
0.00137612
0.00137649
0.0013765
0.00137607
0.00137547
0.00137527
0.00137514
0.00137465
0.00137489
0.00137537
0.00137489
0.00137515
0.00137605
0.00137652
0.00137687
0.00137732
0.00137788
0.00137795
0.00137854
0.0013792
0.00137962
0.00138029
0.00138094
0.00138145
0.00138194
0.00138244
0.00138286
0.00138322
0.00138337
0.00138356
0.00138363
0.00138356
0.00138322
0.00138305
0.00138264
0.0013816
0.00138134
0.00138155
0.0013815
0.00138129
0.00138076
0.00138075
0.00138068
0.00138065
0.00138196
0.00138235
0.00138217
0.00138192
0.00138162
0.00138138
0.00138079
0.00138084
0.00138124
0.00138089
0.00138105
0.00138111
0.0013809
0.00138087
0.00138084
0.00138082
0.00138057
0.00137978
0.00137963
0.00137984
0.00137996
0.00137982
0.00137933
0.00137973
0.00138018
0.00138006
0.00137972
0.00137961
0.00137965
0.00137963
0.00137924
0.00118261
0.00122085
0.00126115
0.00130153
0.00133514
0.00135861
0.00137293
0.00137942
0.00138049
0.00138029
0.00137987
0.00137935
0.00137908
0.00137861
0.00137831
0.00137846
0.00137823
0.00137782
0.00137743
0.00137658
0.00137631
0.00137639
0.00137609
0.00137593
0.00137556
0.00137572
0.00137596
0.00137635
0.00137687
0.001377
0.00137781
0.00137854
0.0013791
0.00137996
0.00138062
0.00138133
0.00138208
0.00138277
0.00138319
0.00138354
0.00138385
0.00138399
0.00138365
0.00138328
0.00138301
0.00138289
0.0013828
0.00138275
0.0013826
0.00138224
0.00138131
0.00138098
0.00138112
0.00138124
0.00138104
0.00138046
0.00138081
0.00138158
0.00138136
0.00138138
0.00138133
0.00138111
0.00138055
0.00138065
0.00138084
0.00138033
0.00138021
0.00138067
0.00138071
0.0013806
0.00138053
0.00138033
0.00137991
0.00137994
0.00138053
0.00138053
0.00138038
0.00138035
0.00138018
0.00137961
0.00137944
0.00137995
0.00138025
0.00138009
0.00138006
0.00138005
0.00137997
0.00137989
0.00137969
0.00137899
0.00118261
0.00122088
0.00126103
0.00130164
0.00133507
0.00135864
0.00137321
0.00137913
0.00137978
0.00137993
0.00138024
0.00137989
0.00137951
0.0013789
0.00137815
0.00137783
0.00137755
0.00137684
0.0013767
0.00137672
0.00137594
0.00137585
0.00137629
0.00137568
0.00137564
0.00137647
0.00137677
0.001377
0.00137747
0.00137793
0.0013785
0.00137911
0.00137966
0.00138046
0.00138124
0.00138197
0.00138264
0.00138322
0.0013835
0.00138353
0.00138363
0.00138374
0.00138362
0.00138353
0.00138346
0.00138341
0.00138313
0.00138225
0.00138162
0.00138188
0.00138229
0.00138218
0.00138211
0.00138187
0.00138121
0.00138115
0.0013816
0.0013813
0.001381
0.00138086
0.00138061
0.00138061
0.0013814
0.00138158
0.00138128
0.00138129
0.00138139
0.00138123
0.00138099
0.00138063
0.00138007
0.00138033
0.00138096
0.00138072
0.00138065
0.00138051
0.00138068
0.00138072
0.00138037
0.00138036
0.00138035
0.00138025
0.00137956
0.0013796
0.00138005
0.00138012
0.00137999
0.00137981
0.00137973
0.00137894
0.00118263
0.00122078
0.00126124
0.00130145
0.00133503
0.00135889
0.00137283
0.00137902
0.00137995
0.00137964
0.00137944
0.00137902
0.00137844
0.00137803
0.00137814
0.00137779
0.00137722
0.00137677
0.00137604
0.001376
0.00137646
0.00137611
0.0013758
0.00137545
0.00137544
0.00137532
0.00137538
0.00137555
0.00137624
0.00137687
0.00137731
0.00137808
0.00137892
0.00137983
0.00138058
0.00138114
0.00138122
0.00138127
0.00138168
0.00138212
0.0013827
0.00138319
0.00138348
0.0013838
0.00138395
0.00138401
0.00138398
0.00138382
0.00138338
0.00138218
0.00138162
0.00138174
0.00138183
0.00138163
0.00138146
0.00138087
0.00138097
0.00138162
0.00138114
0.00138091
0.00138097
0.00138069
0.0013806
0.00138133
0.00138159
0.00138136
0.00138099
0.00138059
0.00138042
0.00138006
0.00137993
0.00138004
0.00138002
0.00137982
0.00138007
0.00138038
0.00138032
0.00138027
0.00137969
0.00137987
0.00138032
0.00138
0.00138013
0.00138015
0.00138004
0.00137988
0.00137983
0.00137974
0.00137954
0.00137885
0.00118246
0.00122104
0.00126119
0.00130127
0.00133515
0.00135915
0.00137292
0.00137821
0.00137876
0.00137835
0.00137797
0.00137761
0.00137722
0.00137707
0.00137688
0.00137634
0.00137554
0.00137515
0.00137552
0.0013753
0.00137484
0.00137428
0.00137416
0.00137522
0.00137593
0.00137558
0.00137604
0.00137655
0.00137669
0.00137726
0.00137798
0.0013788
0.00137962
0.00138044
0.00138125
0.00138209
0.0013827
0.00138324
0.00138364
0.00138402
0.00138412
0.00138421
0.00138425
0.00138406
0.00138395
0.00138345
0.00138301
0.00138259
0.00138239
0.00138214
0.00138166
0.00138102
0.00138145
0.00138272
0.00138255
0.00138234
0.00138261
0.00138331
0.00138311
0.00138296
0.00138273
0.0013826
0.0013823
0.00138168
0.00138141
0.0013815
0.00138159
0.00138144
0.00138129
0.00138118
0.00138063
0.00138078
0.00138111
0.00138096
0.00138089
0.00138075
0.0013807
0.00138053
0.00138045
0.00138029
0.00137988
0.00137994
0.00138002
0.00137952
0.00137963
0.00137967
0.00137948
0.00137946
0.00137931
0.0013787
0.00118262
0.00122091
0.00126107
0.00130118
0.00133545
0.0013596
0.00137247
0.00137628
0.00137636
0.00137649
0.00137738
0.00137705
0.00137668
0.00137627
0.00137556
0.00137529
0.00137548
0.00137492
0.00137446
0.00137394
0.00137398
0.00137533
0.0013751
0.00137534
0.00137588
0.00137569
0.00137591
0.0013764
0.00137685
0.0013773
0.00137805
0.00137875
0.00137958
0.00138054
0.00138143
0.001382
0.00138211
0.00138239
0.00138282
0.00138323
0.00138358
0.00138388
0.00138409
0.00138424
0.00138417
0.00138368
0.00138325
0.00138297
0.0013822
0.00138193
0.00138198
0.00138164
0.00138175
0.00138178
0.00138157
0.00138139
0.00138087
0.00138054
0.00138047
0.00138034
0.00137981
0.00137983
0.00138005
0.00137992
0.0013798
0.00137917
0.00137931
0.00137963
0.0013795
0.00137936
0.00137919
0.00137972
0.00138054
0.00138065
0.00138044
0.00138035
0.00138036
0.00138035
0.00138015
0.00137961
0.00137962
0.00137998
0.00137991
0.00137987
0.00137978
0.00137974
0.00137955
0.00137926
0.0013791
0.0013786
0.00118269
0.00122067
0.00126134
0.00130131
0.00133501
0.00135905
0.00137304
0.00137866
0.00137933
0.00137917
0.00137888
0.00137802
0.00137763
0.00137799
0.0013778
0.00137702
0.00137678
0.00137648
0.00137597
0.00137552
0.00137481
0.00137495
0.00137543
0.00137557
0.00137567
0.0013755
0.00137568
0.00137573
0.00137647
0.0013772
0.00137789
0.00137875
0.00137956
0.00138043
0.0013811
0.00138184
0.00138237
0.0013829
0.00138337
0.00138384
0.00138413
0.00138438
0.00138449
0.00138454
0.00138458
0.00138451
0.0013842
0.00138351
0.00138256
0.00138216
0.00138197
0.00138171
0.0013812
0.00138106
0.0013822
0.00138254
0.00138203
0.00138185
0.00138203
0.00138189
0.00138215
0.00138228
0.00138159
0.00138152
0.00138205
0.00138197
0.00138168
0.00138175
0.00138171
0.00138145
0.00138134
0.001381
0.00138064
0.00138051
0.00138026
0.0013805
0.00138113
0.00138057
0.00138055
0.00138098
0.00138094
0.00138116
0.00138121
0.00138103
0.001381
0.00138096
0.00138083
0.00138068
0.00138038
0.00137931
0.00118263
0.00122083
0.0012611
0.00130158
0.0013349
0.00135892
0.00137313
0.00137847
0.00138011
0.00137997
0.001379
0.00137876
0.0013787
0.00137818
0.00137772
0.00137689
0.00137674
0.00137678
0.00137587
0.00137552
0.00137599
0.00137576
0.0013752
0.00137523
0.0013758
0.00137549
0.00137596
0.00137661
0.00137696
0.00137761
0.00137821
0.00137908
0.00138005
0.00138104
0.00138189
0.00138251
0.00138292
0.00138335
0.0013837
0.00138341
0.00138319
0.00138337
0.00138331
0.00138337
0.00138344
0.00138346
0.0013833
0.00138266
0.00138246
0.0013827
0.00138268
0.00138243
0.00138194
0.0013816
0.00138212
0.00138334
0.00138315
0.00138271
0.00138277
0.00138316
0.00138308
0.00138283
0.00138246
0.0013823
0.00138175
0.00138178
0.00138176
0.00138155
0.00138145
0.00138124
0.00138079
0.00138079
0.00138125
0.00138076
0.00138067
0.00138131
0.00138146
0.00138127
0.0013809
0.00138063
0.00138055
0.00138014
0.00138029
0.00138084
0.00138083
0.00138069
0.0013805
0.00138039
0.00138017
0.00137937
0.00118264
0.00122097
0.0012608
0.00130146
0.00133544
0.00135925
0.00137248
0.00137724
0.00137763
0.00137701
0.00137686
0.00137688
0.00137633
0.00137592
0.00137532
0.00137533
0.00137581
0.00137531
0.00137549
0.00137637
0.00137633
0.00137587
0.00137532
0.00137525
0.00137524
0.00137518
0.00137501
0.00137546
0.00137628
0.00137671
0.00137759
0.0013784
0.00137928
0.00138017
0.00138117
0.00138202
0.00138283
0.00138348
0.00138376
0.00138368
0.00138383
0.00138348
0.00138325
0.00138327
0.00138333
0.00138322
0.00138253
0.00138254
0.00138262
0.00138212
0.00138216
0.00138207
0.00138146
0.00138148
0.00138147
0.00138106
0.00138088
0.00138069
0.00138026
0.00138033
0.0013807
0.00138039
0.00138024
0.00137995
0.0013803
0.00138117
0.00138108
0.00138105
0.00138086
0.00138053
0.0013801
0.00138006
0.00138029
0.00138023
0.00138039
0.00138036
0.00138026
0.00138013
0.00137963
0.00137974
0.00138012
0.00137997
0.00137994
0.00137986
0.00137943
0.00137938
0.00137995
0.00138001
0.0013799
0.00137923
0.00118254
0.00122089
0.00126127
0.00130111
0.00133531
0.00135909
0.00137284
0.00137829
0.00137902
0.00137867
0.0013784
0.00137805
0.00137739
0.00137722
0.00137725
0.00137662
0.00137611
0.00137525
0.0013749
0.00137509
0.00137459
0.00137422
0.00137387
0.00137414
0.00137467
0.00137424
0.00137446
0.00137576
0.0013766
0.00137722
0.00137804
0.00137883
0.00137964
0.00138046
0.00138119
0.00138187
0.00138253
0.00138311
0.00138362
0.00138411
0.00138431
0.00138439
0.00138445
0.00138452
0.00138432
0.00138394
0.00138344
0.00138311
0.00138292
0.00138258
0.00138184
0.00138126
0.00138161
0.0013819
0.00138149
0.00138146
0.00138134
0.00138102
0.00138055
0.00137998
0.00137994
0.00138062
0.00138048
0.0013799
0.00137966
0.00138017
0.00138047
0.00138039
0.00138029
0.0013799
0.00137971
0.00137951
0.00137906
0.00137911
0.00137957
0.00137949
0.0013792
0.00137912
0.00137957
0.00137981
0.00137965
0.00137914
0.00137925
0.00137938
0.00137911
0.00137956
0.00138002
0.00137996
0.00137993
0.00137912
0.00118266
0.00122072
0.00126127
0.00130138
0.00133497
0.00135902
0.00137315
0.00137822
0.00137854
0.00137847
0.00137881
0.0013785
0.00137787
0.0013778
0.00137795
0.00137705
0.00137683
0.00137697
0.001376
0.00137577
0.0013759
0.0013752
0.00137476
0.00137488
0.00137496
0.00137533
0.00137601
0.00137593
0.00137665
0.00137755
0.00137832
0.00137925
0.00138011
0.0013811
0.0013819
0.0013824
0.00138265
0.00138305
0.00138339
0.00138368
0.00138397
0.00138417
0.00138436
0.0013845
0.00138457
0.00138457
0.0013844
0.00138394
0.00138304
0.00138206
0.00138191
0.00138181
0.00138157
0.0013812
0.00138125
0.00138148
0.00138131
0.00138112
0.00138035
0.00138022
0.0013804
0.00138023
0.0013801
0.00137998
0.00137965
0.00137979
0.00138037
0.00138009
0.00138
0.00137981
0.00137976
0.00137969
0.00137958
0.00137926
0.00137959
0.00138019
0.00138005
0.00137978
0.00137961
0.00137992
0.00137997
0.00137987
0.00137981
0.00137931
0.0013794
0.00137971
0.00137955
0.00137958
0.00137943
0.00137886
0.00118261
0.00122088
0.00126101
0.00130163
0.00133501
0.00135866
0.00137299
0.0013793
0.00138024
0.00137993
0.00137966
0.00137926
0.0013786
0.00137794
0.00137783
0.00137754
0.00137679
0.00137655
0.00137653
0.00137564
0.00137548
0.00137581
0.00137515
0.00137485
0.00137506
0.00137514
0.00137576
0.00137637
0.00137648
0.00137727
0.00137819
0.00137892
0.0013799
0.00138092
0.0013819
0.00138264
0.00138316
0.00138348
0.00138381
0.00138415
0.00138444
0.0013847
0.00138481
0.00138493
0.0013849
0.00138451
0.00138433
0.00138385
0.00138351
0.00138331
0.00138309
0.00138271
0.00138178
0.00138173
0.00138292
0.00138363
0.00138365
0.00138319
0.00138326
0.00138321
0.00138291
0.00138228
0.00138216
0.00138233
0.0013818
0.00138186
0.00138197
0.00138175
0.0013817
0.00138166
0.0013816
0.00138135
0.00138067
0.00138066
0.00138071
0.0013804
0.00138035
0.00138029
0.00137998
0.00138008
0.00138052
0.00138052
0.00138047
0.00137987
0.00137976
0.00138012
0.00138029
0.0013802
0.00138011
0.00137942
0.00118263
0.00122083
0.0012611
0.00130158
0.0013349
0.00135892
0.00137313
0.00137848
0.00138012
0.00137998
0.00137911
0.00137861
0.00137863
0.00137847
0.00137791
0.00137706
0.00137676
0.00137679
0.00137613
0.00137566
0.00137503
0.00137488
0.00137534
0.00137496
0.00137493
0.00137589
0.00137645
0.00137672
0.00137726
0.00137787
0.00137861
0.00137939
0.00138027
0.00138106
0.00138184
0.00138236
0.00138283
0.00138333
0.0013837
0.00138341
0.00138329
0.00138313
0.00138327
0.0013833
0.00138338
0.00138339
0.00138327
0.00138274
0.00138252
0.00138272
0.0013828
0.00138252
0.00138175
0.00138158
0.00138233
0.0013823
0.00138204
0.00138245
0.00138293
0.00138268
0.00138262
0.00138251
0.00138238
0.00138206
0.00138136
0.00138115
0.00138138
0.00138152
0.00138137
0.00138129
0.00138108
0.00138066
0.00138052
0.00138023
0.00138049
0.00138094
0.00138041
0.00138058
0.00138074
0.00138064
0.00138061
0.0013805
0.00138043
0.00138013
0.00137998
0.00137931
0.00137934
0.00137979
0.00137974
0.00137927
0.00118269
0.00122066
0.00126135
0.00130131
0.00133497
0.00135919
0.00137283
0.00137867
0.00137945
0.00137881
0.00137872
0.00137875
0.00137832
0.00137792
0.00137725
0.00137702
0.00137655
0.00137646
0.00137626
0.00137544
0.00137498
0.00137535
0.0013757
0.00137532
0.00137541
0.00137566
0.0013758
0.00137607
0.00137597
0.00137667
0.00137754
0.00137818
0.00137912
0.00137997
0.00138094
0.00138194
0.00138287
0.00138366
0.00138424
0.00138445
0.00138436
0.00138433
0.00138432
0.00138429
0.00138431
0.00138425
0.00138392
0.00138298
0.00138215
0.0013821
0.00138229
0.00138205
0.00138142
0.00138128
0.00138244
0.00138285
0.00138262
0.00138223
0.00138225
0.00138284
0.00138276
0.00138261
0.00138188
0.00138179
0.00138197
0.00138164
0.00138154
0.00138176
0.0013817
0.00138147
0.00138094
0.00138078
0.00138098
0.00138089
0.00138097
0.00138109
0.00138097
0.00138086
0.00138027
0.00138017
0.00138058
0.00138043
0.00138066
0.00138085
0.00138081
0.00138078
0.00138057
0.00138053
0.00138028
0.00137935
0.00118264
0.00122088
0.00126106
0.00130123
0.00133546
0.00135935
0.00137257
0.0013771
0.00137743
0.00137694
0.00137682
0.00137713
0.00137666
0.00137654
0.00137623
0.00137572
0.00137519
0.00137504
0.00137508
0.00137427
0.00137386
0.00137448
0.00137543
0.00137522
0.00137491
0.00137512
0.00137562
0.00137527
0.0013757
0.00137654
0.00137739
0.00137825
0.00137889
0.00137984
0.0013808
0.00138173
0.00138234
0.00138303
0.00138352
0.00138357
0.00138347
0.00138357
0.00138366
0.00138334
0.00138324
0.00138313
0.00138245
0.00138247
0.00138272
0.00138248
0.00138213
0.00138211
0.00138224
0.00138205
0.00138177
0.00138175
0.00138178
0.0013816
0.00138142
0.00138067
0.00138034
0.00138074
0.00138092
0.00138067
0.00138005
0.00137984
0.00138023
0.00138005
0.00138033
0.00138055
0.00138048
0.00138041
0.0013799
0.00137969
0.00137984
0.00137968
0.00137985