/*--------------------------------*- C++ -*----------------------------------*\
  =========                 |
  \\      /  F ield         | OpenFOAM: The Open Source CFD Toolbox
   \\    /   O peration     | Website:  https://openfoam.org
    \\  /    A nd           | Version:  11
     \\/     M anipulation  |
\*---------------------------------------------------------------------------*/
FoamFile
{
    format      ascii;
    class       volScalarField;
    location    "0.09";
    object      omega;
}
// * * * * * * * * * * * * * * * * * * * * * * * * * * * * * * * * * * * * * //

dimensions      [0 0 -1 0 0 0 0];

internalField   nonuniform List<scalar> 
287084
(
55.0146
55.8964
56.8145
57.7027
58.4226
58.8984
59.1324
59.1912
59.1931
59.1927
59.1915
59.1843
59.1863
59.1983
59.1952
59.1996
59.2045
59.2023
59.2032
59.2041
59.2034
59.193
59.1914
59.2118
59.2173
59.2165
59.2162
59.2084
59.2051
59.209
59.2175
59.215
59.2052
59.2082
59.21
59.2064
59.2066
59.2055
59.2045
59.2009
59.1938
59.1904
59.1835
59.1801
59.1748
59.1716
59.169
59.1649
59.1621
59.1576
59.1432
59.1414
59.1537
59.1548
59.1564
59.156
59.157
59.1547
59.1503
59.1425
59.1466
59.1532
59.1509
59.1429
59.1442
59.1664
59.1693
59.1662
59.1555
59.156
59.164
59.1665
59.1644
59.1516
59.1538
59.1643
59.1581
59.1642
59.1715
59.1697
59.1676
59.161
59.1572
59.1661
59.1765
59.1735
59.1752
59.1759
59.1729
59.1554
55.0155
55.8964
56.8029
57.6852
58.4078
58.8959
59.1441
59.2055
59.2032
59.2116
59.2304
59.2217
59.2273
59.2356
59.2364
59.234
59.2301
59.2227
59.2187
59.2178
59.2165
59.2132
59.2212
59.2447
59.2396
59.2462
59.2504
59.2467
59.2456
59.2442
59.2434
59.233
59.2274
59.2241
59.214
59.2182
59.2213
59.2197
59.2189
59.2053
59.2076
59.2114
59.2104
59.2102
59.2059
59.204
59.1895
59.1875
59.1989
59.204
59.2025
59.1997
59.1997
59.1978
59.1954
59.1915
59.186
59.1823
59.18
59.1778
59.1753
59.1682
59.1765
59.1873
59.1876
59.1876
59.1765
59.1822
59.1924
59.1917
59.1921
59.1849
59.1896
59.1934
59.1968
59.1994
59.1948
59.1948
59.1943
59.1836
59.1857
59.1915
59.1884
59.1882
59.1829
59.1821
59.1813
59.1826
59.1827
59.1746
55.0156
55.8963
56.7999
57.6868
58.4045
58.8849
59.1449
59.2251
59.2317
59.231
59.2288
59.2209
59.2243
59.2295
59.2271
59.2267
59.2175
59.2245
59.2418
59.2422
59.2402
59.238
59.2308
59.2374
59.2495
59.2491
59.2501
59.2471
59.245
59.2395
59.2396
59.2392
59.24
59.2388
59.2394
59.236
59.2337
59.2331
59.2292
59.2255
59.2193
59.2023
59.1979
59.2021
59.2027
59.2029
59.2012
59.1912
59.1941
59.2024
59.1976
59.1964
59.1967
59.1968
59.1963
59.1967
59.1936
59.1871
59.1846
59.1809
59.169
59.1725
59.1821
59.1814
59.1813
59.1716
59.1796
59.1964
59.1899
59.1947
59.1969
59.1944
59.1941
59.1948
59.1952
59.1922
59.1909
59.1775
59.1786
59.1822
59.1806
59.175
59.1733
59.1824
59.1772
59.1839
59.1942
59.1927
59.1905
59.1756
55.0147
55.8946
56.803
57.6848
58.3986
58.8803
59.1432
59.2311
59.2377
59.2313
59.2294
59.2388
59.2433
59.2417
59.2412
59.2347
59.2323
59.2248
59.2298
59.2406
59.2333
59.233
59.2328
59.2245
59.2274
59.2366
59.2351
59.2329
59.2254
59.2201
59.2303
59.2404
59.2322
59.2373
59.2399
59.2393
59.2392
59.2372
59.2368
59.232
59.2309
59.228
59.2268
59.2237
59.2176
59.2021
59.1951
59.1948
59.1965
59.1949
59.1832
59.1857
59.1903
59.186
59.1853
59.1872
59.1884
59.1854
59.176
59.1771
59.1887
59.1888
59.1895
59.1878
59.1868
59.1818
59.1813
59.1812
59.1759
59.1824
59.1954
59.1906
59.1927
59.1936
59.1912
59.1832
59.1816
59.19
59.1888
59.1954
59.2022
59.1998
59.1911
59.1895
59.1938
59.1953
59.1955
59.1943
59.1931
59.1773
55.0144
55.8942
56.8051
57.679
58.399
58.8882
59.1282
59.2255
59.2368
59.2368
59.2367
59.2242
59.2288
59.2343
59.228
59.2285
59.2277
59.218
59.2198
59.2287
59.2306
59.2284
59.2165
59.223
59.2367
59.2314
59.2312
59.2311
59.2264
59.2307
59.2373
59.2277
59.2317
59.2347
59.2339
59.2335
59.227
59.2161
59.2191
59.2246
59.2186
59.2224
59.2232
59.2189
59.2188
59.2184
59.2172
59.2173
59.2174
59.2148
59.2105
59.206
59.2031
59.1975
59.1939
59.1915
59.1861
59.1708
59.166
59.1755
59.1805
59.1784
59.1745
59.1723
59.1694
59.169
59.161
59.1639
59.1781
59.1805
59.1783
59.1681
59.174
59.1942
59.1887
59.1957
59.2025
59.192
59.1955
59.2009
59.1935
59.1982
59.2001
59.1975
59.1942
59.1836
59.1873
59.1912
59.1881
59.1776
55.0146
55.8947
56.801
57.6808
58.4069
58.8824
59.1184
59.1956
59.2309
59.2307
59.2231
59.227
59.2295
59.2282
59.2277
59.2168
59.2138
59.2241
59.2301
59.2339
59.2325
59.2296
59.2252
59.2187
59.2248
59.228
59.2194
59.2195
59.2362
59.2406
59.2333
59.238
59.24
59.2381
59.2378
59.2331
59.2292
59.213
59.2081
59.2104
59.2038
59.2078
59.212
59.21
59.2097
59.2077
59.2057
59.1943
59.1871
59.1892
59.1943
59.1928
59.1913
59.1842
59.1854
59.1936
59.1947
59.1924
59.1885
59.189
59.1875
59.1819
59.1838
59.1855
59.1827
59.1743
59.1747
59.1876
59.184
59.1913
59.1974
59.1976
59.1977
59.1927
59.1916
59.1799
59.1809
59.1912
59.1857
59.192
59.1961
59.1946
59.1938
59.1863
59.1863
59.1834
59.1899
59.1952
59.1922
59.1817
55.014
55.8937
56.8022
57.6788
58.4108
58.8742
59.1231
59.2141
59.2223
59.2223
59.2222
59.2176
59.2114
59.2203
59.2299
59.2245
59.2361
59.2581
59.259
59.2581
59.2614
59.2656
59.264
59.2633
59.2566
59.2545
59.2495
59.252
59.2533
59.2497
59.2496
59.2497
59.2479
59.2371
59.2315
59.2328
59.2329
59.2295
59.2193
59.2148
59.2178
59.2193
59.2168
59.2097
59.208
59.208
59.2068
59.2057
59.2037
59.2014
59.1985
59.1885
59.1829
59.1848
59.1889
59.1873
59.1873
59.1847
59.1724
59.1768
59.1868
59.1854
59.1851
59.1834
59.1831
59.1715
59.1736
59.1823
59.1833
59.1834
59.1732
59.177
59.184
59.1826
59.1781
59.1792
59.188
59.1843
59.1848
59.185
59.1839
59.1794
59.1866
59.1935
59.1934
59.1933
59.1815
59.1851
59.1904
59.1782
55.0157
55.8905
56.8057
57.6859
58.3906
58.8716
59.1386
59.2512
59.2704
59.2687
59.2599
59.2613
59.268
59.264
59.2644
59.2602
59.2657
59.2691
59.2664
59.2612
59.2552
59.2557
59.2521
59.2586
59.2664
59.2603
59.265
59.2669
59.2644
59.2648
59.2614
59.2605
59.2605
59.2618
59.2601
59.2576
59.2545
59.2477
59.2279
59.2229
59.2244
59.2239
59.2235
59.222
59.2214
59.2144
59.2121
59.2097
59.2054
59.2054
59.2031
59.2002
59.1917
59.1959
59.2027
59.2003
59.1914
59.1902
59.1963
59.1917
59.1974
59.2037
59.2001
59.202
59.2057
59.2036
59.1996
59.1924
59.1881
59.1785
59.1757
59.1906
59.1978
59.1973
59.1969
59.1849
59.1852
59.1995
59.2038
59.2024
59.2036
59.2009
59.1897
59.1859
59.1916
59.197
59.1954
59.1968
59.1941
59.1788
55.0147
55.8936
56.8005
57.6848
58.4
58.8766
59.1296
59.217
59.2245
59.2232
59.2225
59.2113
59.2189
59.2422
59.2351
59.2414
59.2481
59.2368
59.2386
59.254
59.2513
59.2593
59.2673
59.2539
59.2546
59.2631
59.2561
59.2614
59.2688
59.2603
59.2654
59.2681
59.2667
59.2664
59.2612
59.2598
59.2536
59.2502
59.2454
59.2357
59.2231
59.2173
59.2131
59.2011
59.2033
59.2107
59.1988
59.2027
59.2117
59.2077
59.2072
59.2069
59.2074
59.2062
59.2038
59.2
59.1899
59.1813
59.1841
59.1892
59.1863
59.1751
59.1782
59.1891
59.1834
59.1852
59.1861
59.1837
59.1784
59.1754
59.1906
59.2014
59.1975
59.1976
59.1983
59.1975
59.1866
59.184
59.1926
59.1911
59.199
59.2095
59.2105
59.2081
59.2037
59.2034
59.1998
59.199
59.1945
59.1791
55.0189
55.8871
56.8014
57.6866
58.4
58.8776
59.1274
59.2002
59.2038
59.2001
59.2082
59.229
59.2302
59.23
59.2185
59.2201
59.2304
59.2383
59.2404
59.2389
59.2388
59.2336
59.2329
59.227
59.2341
59.2418
59.2408
59.2414
59.2363
59.2389
59.2376
59.2417
59.2423
59.24
59.2399
59.2378
59.2365
59.2307
59.2272
59.2234
59.212
59.2145
59.216
59.2149
59.2148
59.2112
59.2054
59.1983
59.1952
59.1905
59.1801
59.1708
59.1697
59.1732
59.1718
59.1618
59.1644
59.1664
59.157
59.1547
59.1713
59.1858
59.1811
59.1838
59.1851
59.1831
59.1814
59.1707
59.1735
59.1862
59.1852
59.1856
59.1847
59.1774
59.175
59.1742
59.1678
59.1669
59.1839
59.1936
59.1938
59.1937
59.1808
59.1842
59.1971
59.1915
59.1964
59.1992
59.1956
59.1831
55.016
55.892
56.8023
57.6819
58.3986
58.8809
59.1324
59.2034
59.2015
59.2069
59.2196
59.2187
59.2186
59.213
59.2166
59.2194
59.2154
59.2224
59.2389
59.2388
59.255
59.2626
59.2614
59.2605
59.2527
59.2499
59.2404
59.2408
59.2514
59.2515
59.2501
59.2419
59.2373
59.2382
59.2331
59.2391
59.2419
59.2315
59.2345
59.2386
59.2377
59.2373
59.2315
59.2292
59.2244
59.2157
59.1947
59.18
59.1829
59.1849
59.1752
59.1786
59.1855
59.1817
59.1816
59.1813
59.1814
59.1818
59.1809
59.1694
59.1739
59.1826
59.1815
59.1809
59.1733
59.1793
59.1846
59.1829
59.1819
59.1726
59.1764
59.1802
59.1704
59.173
59.1878
59.1911
59.1894
59.1867
59.1781
59.1807
59.1882
59.178
59.1799
59.1971
59.201
59.1998
59.2008
59.1987
59.1946
59.1817
55.0138
55.8942
56.8018
57.6819
58.4016
58.8745
59.1302
59.2268
59.2363
59.2359
59.2358
59.2301
59.2265
59.2403
59.2528
59.245
59.2502
59.2536
59.252
59.2504
59.248
59.2617
59.2663
59.2637
59.2584
59.255
59.265
59.2695
59.2689
59.2698
59.2687
59.2671
59.2653
59.2651
59.2623
59.2585
59.2597
59.258
59.2552
59.2499
59.2429
59.2351
59.2285
59.2152
59.2009
59.1913
59.1888
59.1867
59.1845
59.1812
59.1744
59.1686
59.1748
59.1783
59.1848
59.1891
59.1802
59.1846
59.1907
59.1871
59.1863
59.1844
59.1832
59.1705
59.1723
59.189
59.1907
59.1887
59.1831
59.1794
59.1884
59.1955
59.193
59.1879
59.1822
59.1892
59.1929
59.1904
59.1861
59.1801
59.1867
59.1935
59.1913
59.1839
59.1869
59.1969
59.1966
59.1968
59.1937
59.1809
55.0164
55.8888
56.808
57.6838
58.3895
58.8732
59.144
59.2309
59.2317
59.2329
59.244
59.2463
59.2489
59.2489
59.2466
59.2434
59.2518
59.2727
59.2736
59.2707
59.2603
59.265
59.2723
59.262
59.2659
59.2785
59.2687
59.2735
59.2804
59.2702
59.274
59.2767
59.2751
59.2748
59.2706
59.2624
59.2543
59.2496
59.2463
59.2421
59.2333
59.2283
59.2251
59.2222
59.2181
59.2093
59.2043
59.19
59.1908
59.1976
59.1974
59.1958
59.1944
59.1945
59.1935
59.1905
59.1865
59.1848
59.1825
59.1807
59.177
59.1782
59.1766
59.1851
59.1931
59.1915
59.1914
59.1899
59.1892
59.18
59.176
59.1868
59.1933
59.1928
59.1926
59.1806
59.1837
59.1977
59.1983
59.1977
59.1909
59.1869
59.1914
59.1974
59.1959
59.194
59.1917
59.1899
59.187
59.1778
55.0158
55.8932
56.7989
57.6811
58.4101
58.8738
59.123
59.2003
59.1977
59.1989
59.2057
59.1984
59.2026
59.2136
59.2129
59.209
59.2083
59.2206
59.2327
59.2431
59.2428
59.2436
59.2371
59.24
59.2657
59.2713
59.2572
59.2591
59.2672
59.2597
59.2634
59.2675
59.2641
59.2655
59.2632
59.2601
59.2553
59.2409
59.2309
59.2251
59.2137
59.2051
59.203
59.2025
59.204
59.2042
59.2033
59.1947
59.1974
59.2022
59.2021
59.2021
59.1988
59.1922
59.1889
59.182
59.181
59.1815
59.1735
59.1803
59.1862
59.1843
59.1815
59.1744
59.1773
59.1822
59.1808
59.1796
59.177
59.1685
59.1723
59.191
59.1951
59.1936
59.1923
59.1924
59.1891
59.1835
59.1815
59.1782
59.1749
59.1872
59.2068
59.206
59.2071
59.2048
59.1962
59.1956
59.1967
59.1861
55.0157
55.8909
56.8048
57.6869
58.3895
58.8689
59.1454
59.2394
59.242
59.2462
59.2554
59.2496
59.2485
59.2525
59.2507
59.2558
59.258
59.2559
59.2578
59.2582
59.2533
59.2545
59.2714
59.2736
59.2693
59.278
59.2862
59.2739
59.2783
59.2816
59.2698
59.2736
59.2747
59.266
59.2661
59.2659
59.2657
59.2651
59.2597
59.2519
59.2447
59.2364
59.218
59.2029
59.1922
59.1879
59.1857
59.1804
59.1789
59.1816
59.1814
59.1802
59.1743
59.1686
59.1721
59.1707
59.1773
59.19
59.1897
59.1867
59.179
59.1745
59.1832
59.192
59.1904
59.1851
59.1901
59.1983
59.1987
59.1987
59.1845
59.1865
59.1911
59.1908
59.1906
59.178
59.1838
59.1966
59.1966
59.1966
59.1923
59.1914
59.1814
59.1863
59.1944
59.1942
59.1942
59.1901
59.1884
59.1746
55.0138
55.8967
56.8036
57.6758
58.4057
58.8719
59.1284
59.2243
59.2367
59.2345
59.2255
59.2253
59.2303
59.2298
59.2239
59.224
59.2405
59.2465
59.2449
59.2394
59.2416
59.2443
59.2397
59.2484
59.2591
59.2481
59.252
59.2643
59.2647
59.2648
59.2623
59.2601
59.2449
59.2413
59.2394
59.2346
59.2354
59.2318
59.2294
59.2299
59.2298
59.2274
59.2268
59.2235
59.2217
59.2195
59.2164
59.2074
59.2028
59.1939
59.1721
59.1718
59.1791
59.1793
59.179
59.1693
59.1707
59.1711
59.1754
59.2078
59.2157
59.2132
59.2077
59.203
59.2015
59.1925
59.1965
59.2069
59.2012
59.2055
59.2075
59.2061
59.2073
59.2057
59.2043
59.2003
59.1851
59.1852
59.1894
59.1896
59.1896
59.1808
59.1909
59.2001
59.1976
59.1882
59.1881
59.1919
59.1906
59.183
55.015
55.8923
56.8041
57.6881
58.3909
58.8625
59.1403
59.2585
59.2754
59.2734
59.2668
59.2634
59.2677
59.2644
59.2662
59.2761
59.2794
59.2785
59.2782
59.2686
59.2707
59.279
59.2777
59.2777
59.2702
59.2722
59.2729
59.2761
59.28
59.2733
59.2773
59.2778
59.2732
59.2725
59.2716
59.2718
59.2689
59.2654
59.2597
59.2544
59.2499
59.2429
59.2272
59.2133
59.2034
59.1981
59.1944
59.1923
59.1887
59.1818
59.1622
59.1604
59.1666
59.1685
59.1688
59.1603
59.172
59.1901
59.1888
59.1905
59.1915
59.191
59.1805
59.1849
59.1908
59.1824
59.1829
59.1938
59.1952
59.1943
59.1942
59.1909
59.1834
59.1873
59.1994
59.2006
59.1983
59.196
59.1953
59.1825
59.1812
59.1951
59.2006
59.1991
59.1994
59.1974
59.1933
59.1917
59.1886
59.1765
55.015
55.8928
56.8016
57.6906
58.3893
58.8639
59.1466
59.2513
59.2581
59.2649
59.2792
59.2789
59.2758
59.268
59.2627
59.2654
59.2679
59.2627
59.2683
59.2762
59.2672
59.2728
59.2871
59.277
59.2787
59.2958
59.2973
59.2959
59.2951
59.2935
59.2918
59.2888
59.2836
59.283
59.2822
59.2795
59.2754
59.2715
59.2617
59.2487
59.2398
59.2323
59.2219
59.2141
59.2086
59.2042
59.1962
59.1754
59.1655
59.1747
59.1843
59.1835
59.1818
59.1809
59.1705
59.1737
59.1869
59.1802
59.177
59.1793
59.1766
59.1795
59.1988
59.2036
59.2008
59.2018
59.2033
59.2039
59.2003
59.1914
59.1835
59.1931
59.2071
59.2041
59.2041
59.202
59.2055
59.2066
59.2014
59.2028
59.2008
59.1976
59.185
59.1879
59.196
59.1961
59.1962
59.1923
59.1904
59.1757
55.0155
55.8908
56.8065
57.6862
58.3893
58.8693
59.1381
59.2503
59.2648
59.2603
59.2593
59.2589
59.256
59.2564
59.2668
59.267
59.2633
59.2631
59.258
59.2668
59.2809
59.2811
59.2822
59.2762
59.2753
59.2743
59.2744
59.2714
59.2758
59.2765
59.2732
59.2738
59.2712
59.269
59.2653
59.2581
59.2404
59.2246
59.2187
59.2176
59.2187
59.2193
59.2176
59.2162
59.2148
59.2132
59.2108
59.2068
59.1974
59.1714
59.1649
59.1714
59.1754
59.1734
59.1707
59.1634
59.1708
59.1876
59.1777
59.1767
59.1837
59.1796
59.1807
59.1994
59.2053
59.2022
59.1935
59.1892
59.19
59.1808
59.1806
59.1874
59.1853
59.1823
59.1905
59.1975
59.1967
59.1964
59.1857
59.191
59.2009
59.1955
59.1978
59.1985
59.1962
59.1912
59.1902
59.1883
59.1848
59.1732
55.0115
55.8969
56.8045
57.6826
58.3929
58.8751
59.1389
59.2313
59.2394
59.2326
59.231
59.2328
59.2323
59.2362
59.2406
59.2385
59.2305
59.2337
59.2504
59.2509
59.2516
59.2483
59.2523
59.2803
59.2948
59.2864
59.2924
59.2957
59.29
59.2904
59.2882
59.2858
59.2842
59.2837
59.2808
59.2772
59.2709
59.2648
59.2574
59.2514
59.2414
59.2336
59.2265
59.2163
59.2095
59.1956
59.1849
59.176
59.1727
59.1686
59.1598
59.1516
59.1679
59.197
59.1944
59.1933
59.205
59.2223
59.2222
59.2222
59.2176
59.217
59.2139
59.201
59.2
59.2053
59.2065
59.2074
59.2072
59.2064
59.1962
59.2016
59.2093
59.2091
59.2091
59.2045
59.2042
59.2011
59.1985
59.1968
59.1907
59.1931
59.195
59.1857
59.1881
59.189
59.1848
59.1847
59.1831
59.1707
55.0153
55.8934
56.802
57.6812
58.4004
58.884
59.1259
59.1871
59.1873
59.1967
59.2222
59.2219
59.2219
59.2218
59.215
59.2194
59.2337
59.2313
59.2317
59.2296
59.2405
59.2779
59.2771
59.2857
59.298
59.2936
59.2939
59.2947
59.2952
59.2911
59.2889
59.2883
59.2887
59.2867
59.282
59.2722
59.2548
59.2434
59.2366
59.2312
59.2268
59.2232
59.2199
59.2169
59.2109
59.1972
59.187
59.1814
59.1652
59.1641
59.1704
59.1648
59.1696
59.1728
59.1714
59.1709
59.162
59.1596
59.162
59.1621
59.1551
59.1585
59.1658
59.1648
59.1647
59.1545
59.1602
59.1685
59.167
59.166
59.1661
59.1801
59.1954
59.2003
59.1963
59.196
59.1975
59.1982
59.1948
59.1837
59.1863
59.1953
59.1923
59.1921
59.1929
59.1925
59.1855
59.1776
59.1751
59.168
55.0166
55.8882
56.8088
57.6832
58.3899
58.8738
59.143
59.2428
59.2531
59.2527
59.2525
59.2424
59.2435
59.2605
59.2641
59.2581
59.263
59.266
59.2646
59.2646
59.2596
59.2711
59.2841
59.2905
59.2964
59.2906
59.29
59.2853
59.2905
59.2915
59.2893
59.2889
59.2853
59.2807
59.2733
59.2682
59.2593
59.2524
59.2462
59.2417
59.2356
59.2308
59.2251
59.2204
59.2172
59.2129
59.2043
59.1887
59.1697
59.1642
59.1625
59.1621
59.156
59.1577
59.1875
59.1953
59.1886
59.189
59.1974
59.1971
59.2053
59.21
59.1984
59.2008
59.2136
59.2136
59.2116
59.214
59.2146
59.2103
59.2095
59.2029
59.1953
59.1939
59.1925
59.201
59.2148
59.2036
59.2052
59.2162
59.2157
59.2196
59.2206
59.2193
59.2194
59.2167
59.2114
59.209
59.203
59.1822
55.0154
55.8916
56.8035
57.6893
58.387
58.8715
59.1451
59.2398
59.2694
59.2706
59.2563
59.2594
59.2663
59.2654
59.2654
59.2567
59.2643
59.2747
59.2659
59.2693
59.2875
59.2892
59.2848
59.2897
59.3038
59.2953
59.3008
59.3063
59.3015
59.3013
59.2993
59.2995
59.297
59.294
59.2905
59.2814
59.2694
59.2601
59.2502
59.2284
59.2122
59.2062
59.1972
59.1929
59.1905
59.1889
59.1849
59.1703
59.1697
59.1781
59.1791
59.1783
59.168
59.1657
59.1846
59.2129
59.2124
59.206
59.2109
59.2201
59.2207
59.2208
59.2153
59.2146
59.2069
59.2097
59.2113
59.2085
59.2082
59.206
59.1984
59.2016
59.2136
59.2032
59.2036
59.2186
59.2211
59.218
59.2083
59.2055
59.2069
59.1979
59.2021
59.2121
59.2133
59.211
59.2049
59.2043
59.1998
59.1842
55.0159
55.8944
56.7963
57.6881
58.3997
58.8769
59.1288
59.2108
59.2163
59.208
59.2112
59.2191
59.2167
59.2175
59.2142
59.2254
59.2425
59.2433
59.2615
59.2869
59.2955
59.2939
59.288
59.2906
59.2919
59.2891
59.2809
59.2836
59.2898
59.283
59.2827
59.2826
59.2818
59.2765
59.2743
59.2706
59.2674
59.2619
59.2501
59.2334
59.2241
59.2061
59.1938
59.1891
59.1864
59.1821
59.1681
59.1695
59.1725
59.1646
59.1672
59.1679
59.1592
59.1632
59.166
59.1625
59.1631
59.1618
59.1557
59.1614
59.172
59.1697
59.17
59.1662
59.1774
59.1972
59.1968
59.1957
59.1955
59.1893
59.1827
59.1846
59.1887
59.1897
59.195
59.1952
59.1964
59.1937
59.1834
59.1876
59.196
59.1949
59.1953
59.1917
59.1828
59.1844
59.1963
59.1971
59.1966
59.1823
55.0134
55.8936
56.8066
57.6795
58.3971
58.8742
59.1386
59.2351
59.2471
59.245
59.2461
59.2459
59.2396
59.2452
59.2549
59.2529
59.2531
59.2442
59.2477
59.2626
59.2605
59.2606
59.2592
59.2694
59.2812
59.2705
59.272
59.2925
59.2971
59.2952
59.2948
59.2914
59.2854
59.2805
59.2738
59.2664
59.2599
59.2534
59.2475
59.243
59.2344
59.2259
59.2195
59.2149
59.2061
59.1953
59.1839
59.1776
59.175
59.1697
59.1557
59.1494
59.1631
59.1715
59.1676
59.1698
59.1706
59.1677
59.1582
59.1516
59.1568
59.1753
59.1745
59.1615
59.1603
59.1766
59.1837
59.1836
59.1835
59.176
59.1719
59.1707
59.1644
59.168
59.1794
59.1788
59.1733
59.1735
59.1835
59.1883
59.1863
59.1754
59.1786
59.1818
59.1778
59.1885
59.1973
59.1973
59.197
59.1794
55.0162
55.8893
56.8073
57.6848
58.3891
58.8738
59.1452
59.2325
59.2343
59.2383
59.2524
59.2535
59.2502
59.2583
59.2704
59.2616
59.2681
59.281
59.2706
59.2763
59.2875
59.2784
59.2761
59.2845
59.286
59.2933
59.3041
59.2948
59.2985
59.3028
59.3014
59.3011
59.2978
59.2962
59.2901
59.2772
59.2618
59.2517
59.2419
59.2336
59.2273
59.2217
59.2179
59.215
59.2126
59.21
59.2049
59.1945
59.1755
59.1602
59.1608
59.1619
59.1603
59.156
59.1619
59.1703
59.1697
59.1692
59.1571
59.159
59.1666
59.1665
59.1669
59.165
59.1604
59.1677
59.182
59.1789
59.1794
59.1771
59.1772
59.1772
59.1769
59.171
59.1801
59.1931
59.1913
59.1836
59.1825
59.1914
59.1925
59.1905
59.1888
59.1803
59.1835
59.1904
59.1862
59.1858
59.1844
59.1741
55.015
55.8928
56.8015
57.6908
58.389
58.8655
59.1439
59.2585
59.2737
59.2723
59.273
59.2701
59.2613
59.2587
59.2676
59.2708
59.2666
59.2717
59.281
59.2723
59.2787
59.2932
59.2825
59.2815
59.2909
59.2905
59.2987
59.3026
59.2943
59.2962
59.2984
59.2961
59.2964
59.2937
59.2899
59.2835
59.2735
59.2615
59.2518
59.2444
59.2383
59.2338
59.2283
59.2248
59.22
59.2092
59.2042
59.1938
59.1883
59.1863
59.184
59.1794
59.1645
59.1702
59.2008
59.2156
59.2209
59.216
59.2204
59.2222
59.2191
59.2086
59.2105
59.2175
59.2081
59.2115
59.2159
59.215
59.2164
59.2152
59.2145
59.2109
59.1985
59.2001
59.2024
59.1983
59.1991
59.1978
59.1914
59.1953
59.2056
59.2049
59.2038
59.1901
59.1901
59.1999
59.2028
59.2007
59.1972
59.1855
55.0154
55.8916
56.8035
57.6893
58.387
58.8714
59.1452
59.24
59.2696
59.2709
59.2562
59.2549
59.2656
59.2701
59.2678
59.2593
59.2645
59.2751
59.2722
59.2722
59.267
59.272
59.2887
59.2839
59.2854
59.3051
59.3107
59.3079
59.3076
59.3063
59.3061
59.3032
59.2991
59.2939
59.2885
59.2778
59.2677
59.2598
59.2503
59.2286
59.2139
59.201
59.1964
59.1914
59.1892
59.1889
59.1862
59.1724
59.171
59.1785
59.1819
59.1797
59.1657
59.1676
59.1873
59.1886
59.1885
59.2017
59.2139
59.2133
59.2157
59.2142
59.2119
59.2067
59.1967
59.1973
59.2037
59.2086
59.2069
59.2046
59.2031
59.1951
59.1947
59.1916
59.1992
59.2093
59.1991
59.2039
59.2076
59.2058
59.2057
59.2038
59.203
59.1964
59.193
59.1809
59.1836
59.1944
59.1925
59.1831
55.0167
55.888
56.809
57.6831
58.3893
58.8765
59.1382
59.2433
59.2557
59.246
59.2503
59.2578
59.2562
59.2537
59.2515
59.2598
59.2593
59.2667
59.2714
59.2617
59.2616
59.2802
59.2921
59.2888
59.2912
59.2952
59.2939
59.2901
59.2785
59.2802
59.2822
59.2764
59.2762
59.2753
59.2756
59.2749
59.2723
59.2694
59.2655
59.2545
59.2396
59.2292
59.2213
59.215
59.2114
59.2073
59.1987
59.1772
59.1641
59.1667
59.1731
59.1706
59.16
59.1624
59.1928
59.2021
59.2007
59.1957
59.2012
59.2174
59.2169
59.2165
59.2045
59.2062
59.2131
59.2083
59.2088
59.214
59.2145
59.2114
59.2017
59.2017
59.2087
59.2072
59.2088
59.2121
59.2104
59.2065
59.1968
59.1977
59.2087
59.2051
59.2097
59.2136
59.2129
59.2128
59.2081
59.2076
59.2022
59.1835
55.0158
55.8927
56.8018
57.6825
58.4002
58.8787
59.1297
59.2062
59.2108
59.2054
59.2093
59.2236
59.2212
59.2263
59.2283
59.2263
59.2251
59.2335
59.2434
59.2358
59.2364
59.2594
59.2835
59.2828
59.2772
59.2805
59.2867
59.2719
59.2722
59.2778
59.2776
59.2772
59.2729
59.2738
59.271
59.2679
59.2611
59.2586
59.2521
59.2377
59.2235
59.2162
59.2102
59.1969
59.191
59.1866
59.1727
59.1748
59.1813
59.1755
59.1706
59.1739
59.1795
59.1783
59.1757
59.1796
59.1834
59.1825
59.1819
59.1673
59.165
59.179
59.1843
59.1813
59.1703
59.1703
59.1826
59.1791
59.1866
59.192
59.192
59.192
59.1809
59.179
59.1868
59.1836
59.1878
59.198
59.1896
59.1879
59.1986
59.2058
59.2054
59.2051
59.1969
59.1936
59.2012
59.2041
59.2007
59.1875
55.0143
55.8964
56.8029
57.6763
58.4064
58.8721
59.1275
59.2243
59.2341
59.2267
59.2326
59.2364
59.2352
59.235
59.2252
59.2316
59.2386
59.2462
59.2524
59.2492
59.2502
59.2473
59.2624
59.2892
59.2904
59.2882
59.2894
59.2863
59.2703
59.2714
59.2716
59.2692
59.2688
59.2652
59.2642
59.2606
59.2543
59.2474
59.2418
59.2362
59.229
59.2236
59.2186
59.2145
59.2119
59.2071
59.1958
59.1926
59.1835
59.1836
59.1842
59.1816
59.1787
59.1741
59.172
59.1701
59.1672
59.1615
59.175
59.1949
59.1956
59.1956
59.1831
59.1846
59.1915
59.1901
59.19
59.1868
59.1875
59.1873
59.181
59.1836
59.1978
59.1987
59.1982
59.1882
59.1857
59.1964
59.1989
59.1957
59.1975
59.1951
59.1834
59.186
59.1929
59.1914
59.1915
59.1898
59.1879
59.1724
55.0138
55.8966
56.8036
57.6759
58.4058
58.872
59.1301
59.2203
59.2268
59.2208
59.224
59.2303
59.2298
59.2293
59.2196
59.23
59.2554
59.2574
59.2549
59.2458
59.2531
59.2674
59.2661
59.263
59.2676
59.2794
59.2738
59.2795
59.2812
59.2792
59.2787
59.2734
59.2685
59.2632
59.2531
59.2446
59.2381
59.2323
59.2279
59.2232
59.223
59.2231
59.2212
59.2196
59.2114
59.2007
59.1931
59.19
59.1845
59.1718
59.1586
59.1569
59.1554
59.1589
59.1851
59.2009
59.1972
59.2009
59.2025
59.1996
59.1894
59.191
59.1978
59.1922
59.197
59.1999
59.1972
59.1918
59.1864
59.1952
59.2005
59.194
59.1955
59.1958
59.194
59.1926
59.1919
59.1856
59.1904
59.195
59.1905
59.19
59.184
59.1891
59.1918
59.1887
59.181
59.1785
59.1814
59.172
55.0153
55.8919
56.8031
57.6891
58.3887
58.8676
59.1441
59.2519
59.2645
59.2623
59.2631
59.2624
59.2544
59.2573
59.2708
59.2687
59.2687
59.2676
59.268
59.2652
59.2725
59.2772
59.2673
59.2712
59.2856
59.2764
59.2807
59.2891
59.2777
59.2819
59.2834
59.2809
59.28
59.2738
59.269
59.2614
59.2564
59.2477
59.2416
59.2366
59.2319
59.2284
59.2237
59.2182
59.2075
59.1885
59.181
59.1786
59.1713
59.1767
59.1917
59.1844
59.1899
59.1932
59.1922
59.1919
59.1857
59.1801
59.1847
59.1873
59.1861
59.1851
59.1883
59.1908
59.1891
59.1887
59.1817
59.1849
59.1872
59.1837
59.1827
59.1921
59.2044
59.2087
59.2077
59.2092
59.2068
59.1982
59.1977
59.1962
59.1975
59.1946
59.1819
59.1821
59.1959
59.1996
59.1983
59.1998
59.1968
59.1797
55.0146
55.8933
56.8024
57.6914
58.3864
58.8659
59.142
59.251
59.2718
59.2708
59.2683
59.2618
59.2611
59.2603
59.2626
59.2696
59.2691
59.2623
59.2688
59.288
59.285
59.2918
59.2954
59.283
59.2845
59.2912
59.285
59.2887
59.2893
59.2874
59.2872
59.2849
59.2846
59.2818
59.2776
59.274
59.2674
59.2615
59.2564
59.246
59.239
59.2351
59.2304
59.2202
59.2134
59.2097
59.2042
59.2014
59.1959
59.1911
59.176
59.1737
59.187
59.1913
59.1885
59.1787
59.181
59.1915
59.1866
59.1909
59.1925
59.1891
59.1898
59.1891
59.1805
59.1791
59.189
59.187
59.194
59.2124
59.2115
59.2094
59.2054
59.1987
59.2052
59.2126
59.2048
59.2091
59.211
59.2061
59.2074
59.2074
59.2079
59.2055
59.2024
59.1939
59.1882
59.1858
59.183
59.174
55.0126
55.8945
56.8072
57.6813
58.3905
58.879
59.1373
59.227
59.2382
59.238
59.2375
59.2243
59.2259
59.2295
59.2168
59.2157
59.2352
59.2456
59.2441
59.2384
59.2395
59.257
59.2736
59.2721
59.261
59.2657
59.2711
59.2703
59.2696
59.2537
59.2546
59.2563
59.2533
59.2488
59.2446
59.2409
59.2343
59.2245
59.2218
59.2214
59.2212
59.221
59.2181
59.2146
59.2055
59.1936
59.1884
59.183
59.1709
59.1606
59.1675
59.1794
59.1836
59.1825
59.1843
59.1819
59.1718
59.1681
59.1795
59.1844
59.1909
59.1996
59.1935
59.1951
59.1928
59.188
59.1845
59.185
59.1836
59.1873
59.1881
59.1864
59.1843
59.1865
59.1886
59.1809
59.1853
59.1954
59.1941
59.1917
59.1878
59.1894
59.1844
59.1908
59.1963
59.1944
59.1882
59.1866
59.189
59.1778
55.0156
55.891
56.8049
57.6863
58.3912
58.8676
59.1405
59.2531
59.272
59.2701
59.2601
59.2592
59.2663
59.2647
59.2659
59.2635
59.2561
59.2537
59.2623
59.2674
59.2696
59.2681
59.2631
59.2702
59.2878
59.2849
59.2867
59.2904
59.2894
59.288
59.2812
59.2747
59.2711
59.2649
59.2619
59.2582
59.2549
59.2527
59.2499
59.2466
59.2425
59.2365
59.231
59.2197
59.2093
59.2045
59.198
59.1943
59.188
59.1703
59.1667
59.1802
59.1855
59.1837
59.1816
59.176
59.1797
59.1848
59.1775
59.178
59.1779
59.1782
59.1711
59.1755
59.1828
59.1705
59.1742
59.1832
59.182
59.1773
59.1771
59.1926
59.1924
59.1996
59.2028
59.1951
59.1977
59.2018
59.2012
59.2004
59.1891
59.1851
59.1888
59.188
59.1899
59.1892
59.1796
59.1783
59.1822
59.1728
55.0154
55.8927
56.8002
57.6837
58.4018
58.8812
59.1256
59.1929
59.1911
59.1927
59.2154
59.2249
59.2251
59.2252
59.2131
59.2169
59.2366
59.238
59.2345
59.2407
59.2576
59.2492
59.2486
59.2619
59.2643
59.27
59.2902
59.2898
59.2877
59.2875
59.2881
59.2869
59.2851
59.2807
59.272
59.2629
59.2567
59.252
59.2436
59.2373
59.2333
59.2302
59.2247
59.2217
59.2189
59.2126
59.1955
59.1897
59.1909
59.1847
59.1901
59.1936
59.1925
59.1918
59.1801
59.1754
59.1777
59.1784
59.1761
59.1697
59.1733
59.1805
59.1784
59.1711
59.174
59.1884
59.1886
59.189
59.189
59.1853
59.1756
59.1706
59.1823
59.1902
59.1896
59.1894
59.1788
59.1813
59.1841
59.1814
59.1805
59.1794
59.1764
59.184
59.1961
59.185
59.1897
59.1969
59.1938
59.1821
55.0161
55.8894
56.8074
57.6843
58.3886
58.8773
59.1317
59.2483
59.273
59.2723
59.2701
59.2664
59.2665
59.2624
59.2484
59.2472
59.2571
59.25
59.2553
59.2665
59.2631
59.2642
59.2625
59.256
59.2593
59.2723
59.2635
59.2692
59.2737
59.2725
59.2722
59.2698
59.269
59.266
59.2628
59.2603
59.2564
59.2492
59.2352
59.228
59.2252
59.2208
59.2185
59.2155
59.2135
59.2107
59.2052
59.1977
59.1951
59.1882
59.1917
59.1957
59.1946
59.193
59.1954
59.1977
59.197
59.1968
59.1883
59.1858
59.1817
59.1795
59.1732
59.1764
59.1794
59.176
59.17
59.1731
59.1821
59.1775
59.1747
59.1846
59.1989
59.1976
59.1955
59.1837
59.1872
59.1991
59.2008
59.1985
59.1931
59.1921
59.1819
59.1867
59.1946
59.1944
59.1944
59.1904
59.1886
59.1748
55.0138
55.8942
56.8018
57.6819
58.4016
58.8746
59.1303
59.2259
59.238
59.238
59.2379
59.2315
59.2273
59.2389
59.2599
59.2531
59.26
59.2663
59.2629
59.2648
59.2654
59.2653
59.2561
59.2574
59.2707
59.2706
59.2652
59.2619
59.2692
59.2723
59.2697
59.2701
59.2702
59.2684
59.2647
59.2624
59.2617
59.2567
59.2538
59.2451
59.2235
59.2128
59.2096
59.206
59.1951
59.1943
59.2045
59.2061
59.2043
59.2017
59.1985
59.1986
59.199
59.1951
59.1951
59.1958
59.1958
59.1945
59.1924
59.1872
59.1723
59.1694
59.1712
59.1642
59.163
59.1763
59.1817
59.1795
59.1758
59.1702
59.1827
59.194
59.1919
59.1868
59.1809
59.1892
59.1935
59.1915
59.1897
59.1793
59.1851
59.2034
59.2041
59.2033
59.2018
59.2012
59.1976
59.1934
59.1897
59.1785
55.0164
55.8918
56.8001
57.6823
58.403
58.8856
59.1195
59.1873
59.1937
59.2058
59.2252
59.2303
59.2325
59.2228
59.2251
59.2364
59.2348
59.2328
59.2363
59.2411
59.2404
59.241
59.2342
59.2373
59.2581
59.2591
59.2564
59.2471
59.2451
59.2497
59.2418
59.2466
59.2511
59.2477
59.2472
59.2476
59.2478
59.2456
59.2432
59.2355
59.2328
59.2323
59.2326
59.2296
59.2221
59.2155
59.2091
59.1961
59.1782
59.174
59.1726
59.1726
59.1704
59.176
59.189
59.1885
59.1876
59.1753
59.1763
59.1847
59.181
59.1826
59.1803
59.1783
59.1733
59.1744
59.1758
59.1663
59.1652
59.1757
59.1768
59.1861
59.1933
59.1856
59.1901
59.1924
59.1894
59.1796
59.1788
59.1931
59.1903
59.1978
59.2058
59.2039
59.2036
59.1941
59.199
59.2029
59.199
59.1844
55.0143
55.894
56.8035
57.679
58.4057
58.8727
59.1253
59.2165
59.2246
59.2219
59.2149
59.2122
59.2199
59.2177
59.2257
59.232
59.2288
59.2246
59.2299
59.2527
59.2536
59.2505
59.2397
59.241
59.2506
59.2588
59.2582
59.2581
59.258
59.243
59.2451
59.2471
59.2423
59.2417
59.2397
59.24
59.2375
59.2346
59.2288
59.2271
59.2243
59.2218
59.2171
59.2138
59.2106
59.2038
59.1855
59.1761
59.1808
59.1778
59.1824
59.193
59.1898
59.1929
59.1936
59.1918
59.1929
59.1912
59.1888
59.1844
59.1741
59.1767
59.1874
59.188
59.1852
59.1788
59.1758
59.1916
59.2024
59.1938
59.1998
59.2077
59.2024
59.2058
59.2077
59.2058
59.2042
59.1926
59.1949
59.2028
59.2007
59.1934
59.1932
59.1982
59.1957
59.1959
59.1917
59.1915
59.1903
59.1793
55.016
55.8928
56.8009
57.6851
58.3982
58.8737
59.1314
59.2229
59.2309
59.2302
59.2299
59.2208
59.2184
59.2393
59.2511
59.2475
59.2495
59.2503
59.2483
59.2421
59.2497
59.2717
59.2717
59.2723
59.2723
59.2682