/*--------------------------------*- C++ -*----------------------------------*\
  =========                 |
  \\      /  F ield         | OpenFOAM: The Open Source CFD Toolbox
   \\    /   O peration     | Website:  https://openfoam.org
    \\  /    A nd           | Version:  11
     \\/     M anipulation  |
\*---------------------------------------------------------------------------*/
FoamFile
{
    format      ascii;
    class       volScalarField;
    location    "0.09";
    object      p;
}
// * * * * * * * * * * * * * * * * * * * * * * * * * * * * * * * * * * * * * //

dimensions      [0 2 -2 0 0 0 0];

internalField   nonuniform List<scalar> 
287084
(
1.68279
1.39602
1.33997
1.26958
1.20049
1.14737
1.09637
1.04929
1.00399
0.959568
0.915804
0.871173
0.826967
0.783476
0.738682
0.693281
0.647276
0.600736
0.554403
0.508472
0.462956
0.41838
0.374728
0.331985
0.290742
0.253999
0.221328
0.189693
0.162531
0.141298
0.121034
0.100581
0.0831066
0.0703072
0.0609329
0.0545598
0.051017
0.0499135
0.0509266
0.053752
0.0580848
0.0636327
0.0701147
0.0772779
0.0848911
0.0927453
0.100635
0.108483
0.115933
0.123265
0.1298
0.135857
0.141967
0.147187
0.151832
0.155639
0.158988
0.161485
0.163218
0.164404
0.164788
0.16465
0.163906
0.162604
0.160777
0.158377
0.155496
0.152081
0.148292
0.144053
0.139347
0.134286
0.128854
0.123102
0.11708
0.110693
0.104051
0.0971804
0.0900341
0.082696
0.0751254
0.0673815
0.059422
0.0512871
0.0428931
0.0342533
0.02517
0.0154728
0.00520907
0.000935477
1.54731
1.35471
1.30781
1.24953
1.18874
1.13916
1.09062
1.04495
1.00057
0.956789
0.913347
0.86928
0.82527
0.781214
0.735985
0.690165
0.644009
0.597571
0.551116
0.504989
0.459285
0.414569
0.370874
0.328738
0.28868
0.251448
0.21743
0.185589
0.158373
0.134177
0.112009
0.0929877
0.0773241
0.0651687
0.0562327
0.0502616
0.047047
0.0462627
0.0475836
0.0507081
0.0553286
0.0611503
0.0678888
0.0752961
0.0831303
0.0911901
0.0992801
0.107277
0.11498
0.122372
0.129313
0.135687
0.141549
0.146698
0.151263
0.155156
0.158401
0.16092
0.162752
0.163976
0.164515
0.16443
0.163735
0.16247
0.160649
0.158291
0.155398
0.152032
0.148221
0.143987
0.139315
0.134243
0.128823
0.123072
0.117048
0.110667
0.104026
0.0971669
0.0900198
0.082686
0.07513
0.0673966
0.059449
0.0513763
0.0430484
0.0345923
0.0257751
0.0168646
0.00747416
0.0020113
1.5205
1.34862
1.29998
1.24324
1.18471
1.13582
1.08799
1.04257
0.998128
0.954191
0.910397
0.866212
0.821721
0.776859
0.73131
0.685151
0.63855
0.591667
0.544729
0.498076
0.451906
0.406667
0.36261
0.320156
0.279839
0.242052
0.207415
0.175655
0.147057
0.122529
0.10108
0.0826245
0.0674653
0.0557051
0.0472586
0.0418078
0.039127
0.0388979
0.0407919
0.0444912
0.0496731
0.0560374
0.0632955
0.0711837
0.0794677
0.0879391
0.0964083
0.104738
0.112745
0.1204
0.127502
0.134026
0.140152
0.145553
0.150288
0.154317
0.157671
0.160336
0.162256
0.163532
0.164114
0.164088
0.163431
0.162201
0.160412
0.158064
0.155228
0.151875
0.14809
0.143854
0.139186
0.134168
0.128783
0.123033
0.116992
0.110634
0.104009
0.0971326
0.0900189
0.0826949
0.0751499
0.0674266
0.0595271
0.0514258
0.0431422
0.0346356
0.0258828
0.016814
0.00762603
0.00237642
1.47265
1.31384
1.27061
1.21881
1.16604
1.12076
1.07585
1.03248
0.989532
0.946585
0.90339
0.859547
0.815089
0.769945
0.72401
0.677369
0.630196
0.582688
0.535077
0.487684
0.440782
0.394809
0.350065
0.307039
0.266177
0.227877
0.192542
0.160492
0.131879
0.106737
0.0850465
0.0668493
0.0522692
0.0412348
0.033553
0.0289515
0.0271445
0.0278122
0.030606
0.0351919
0.0412331
0.0484213
0.0564544
0.0650705
0.0740263
0.0831147
0.0921524
0.100985
0.109474
0.117525
0.125053
0.13198
0.138298
0.143917
0.148823
0.153027
0.156521
0.159301
0.161363
0.162749
0.163459
0.163513
0.162946
0.161786
0.160041
0.157767
0.154957
0.151655
0.147893
0.143685
0.139066
0.134042
0.12866
0.12293
0.116903
0.110562
0.103951
0.0970988
0.0899903
0.0826725
0.075145
0.0674345
0.0595405
0.0515003
0.0432792
0.0348365
0.0262309
0.017156
0.00818582
0.00291369
1.44942
1.29941
1.25866
1.20893
1.15841
1.11412
1.06989
1.02676
0.983764
0.940579
0.896958
0.852638
0.807588
0.761716
0.715024
0.667559
0.619503
0.571042
0.52243
0.474
0.426054
0.379037
0.33332
0.28938
0.24767
0.208593
0.172611
0.139918
0.110832
0.0855813
0.0641644
0.046541
0.0327008
0.0225011
0.0157608
0.0121902
0.0114798
0.0132834
0.0172307
0.022961
0.0301218
0.0383821
0.0474333
0.0570031
0.0668414
0.0767401
0.0865127
0.0960102
0.105095
0.113678
0.121668
0.129007
0.135689
0.141646
0.146857
0.151328
0.155038
0.158016
0.160254
0.161784
0.162616
0.162793
0.16232
0.161238
0.159576
0.157349
0.154602
0.151351
0.147627
0.143454
0.13886
0.133878
0.128534
0.122826
0.116809
0.110491
0.103897
0.0970452
0.0899621
0.0826662
0.0751552
0.0674695
0.0596129
0.051556
0.043366
0.0349117
0.0262662
0.0172318
0.0083178
0.00301509
1.42463
1.27625
1.23714
1.18936
1.14122
1.09891
1.05643
1.01467
0.97269
0.93015
0.886862
0.842573
0.797268
0.750879
0.703478
0.655162
0.606098
0.556521
0.506708
0.456993
0.407763
0.359433
0.312476
0.267346
0.224567
0.184549
0.147766
0.114583
0.0852293
0.0598938
0.0386623
0.0215306
0.00843724
-0.000771985
-0.00635041
-0.00861339
-0.00793227
-0.0046857
0.000723156
0.0078971
0.0164569
0.0260586
0.0363738
0.0471225
0.0580513
0.0689469
0.0796293
0.0899447
0.0997743
0.109018
0.117608
0.12548
0.132608
0.138956
0.144508
0.149269
0.153245
0.156451
0.158893
0.160601
0.161596
0.161902
0.161553
0.160576
0.158995
0.156854
0.154174
0.150979
0.147307
0.143176
0.138624
0.133668
0.128343
0.122669
0.116675
0.110379
0.103806
0.0969799
0.0899106
0.0826233
0.0751345
0.0674578
0.0596113
0.0515904
0.0434295
0.0349704
0.0263909
0.0173864
0.00850799
0.00321426
1.40639
1.26078
1.22344
1.1772
1.13057
1.08917
1.04731
1.00577
0.963759
0.920966
0.877202
0.832288
0.786195
0.738872
0.690409
0.640884
0.590519
0.539514
0.488193
0.436922
0.386088
0.336188
0.287686
0.241127
0.197035
0.155899
0.118224
0.0843577
0.0546505
0.0292893
0.00839902
-0.00805037
-0.0201663
-0.0281589
-0.0323287
-0.033041
-0.0307093
-0.0257599
-0.0186366
-0.00976502
0.000443796
0.011617
0.023417
0.0355527
0.047762
0.059829
0.0715723
0.0828486
0.093535
0.103545
0.112807
0.121279
0.128935
0.13575
0.141716
0.146846
0.151138
0.154617
0.157302
0.159222
0.160399
0.160866
0.160654
0.159794
0.158323
0.156265
0.153664
0.150539
0.146924
0.14285
0.138346
0.133436
0.12815
0.122505
0.116538
0.110265
0.103713
0.0969029
0.0898551
0.0825915
0.0751194
0.0674695
0.0596466
0.0516339
0.0434861
0.0350483
0.0264464
0.0174279
0.00856986
0.0032363
1.38917
1.24384
1.20703
1.16165
1.11592
1.07539
1.03429
0.993338
0.95168
0.908988
0.865082
0.81976
0.773009
0.724794
0.675222
0.624415
0.572574
0.519969
0.46693
0.413844
0.361187
0.309432
0.259166
0.210925
0.165329
0.122903
0.0841981
0.0496469
0.0195931
-0.0057319
-0.0262202
-0.0418978
-0.0529099
-0.0595118
-0.0620569
-0.0609656
-0.0567108
-0.0497799
-0.040662
-0.0298254
-0.0177181
-0.00473604
0.00876584
0.0224824
0.0361459
0.0495417
0.0624926
0.0748537
0.0865164
0.0973954
0.107434
0.116589
0.124846
0.132189
0.138616
0.144141
0.148785
0.152573
0.155528
0.15768
0.159063
0.159706
0.159647
0.158922
0.157565
0.155612
0.153094
0.150044
0.146497
0.142479
0.138027
0.133159
0.127906
0.122299
0.11636
0.110119
0.103596
0.0968101
0.0897814
0.0825346
0.0750843
0.0674473
0.0596386
0.0516528
0.0435235
0.0351029
0.0265412
0.0174718
0.0085901
0.00327541
1.37423
1.22972
1.19373
1.14904
1.10408
1.06405
1.02325
0.982354
0.940522
0.897437
0.852913
0.806792
0.759034
0.709617
0.658665
0.606283
0.552728
0.498248
0.443225
0.388081
0.333298
0.279461
0.227145
0.177004
0.129697
0.0858124
0.0459826
0.0106445
-0.0197609
-0.0450252
-0.0650002
-0.079758
-0.0894728
-0.0944524
-0.0951257
-0.0919747
-0.0855429
-0.0763762
-0.0650216
-0.0519909
-0.0377632
-0.0227655
-0.00737314
0.00809762
0.0233767
0.0382424
0.0525218
0.0660795
0.0788091
0.0906413
0.101522
0.111425
0.120336
0.128252
0.135187
0.141159
0.146193
0.15032
0.153569
0.155977
0.157584
0.158424
0.15854
0.157962
0.156734
0.15489
0.15247
0.149506
0.146031
0.142081
0.137684
0.132866
0.127659
0.122089
0.116184
0.109967
0.103469
0.0967087
0.0897028
0.0824768
0.0750436
0.0674274
0.0596342
0.0516578
0.0435383
0.0351149
0.0265531
0.0175035
0.00864219
0.003345
1.36037
1.21597
1.1802
1.13585
1.09119
1.05144
1.0108
0.96994
0.927963
0.884522
0.839429
0.79249
0.743689
0.692999
0.640545
0.586472
0.531012
0.474476
0.417254
0.359806
0.302701
0.246514
0.191961
0.139702
0.0905056
0.0450268
0.00394517
-0.0322021
-0.0629775
-0.0881155
-0.107495
-0.121191
-0.129433
-0.132601
-0.131176
-0.125732
-0.116879
-0.105235
-0.091405
-0.0759551
-0.0594018
-0.0421999
-0.0247481
-0.00737231
0.00965307
0.0261082
0.0418199
0.056666
0.0705503
0.0834057
0.095198
0.105905
0.115524
0.124061
0.131539
0.137985
0.143433
0.14792
0.151484
0.15417
0.156017
0.157061
0.157352
0.156933
0.155843
0.154118
0.151801
0.148927
0.145533
0.141647
0.137305
0.132538
0.127376
0.121849
0.11598
0.109798
0.103328
0.0965946
0.0896114
0.0824045
0.0749899
0.0673903
0.059613
0.0516568
0.0435501
0.0351488
0.0265976
0.0175124
0.00862865
0.00331435
1.34769
1.20347
1.16797
1.12388
1.07944
1.03979
0.999117
0.958042
0.915656
0.871612
0.825688
0.777725
0.727662
0.675499
0.621356
0.565367
0.50782
0.449006
0.38937
0.329413
0.269728
0.211002
0.153965
0.0994091
0.0481541
0.000939807
-0.0414551
-0.0784774
-0.109592
-0.13456
-0.153221
-0.165711
-0.172299
-0.173438
-0.169702
-0.161735
-0.15024
-0.135905
-0.119401
-0.101349
-0.0823018
-0.0627466
-0.0430963
-0.0236912
-0.00480916
0.0133295
0.0305641
0.0467749
0.0618732
0.075807
0.0885507
0.1001
0.110457
0.119645
0.127694
0.13464
0.140526
0.145394
0.149289
0.15226
0.154359
0.155625
0.15611
0.155854
0.154908
0.153308
0.151098
0.148319
0.145004
0.141192
0.136915
0.132203
0.12709
0.121606
0.115773
0.109621
0.103179
0.0964695
0.0895097
0.0823257
0.0749278
0.0673477
0.0595873
0.0516431
0.0435381
0.0351579
0.0265884
0.0174808
0.00864239
0.00334692
1.33589
1.19167
1.15621
1.11222
1.06776
1.02805
0.987189
0.945795
0.902929
0.858197
0.81139
0.762306
0.710902
0.657155
0.601189
0.543167
0.483355
0.422107
0.359877
0.297218
0.234793
0.173319
0.113656
0.0566292
0.00318402
-0.0458588
-0.0896574
-0.127556
-0.15901
-0.183718
-0.201567
-0.212713
-0.217482
-0.21642
-0.210174
-0.199497
-0.185169
-0.167963
-0.148614
-0.127799
-0.106118
-0.0840811
-0.062124
-0.0405963
-0.0197792
0.000117929
0.0189327
0.0365555
0.0529135
0.0679648
0.0816992
0.0941203
0.105245
0.115105
0.123743
0.131202
0.137535
0.142793
0.147028
0.150297
0.152653
0.154143
0.15482
0.15474
0.153944
0.152473
0.150375
0.147691
0.144461
0.140723
0.136511
0.131855
0.126788
0.121345
0.115552
0.109435
0.103021
0.096336
0.0894007
0.0822403
0.0748642
0.0672997
0.0595501
0.051625
0.043538
0.0351663
0.0266479
0.0175203
0.00863033
0.00334757
1.32491
1.1807
1.14525
1.10126
1.05673
1.01685
0.97569
0.933852
0.890359
0.844818
0.79699
0.746672
0.69378
0.638327
0.580419
0.520214
0.458019
0.394177
0.329206
0.263683
0.198342
0.13399
0.0715268
0.0119193
-0.0438231
-0.09478
-0.140006
-0.178795
-0.210522
-0.23491
-0.251825
-0.261489
-0.264291
-0.260857
-0.251941
-0.238388
-0.221074
-0.200857
-0.178541
-0.154859
-0.130449
-0.105853
-0.0815204
-0.0578117
-0.0350059
-0.0133126
0.00711589
0.0261806
0.0438231
0.06001
0.0747433
0.0880463
0.099946
0.11049
0.119724
0.127705
0.134495
0.140151
0.144736
0.148306
0.150925
0.152644
0.153522
0.153611
0.152962
0.151621
0.149637
0.147053
0.143908
0.140243
0.136097
0.1315
0.126485
0.121086
0.115329
0.109246
0.102864
0.0962055
0.0892901
0.0821478
0.0747879
0.0672429
0.0595095
0.0515925
0.0435091
0.0351583
0.0266023
0.017462
0.00862972
0.00335599
1.31468
1.17045
1.13494
1.09087
1.04614
1.00598
0.964432
0.922064
0.877887
0.83146
0.78254
0.730895
0.676476
0.619233
0.559295
0.49683
0.432135
0.365615
0.297782
0.229301
0.16094
0.0935838
0.0282494
-0.0340335
-0.0921386
-0.145045
-0.191715
-0.231354
-0.26333
-0.287311
-0.303206
-0.311274
-0.311982
-0.306052
-0.29434
-0.2778
-0.257398
-0.234079
-0.208719
-0.182103
-0.154912
-0.127712
-0.100973
-0.0750591
-0.0502517
-0.0267526
-0.00470596
0.0158066
0.0347359
0.0520631
0.0678047
0.0819914
0.0946674
0.10589
0.115721
0.124224
0.131468
0.13752
0.142451
0.146322
0.149199
0.151144
0.152217
0.152482
0.151983
0.150774
0.148903
0.146416
0.143357
0.139767
0.135688
0.131145
0.126177
0.120821
0.115102
0.109053
0.102697
0.0960642
0.0891748
0.082054
0.0747164
0.0671889
0.0594645
0.0515658
0.0434903
0.0351668
0.0266314
0.017466
0.00861032
0.00333356
1.30521
1.16093
1.12532
1.08112
1.03617
0.995679
0.953682
0.910719
0.865767
0.818405
0.768322
0.715309
0.659281
0.600199
0.538173
0.473378
0.406138
0.336854
0.266115
0.19459
0.123147
0.0527472
-0.0155308
-0.0805169
-0.141008
-0.195847
-0.243928
-0.284388
-0.316525
-0.340024
-0.354801
-0.361173
-0.359695
-0.351185
-0.336604
-0.317011
-0.293475
-0.267023
-0.238605
-0.209052
-0.17908
-0.149292
-0.120163
-0.092061
-0.0652674
-0.0399781
-0.0163263
0.00561347
0.0258076
0.0442568
0.0609843
0.076039
0.0894773
0.101371
0.111788
0.120803
0.128495
0.134935
0.140201
0.144365
0.147501
0.149673
0.150946
0.151376
0.151021
0.149939
0.148181
0.14579
0.142813
0.139295
0.135276
0.130793
0.125878
0.120564
0.114882
0.108866
0.102542
0.0959345
0.0890627
0.0819612
0.0746359
0.0671221
0.0594144
0.0515281
0.0434718
0.0351491
0.0266453
0.0174716
0.0085918
0.00333871
1.29647
1.15215
1.11641
1.07203
1.0268
0.985934
0.943433
0.899844
0.854094
0.805755
0.754497
0.700091
0.642445
0.581503
0.517382
0.450256
0.380446
0.308413
0.234731
0.160185
0.0856452
0.0121921
-0.0590028
-0.126681
-0.189522
-0.246256
-0.295694
-0.336902
-0.369146
-0.392084
-0.405679
-0.4103
-0.406587
-0.395463
-0.377999
-0.355361
-0.328706
-0.299151
-0.26771
-0.23526
-0.20256
-0.17023
-0.138761
-0.108526
-0.0798034
-0.0527794
-0.0275764
-0.00425205
0.0171722
0.0367055
0.0543945
0.0702924
0.084471
0.0970099
0.10799
0.1175
0.125623
0.132439
0.138038
0.142488
0.145866
0.148248
0.149705
0.150301
0.150088
0.14913
0.147481
0.145184
0.14229
0.138844
0.134888
0.130454
0.125584
0.120312
0.114664
0.108677
0.102378
0.095796
0.0889488
0.0818661
0.0745599
0.0670606
0.0593656
0.0514868
0.0434354
0.0351231
0.0266022
0.0174298
0.00858816
0.00335718
1.2885
1.1441
1.10822
1.06366
1.01814
0.97688
0.933881
0.889623
0.843074
0.793735
0.7413
0.685506
0.626257
0.563482
0.497285
0.42785
0.355522
0.280756
0.204207
0.126661
0.0490995
-0.02734
-0.101399
-0.171685
-0.236795
-0.295327
-0.34604
-0.387899
-0.420162
-0.44247
-0.45483
-0.45767
-0.451725
-0.438014
-0.417719
-0.392104
-0.36242
-0.329864
-0.295502
-0.260267
-0.224946
-0.190182
-0.156476
-0.124201
-0.0936307
-0.0649475
-0.0382607
-0.0136184
0.00897158
0.0295388
0.0481368
0.0648376
0.0797144
0.0928657
0.104384
0.114363
0.122896
0.130066
0.13597
0.14069
0.144308
0.146897
0.148536
0.149286
0.149207
0.148366
0.146816
0.144607
0.14179
0.13841
0.134511
0.13013
0.125307
0.120074
0.114463
0.108508
0.102235
0.0956742
0.0888428
0.0817798
0.0744887
0.0670031
0.0593173
0.0514539
0.0434161
0.0351095
0.0266149
0.0174272
0.0085725
0.00335022
1.28129
1.13684
1.1008
1.05605
1.01021
0.968572
0.925027
0.880163
0.832758
0.7825
0.728937
0.671779
0.610982
0.54643
0.478239
0.406587
0.331823
0.254457
0.175124
0.094725
0.014242
-0.065046
-0.141835
-0.214598
-0.28183
-0.342048
-0.393915
-0.436342
-0.46855
-0.49019
-0.501307
-0.502394
-0.494275
-0.478069
-0.455062
-0.426608
-0.394045
-0.358647
-0.321525
-0.28366
-0.245872
-0.20882
-0.173011
-0.138823
-0.106527
-0.0762948
-0.0482256
-0.0223513
0.00133789
0.0228724
0.0423186
0.0597614
0.0752956
0.0890174
0.101032
0.111448
0.120355
0.127855
0.134052
0.139025
0.14286
0.145644
0.147444
0.148333
0.14838
0.14765
0.146195
0.144068
0.141322
0.138006
0.134165
0.129833
0.125047
0.119848
0.114268
0.108341
0.102091
0.0955502
0.0887385
0.0816903
0.0744116
0.0669377
0.059266
0.0514126
0.0433862
0.0350877
0.0266477
0.0174775
0.00854295
0.00332091
1.27489
1.13038
1.09417
1.04924
1.00311
0.961077
0.917066
0.871556
0.823432
0.772241
0.717562
0.659163
0.5969
0.530685
0.46061
0.38687
0.309823
0.22999
0.148071
0.0649759
-0.018215
-0.100178
-0.179502
-0.254543
-0.323741
-0.385464
-0.438351
-0.481219
-0.513307
-0.534245
-0.544142
-0.543545
-0.533371
-0.514827
-0.489288
-0.458202
-0.422977
-0.384953
-0.345293
-0.305014
-0.264964
-0.225817
-0.188088
-0.152155
-0.118282
-0.0866324
-0.0572986
-0.0303021
-0.00562781
0.0167842
0.0370064
0.0551312
0.0712573
0.0854984
0.0979702
0.108783
0.118043
0.125846
0.132301
0.137503
0.14154
0.144493
0.146451
0.147473
0.147632
0.146999
0.14563
0.14358
0.140899
0.137639
0.133846
0.129556
0.124809
0.119647
0.114098
0.108194
0.101965
0.0954432
0.0886503
0.0816204
0.0743524
0.0668922
0.0592271
0.0513793
0.043356
0.0350614
0.0265657
0.0173894
0.00856701
0.00336573
1.26933
1.12476
1.08841
1.04329
0.996882
0.954496
0.910012
0.863946
0.815078
0.763084
0.707458
0.647867
0.584266
0.516527
0.44474
0.369098
0.289972
0.207916
0.123623
0.0380944
-0.0475786
-0.131939
-0.213544
-0.290629
-0.361559
-0.424623
-0.478363
-0.521588
-0.553503
-0.573756
-0.582502
-0.580349
-0.568294
-0.547626
-0.519802
-0.486343
-0.448735
-0.408368
-0.366445
-0.324015
-0.281949
-0.240933
-0.201491
-0.164
-0.128723
-0.0958156
-0.0653545
-0.0373567
-0.0117911
0.0114005
0.0323091
0.0510396
0.0676995
0.0824008
0.0952713
0.106434
0.115996
0.124065
0.130753
0.136156
0.140367
0.143475
0.14556
0.1467
0.146964
0.14642
0.145127
0.143141
0.14052
0.137311
0.133564
0.129312
0.124599
0.119461
0.113937
0.108058
0.101849
0.0953436
0.0885629
0.0815418
0.074287
0.0668362
0.0591795
0.0513405
0.0433214
0.0350305
0.0265486
0.0173888
0.00856629
0.00336082
1.26464
1.12001
1.08351
1.03826
0.991588
0.948886
0.903998
0.857427
0.807936
0.75523
0.698706
0.638101
0.573328
0.504248
0.430952
0.353646
0.272695
0.188667
0.102311
0.0146424
-0.0731717
-0.15964
-0.243238
-0.322073
-0.394506
-0.458666
-0.513114
-0.556579
-0.588301
-0.607907
-0.61561
-0.612071
-0.598363
-0.575841
-0.546033
-0.510527
-0.470855
-0.428464
-0.384588
-0.340307
-0.296507
-0.253889
-0.212978
-0.174154
-0.137673
-0.103684
-0.0722589
-0.0434049
-0.017086
0.0067769
0.0282719
0.0475136
0.0646215
0.0797223
0.0929414
0.104403
0.114229
0.122531
0.129422
0.135
0.139365
0.142605
0.144805
0.146044
0.146394
0.145925
0.1447
0.142772
0.140201
0.137035
0.133323
0.129106
0.124421
0.11931
0.113808
0.107946
0.101752
0.0952617
0.0884949
0.0814887
0.0742437
0.0668022
0.0591523
0.0513201
0.0433107
0.0350169
0.0265618
0.0173922
0.00854716
0.00335148
1.26084
1.11618
1.07957
1.03416
0.987294
0.944319
0.899104
0.852096
0.802104
0.748746
0.691485
0.630045
0.564288
0.494094
0.419546
0.340845
0.258373
0.172717
0.084627
-0.00480975
-0.0944343
-0.18263
-0.267869
-0.348157
-0.421801
-0.486868
-0.54182
-0.585458
-0.616985
-0.636024
-0.642843
-0.638142
-0.623054
-0.598992
-0.567546
-0.53035
-0.488989
-0.444939
-0.399466
-0.353668
-0.308447
-0.264512
-0.222394
-0.182473
-0.145001
-0.110127
-0.0779131
-0.0483571
-0.0214112
0.00299795
0.0249755
0.0446417
0.0621248
0.0775521
0.0910508
0.102755
0.112793
0.121284
0.128338
0.134057
0.138544
0.14189
0.144182
0.145507
0.145931
0.145522
0.144346
0.142465
0.139932
0.1368
0.133118
0.128924
0.124266
0.119177
0.113694
0.107853
0.101672
0.095192
0.0884364
0.0814364
0.0741989
0.0667599
0.0591174
0.0512891
0.043281
0.0350029
0.0265295
0.0173612
0.00854548
0.00336411
1.25795
1.11329
1.07659
1.03105
0.984023
0.94085
0.895365
0.848044
0.797617
0.743803
0.685984
0.623862
0.557347
0.486284
0.410756
0.330978
0.247326
0.160398
0.0709754
-0.0198369
-0.110843
-0.200378
-0.28689
-0.368258
-0.442893
-0.50855
-0.563867
-0.607609
-0.63899
-0.657569
-0.663687
-0.658082
-0.641926
-0.616682
-0.583978
-0.545489
-0.502832
-0.457513
-0.410818
-0.363862
-0.317554
-0.272616
-0.229578
-0.188822
-0.150599
-0.115046
-0.0822298
-0.0521347
-0.0247134
0.000113672
0.0224573
0.0424449
0.0602063
0.075881
0.0896001
0.101495
0.111695
0.120325
0.127507
0.133335
0.137917
0.141343
0.143709
0.145091
0.145568
0.145208
0.144076
0.142232
0.139732
0.136628
0.132968
0.128801
0.124157
0.119082
0.113614
0.10778
0.101609
0.0951383
0.0883896
0.0814008
0.0741676
0.0667392
0.0591016
0.0512801
0.043272
0.0349937
0.0265357
0.0173663
0.00853734
0.00334548
1.25603
1.11134
1.07457
1.02897
0.98183
0.938504
0.892836
0.845299
0.794549
0.74046
0.682264
0.619669
0.552633
0.480984
0.404799
0.324282
0.239823
0.15204
0.0616983
-0.0300421
-0.122014
-0.212441
-0.299845
-0.381937
-0.457329
-0.52337
-0.578748
-0.622511
-0.653863
-0.672131
-0.677779
-0.671555
-0.654674
-0.628625
-0.595069
-0.555704
-0.512173
-0.466001
-0.418483
-0.370744
-0.323706
-0.278089
-0.234429
-0.193108
-0.154373
-0.118366
-0.0851447
-0.0546834
-0.0269379
-0.00182851
0.0207608
0.0409621
0.0589158
0.074756
0.0886178
0.100639
0.110953
0.119682
0.126945
0.13285
0.137494
0.140978
0.14339
0.144819
0.145336
0.145006
0.143897
0.142076
0.139595
0.136506
0.132864
0.128704
0.124076
0.119017
0.113557
0.107731
0.101567
0.0951026
0.0883613
0.0813744
0.0741457
0.0667145
0.0590796
0.0512577
0.0432587
0.0349836
0.026532
0.0173718
0.00854834
0.00337625
1.25507
1.11036
1.07356
1.02793
0.980734
0.937331
0.891593
0.843913
0.793098
0.738756
0.680329
0.617563
0.550252
0.478303
0.401775
0.320886
0.236016
0.147792
0.0569936
-0.0352227
-0.127665
-0.218552
-0.3064
-0.388871
-0.464672
-0.531042
-0.586161
-0.629928
-0.661335
-0.679459
-0.684869
-0.678336
-0.661087
-0.634635
-0.60065
-0.560846
-0.516874
-0.470267
-0.422334
-0.374203
-0.326797
-0.280839
-0.236869
-0.195267
-0.15628
-0.120042
-0.0866412
-0.0559878
-0.0280368
-0.00278761
0.0199111
0.0402242
0.0582736
0.0741949
0.0881295
0.100217
0.110586
0.119358
0.126662
0.132603
0.137283
0.140793
0.143228
0.144672
0.145208
0.144897
0.143803
0.141993
0.139524
0.136449
0.132812
0.128661
0.124037
0.118982
0.113526
0.107701
0.101546
0.0950882
0.0883488
0.0813642
0.0741335
0.0667088
0.0590757
0.0512567
0.0432519
0.0349777
0.0265044
0.017328
0.00853959
0.00337354
1.25508
1.11035
1.07356
1.02793
0.980735
0.937332
0.891588
0.84391
0.793099
0.73876
0.680328
0.617568
0.550256
0.478307
0.401784
0.320894
0.236032
0.147807
0.0570027
-0.0352056
-0.127655
-0.218537
-0.30639
-0.388857
-0.464678
-0.531023
-0.586136
-0.629928
-0.661318
-0.679445
-0.684855
-0.67832
-0.661073
-0.63462
-0.600637
-0.560834
-0.516863
-0.470258
-0.422324
-0.374193
-0.326786
-0.280829
-0.236856
-0.195253
-0.156266
-0.120031
-0.0866298
-0.0559825
-0.0280365
-0.00278635
0.0199138
0.0402218
0.058268
0.0741894
0.0881259
0.100211
0.110581
0.119358
0.126662
0.132602
0.13728
0.140792
0.143229
0.144677
0.145212
0.144903
0.143809
0.141999
0.13953
0.136449
0.132812
0.128662
0.124039
0.118983
0.113527
0.107704
0.101544
0.095085
0.0883474
0.0813609
0.0741344
0.0667056
0.0590699
0.0512501
0.0432508
0.0349767
0.0265143
0.0173575
0.00854417
0.00336701
1.25604
1.11134
1.07458
1.02898
0.981843
0.938516
0.892862
0.845313
0.794555
0.740474
0.68229
0.619689
0.552645
0.480997
0.404804
0.324292
0.239831
0.152049
0.0617098
-0.0300295
-0.121986
-0.21241
-0.299815
-0.381884
-0.457293
-0.523284
-0.578683
-0.622511
-0.653815
-0.672086
-0.67773
-0.671506
-0.654625
-0.628579
-0.595027
-0.555667
-0.51214
-0.465967
-0.41845
-0.370714
-0.32368
-0.278067
-0.23441
-0.193091
-0.15436
-0.118354
-0.0851329
-0.0546729
-0.0269268
-0.00181798
0.0207722
0.0409749
0.058929
0.0747723
0.0886345
0.100655
0.110966
0.119691
0.126951
0.132851
0.137494
0.140975
0.143391
0.144815
0.145329
0.145001
0.143895
0.142073
0.139593
0.136508
0.132862
0.128703
0.124071
0.119011
0.113551
0.107723
0.101565
0.0951055
0.088364
0.0813779
0.0741456
0.0667186
0.0590779
0.0512588
0.0432532
0.0349797
0.0265048
0.017333
0.00854378
0.00336647
1.25797
1.11329
1.0766
1.03106
0.984038
0.94086
0.895382
0.848044
0.797661
0.743808
0.685973
0.623889
0.557366
0.486304
0.410785
0.331004
0.24736
0.160437
0.0710106
-0.0197911
-0.110801
-0.200315
-0.286837
-0.368189
-0.442834
-0.508463
-0.563795
-0.607553
-0.638906
-0.657495
-0.663612
-0.658007
-0.641851
-0.616608
-0.58391
-0.545424
-0.502772
-0.457458
-0.410767
-0.363816
-0.317512
-0.272577
-0.229541
-0.188788
-0.150565
-0.115016
-0.0822029
-0.0521117
-0.0246914
0.000132787
0.0224738
0.0424574
0.0602172
0.0758906
0.0896069
0.101498
0.111702
0.120334
0.127509
0.133336
0.137917
0.141346
0.143711
0.145093
0.145572
0.145216
0.144083
0.142237
0.139736
0.136629
0.132968
0.128795
0.124152
0.11908
0.113612
0.107776
0.101607
0.095141
0.0883922
0.0813969
0.074165
0.0667315
0.0590923
0.0512638
0.0432599
0.0349771
0.0264948
0.0173388
0.00856405
0.00339805
1.26085
1.1162
1.07959
1.03417
0.987314
0.944333
0.899133
0.852108
0.802132
0.748766
0.691508
0.630088
0.564316
0.494126
0.419576
0.340884
0.258412
0.172756
0.0846749
-0.00476447
-0.0943653
-0.182563
-0.26779
-0.348073
-0.421711
-0.486762
-0.541723
-0.585359
-0.616875
-0.635915
-0.642732
-0.638034
-0.622949
-0.598893
-0.567451
-0.530261
-0.488905
-0.44486
-0.399395
-0.353604
-0.30839
-0.264462
-0.222349
-0.182432
-0.144964
-0.110092
-0.0778803
-0.0483251
-0.0213812
0.00302481
0.0249991
0.0446608
0.0621397
0.0775677
0.0910688
0.102773
0.11281
0.121297
0.12835
0.134066
0.13855
0.141892
0.144185
0.145507
0.145928
0.145518
0.144345
0.142466
0.139934
0.136801
0.133117
0.128928
0.124266
0.119176
0.113691
0.107845
0.101669
0.0951921
0.0884363
0.0814409
0.0741993
0.0667617
0.0591142
0.0512901
0.0432807
0.0349997
0.0265521
0.017373
0.00854173
0.00335359
1.26465
1.12003
1.08355
1.03826
0.991612
0.948902
0.904023
0.857433
0.807977
0.755238
0.698719
0.638149
0.573365
0.504285
0.430998
0.353691
0.272752
0.188733
0.102373
0.0147208
-0.0730953
-0.159543
-0.243139
-0.32197
-0.394389
-0.458544
-0.512981
-0.556458
-0.588163
-0.607773
-0.615477
-0.611943
-0.598234
-0.575714
-0.545913
-0.510413
-0.470749
-0.428367
-0.3845
-0.340232
-0.296438
-0.253826
-0.212919
-0.174099
-0.137621
-0.103635
-0.0722139
-0.0433608
-0.0170439
0.00681108
0.0283056
0.0475449
0.064649
0.0797469
0.0929634
0.104422
0.114243
0.122542
0.129427
0.135003
0.139368
0.142609
0.144809
0.146047
0.146398
0.145933
0.144705
0.142777
0.140207
0.137037
0.13332
0.129099
0.124414
0.119305
0.113804
0.107942
0.101753
0.0952618
0.0884921
0.081485
0.0742398
0.0667941
0.0591429
0.0513071
0.0432939
0.0350023
0.0265166
0.0173557
0.00856948
0.00339065
1.26935
1.1248
1.08843
1.04331
0.99691
0.954513
0.910052
0.863959
0.815136
0.763119
0.707464
0.647919
0.584309
0.516575
0.444791
0.369158
0.290042
0.207976
0.123704
0.0381709
-0.0474712
-0.13184
-0.213427
-0.290512
-0.361426
-0.42448
-0.478217
-0.521435
-0.553346
-0.573595
-0.582343
-0.580192
-0.568141
-0.54748
-0.519663
-0.486214
-0.448612
-0.408251
-0.366338
-0.323917
-0.281859
-0.24085
-0.201416
-0.163934
-0.12866
-0.0957577
-0.0653007
-0.0373053
-0.0117479
0.0114394
0.0323421
0.0510628
0.0677159
0.0824174
0.0952886
0.106446
0.116008
0.124082
0.130774
0.136171
0.140379
0.143481
0.145565
0.146706
0.146969
0.146422
0.145129
0.143147
0.140526
0.137316
0.133563
0.129314
0.1246
0.119464
0.113935
0.108054
0.101848
0.0953455
0.0885645
0.0815457
0.0742872
0.0668336
0.0591745
0.0513418
0.0433221
0.0350314
0.0265705
0.0174049
0.00855098
0.0033313
1.27491
1.13042
1.09421
1.04926
1.00313
0.961102
0.917085
0.871578
0.823447
0.772271
0.717616
0.659222
0.596955
0.530737
0.460672
0.386939
0.309902
0.23008
0.14816
0.0650819
-0.0181037
-0.10005
-0.179363
-0.2544
-0.323577
-0.385303
-0.438174
-0.481046
-0.513126
-0.534065
-0.543962
-0.543369
-0.5332
-0.514663
-0.489132
-0.458053
-0.422835
-0.384822
-0.345172
-0.304907
-0.264865
-0.225726
-0.188005
-0.15208
-0.118214
-0.0865712
-0.0572402
-0.0302448
-0.00557249
0.0168336
0.0370525
0.0551729
0.0712977
0.085541
0.0980073
0.108809
0.118058
0.12586
0.132313
0.137509
0.141544
0.144499
0.146451
0.147474
0.147637
0.147006
0.145637
0.143586
0.140909
0.137648
0.133849
0.129556
0.124808
0.119641
0.114092
0.108188
0.101962
0.0954408
0.088647
0.0816134
0.0743433
0.066881
0.0592134
0.0513708
0.0433404
0.0350531
0.026567
0.0173914
0.00856224
0.00333903
1.28132
1.13687
1.10081
1.05608
1.01025
0.968595
0.925081
0.880177
0.832823
0.782539
0.728963
0.671844
0.61104
0.546498
0.478313
0.406659
0.331916
0.254536
0.175236
0.0948232
0.0143749
-0.0649215
-0.141687
-0.214442
-0.281664
-0.341875
-0.39373
-0.436146
-0.468353
-0.489985
-0.501105
-0.502193
-0.494084
-0.47789
-0.45489
-0.426445
-0.393891
-0.358498
-0.321387
-0.283532
-0.245755
-0.208712
-0.172914
-0.138738
-0.106452
-0.0762251
-0.0481552
-0.0222857
0.00139213
0.0229222
0.0423649
0.0598028
0.0753297
0.0890477
0.10106
0.111466
0.120373
0.127876
0.134071
0.139038
0.142873
0.14565
0.14745
0.148338
0.148387
0.147654
0.146199
0.144075
0.14133
0.138013
0.134168
0.129836
0.12505
0.119851
0.114268
0.10834
0.102089
0.0955496
0.0887376
0.0816899
0.0744094
0.0669337
0.0592588
0.0514013
0.0433779
0.0350534
0.0265815
0.0174292
0.00857769
0.00337142
1.28852
1.14414
1.10827
1.06369
1.01816
0.976925
0.93391
0.889669
0.843106
0.793788
0.74135
0.685572
0.626321
0.563546
0.497359
0.427932
0.35561
0.280864
0.204324
0.126794
0.0492413
-0.0271911
-0.101233
-0.171516
-0.236602
-0.295133
-0.345833
-0.387691
-0.419949
-0.442254
-0.454617
-0.457459
-0.451519
-0.437818
-0.417534
-0.39193
-0.362255
-0.329709
-0.295358
-0.260133
-0.224819
-0.190064
-0.156368
-0.124105
-0.0935446
-0.0648697
-0.0381902
-0.0135513
0.00903462
0.0295978
0.0481928
0.0648903
0.0797655
0.0929119
0.104421
0.114392
0.122916
0.130083
0.135983
0.140702
0.144318
0.146905
0.148541
0.14929
0.149213
0.148374
0.146824
0.144617
0.141804
0.138423
0.134518
0.130134
0.125307
0.120073
0.114463
0.108503
0.102228
0.095668
0.0888374
0.0817723
0.0744753
0.0669882
0.0593026
0.0514386
0.0433938
0.0350882
0.0265765
0.0173858
0.00858066
0.00336634
1.29652
1.15219
1.11642
1.07209
1.02684
0.985981
0.943486
0.899884
0.854144
0.805812
0.754553
0.700158
0.642515
0.581577
0.517468
0.45034
0.380561
0.308508
0.234865
0.160306
0.0857995
0.012348
-0.058833
-0.126502
-0.18933
-0.246051
-0.295483
-0.33668
-0.368922
-0.391853
-0.405452
-0.410072
-0.40637
-0.395255
-0.3778
-0.355172
-0.328529
-0.298983
-0.267552
-0.235113
-0.202426
-0.170107
-0.138649
-0.108426
-0.0797132
-0.0526985
-0.0274978
-0.00417996
0.0172372
0.0367703
0.0544551
0.0703471
0.0845179
0.0970505
0.108027
0.117528
0.125645
0.13246