/*--------------------------------*- C++ -*----------------------------------*\
  =========                 |
  \\      /  F ield         | OpenFOAM: The Open Source CFD Toolbox
   \\    /   O peration     | Website:  https://openfoam.org
    \\  /    A nd           | Version:  11
     \\/     M anipulation  |
\*---------------------------------------------------------------------------*/
FoamFile
{
    format      ascii;
    class       volScalarField;
    location    "0.1";
    object      k;
}
// * * * * * * * * * * * * * * * * * * * * * * * * * * * * * * * * * * * * * //

dimensions      [0 2 -2 0 0 0 0];

internalField   nonuniform List<scalar> 
287084
(
0.381765
0.393988
0.406226
0.418943
0.430752
0.440001
0.445864
0.448477
0.449011
0.449016
0.449015
0.448961
0.448867
0.448898
0.448917
0.448993
0.449128
0.449014
0.449095
0.449161
0.449153
0.449151
0.448993
0.449082
0.449381
0.449395
0.449407
0.449379
0.44932
0.449215
0.449248
0.449261
0.449118
0.449166
0.449205
0.449167
0.449168
0.44913
0.449111
0.449076
0.44905
0.449017
0.448968
0.448935
0.448854
0.448784
0.448741
0.448677
0.448636
0.448567
0.448424
0.448149
0.448151
0.448256
0.448254
0.448221
0.448253
0.448273
0.448236
0.448173
0.448099
0.448155
0.448216
0.448186
0.448092
0.448233
0.448439
0.448446
0.448444
0.448293
0.448343
0.448439
0.44842
0.448405
0.4483
0.448262
0.448205
0.448297
0.448572
0.448565
0.448541
0.448532
0.448405
0.448367
0.448467
0.448437
0.448537
0.448609
0.448559
0.448363
0.38176
0.393985
0.406107
0.4187
0.430476
0.43985
0.446005
0.448776
0.449407
0.449506
0.449625
0.449519
0.44956
0.449727
0.4497
0.449749
0.449761
0.449719
0.449737
0.449743
0.449721
0.449586
0.449499
0.449687
0.449784
0.449894
0.449997
0.449879
0.449939
0.44997
0.449948
0.449955
0.449919
0.449845
0.449611
0.4495
0.449519
0.44953
0.449483
0.449343
0.449278
0.449305
0.449353
0.449341
0.449314
0.449284
0.44922
0.449024
0.449017
0.449129
0.44911
0.449117
0.449108
0.4491
0.449102
0.449107
0.449082
0.44909
0.449077
0.449047
0.448978
0.448792
0.44871
0.448901
0.448995
0.448954
0.44884
0.448794
0.448929
0.449015
0.448981
0.448851
0.448879
0.449134
0.449183
0.449163
0.449148
0.449125
0.449082
0.448971
0.448906
0.448949
0.449018
0.448995
0.448967
0.448934
0.448822
0.448894
0.448934
0.448754
0.381757
0.393997
0.406057
0.418699
0.430486
0.439715
0.445864
0.448892
0.449752
0.449777
0.449731
0.449586
0.449571
0.449675
0.449687
0.449675
0.449535
0.449499
0.449759
0.449896
0.449903
0.449904
0.449711
0.449702
0.449903
0.449942
0.449891
0.449927
0.449939
0.449917
0.449917
0.449824
0.449814
0.449824
0.449825
0.449778
0.449766
0.449714
0.449686
0.449683
0.449666
0.449563
0.449329
0.449182
0.449194
0.449211
0.449173
0.449097
0.449008
0.44905
0.44913
0.449115
0.44912
0.44907
0.449061
0.449065
0.448964
0.448994
0.449004
0.44896
0.448888
0.448735
0.448791
0.448892
0.448854
0.448744
0.448715
0.448875
0.448863
0.44898
0.44909
0.449069
0.449086
0.449079
0.449057
0.449078
0.449079
0.448961
0.44885
0.448855
0.448877
0.448854
0.448853
0.448825
0.44873
0.448787
0.449055
0.449062
0.449042
0.448838
0.381759
0.393955
0.406079
0.418706
0.430419
0.439629
0.445768
0.448908
0.449783
0.449817
0.449722
0.449777
0.449919
0.449911
0.449914
0.449897
0.449855
0.449704
0.449652
0.4497
0.449697
0.449728
0.449734
0.44971
0.449653
0.449757
0.449821
0.449811
0.449806
0.449609
0.449603
0.449744
0.449653
0.449735
0.449826
0.449786
0.449794
0.449796
0.449798
0.44975
0.449712
0.449648
0.449616
0.449584
0.449568
0.449464
0.449369
0.449289
0.449251
0.449175
0.448982
0.448891
0.448933
0.448951
0.448879
0.448907
0.448936
0.448934
0.448932
0.44878
0.448863
0.448963
0.448949
0.448953
0.448928
0.448914
0.448902
0.448886
0.448754
0.448748
0.448917
0.448881
0.448983
0.449059
0.449054
0.449053
0.448942
0.448929
0.44887
0.448966
0.449183
0.449208
0.449175
0.449042
0.449023
0.449048
0.449013
0.449009
0.449006
0.448843
0.381761
0.39393
0.406124
0.418655
0.430332
0.439777
0.44566
0.448747
0.449803
0.449866
0.449818
0.449649
0.449625
0.449705
0.44964
0.449652
0.449655
0.449648
0.449559
0.449632
0.449735
0.449702
0.44963
0.449565
0.44964
0.449639
0.449721
0.449744
0.449609
0.44967
0.449805
0.449634
0.449683
0.449799
0.449779
0.449779
0.449742
0.449666
0.449584
0.449533
0.449386
0.449448
0.449506
0.449363
0.449413
0.449436
0.449306
0.449363
0.449387
0.449325
0.44931
0.449316
0.44932
0.449267
0.449278
0.449249
0.449186
0.449059
0.448774
0.448709
0.448766
0.448727
0.448789
0.448853
0.44884
0.448833
0.44874
0.448606
0.448703
0.448843
0.448817
0.448765
0.448682
0.448833
0.448906
0.448999
0.449152
0.448987
0.449029
0.449143
0.448994
0.44907
0.449158
0.449162
0.449161
0.448936
0.448925
0.448987
0.448977
0.448854
0.381757
0.393957
0.406082
0.418608
0.430448
0.439761
0.445666
0.448359
0.449597
0.449726
0.449567
0.449627
0.44974
0.449751
0.449716
0.449664
0.449584
0.449535
0.449723
0.449861
0.449836
0.449812
0.449802
0.449619
0.449624
0.449694
0.44967
0.449607
0.449682
0.44986
0.44971
0.449782
0.449863
0.449861
0.44986
0.449824
0.449806
0.449672
0.449596
0.449514
0.449263
0.449226
0.449286
0.44925
0.449278
0.449324
0.449295
0.449243
0.449182
0.448984
0.448956
0.449014
0.449025
0.449024
0.448903
0.448956
0.449033
0.448955
0.448992
0.449011
0.448973
0.448839
0.448869
0.44892
0.448908
0.448905
0.448753
0.448765
0.448768
0.448863
0.449111
0.449065
0.449112
0.449125
0.449096
0.449062
0.448941
0.448904
0.448837
0.448928
0.449141
0.449142
0.449105
0.449038
0.449007
0.448868
0.448932
0.449071
0.449038
0.448913
0.381758
0.393932
0.406105
0.418557
0.430524
0.43968
0.445574
0.448625
0.449609
0.44968
0.449667
0.449659
0.449469
0.449453
0.449581
0.449523
0.449575
0.450005
0.450143
0.450023
0.450108
0.450236
0.450203
0.450201
0.450212
0.450209
0.450018
0.450055
0.450099
0.450031
0.450032
0.450039
0.450049
0.450012
0.449938
0.449901
0.449857
0.449823
0.449753
0.449587
0.449545
0.449487
0.449448
0.449432
0.449419
0.449394
0.449345
0.449327
0.449274
0.449248
0.449218
0.449174
0.44908
0.448982
0.448952
0.4489
0.448874
0.448836
0.448749
0.448713
0.448779
0.448804
0.448875
0.448912
0.448885
0.448862
0.448741
0.448804
0.44892
0.448884
0.448784
0.448744
0.4488
0.448805
0.448813
0.448774
0.448781
0.448769
0.448885
0.448951
0.448928
0.448861
0.448848
0.449035
0.449061
0.44903
0.448881
0.448876
0.448954
0.448811
0.381786
0.393899
0.40607
0.418748
0.430356
0.439513
0.445573
0.448942
0.450147
0.45024
0.450209
0.450152
0.450123
0.450174
0.45017
0.450066
0.450143
0.450271
0.450259
0.450259
0.450219
0.450209
0.450041
0.45007
0.450219
0.45011
0.450201
0.450296
0.45028
0.450279
0.450194
0.450187
0.450156
0.450135
0.450119
0.450108
0.450105
0.450079
0.44994
0.449825
0.44969
0.449628
0.449557
0.449526
0.449492
0.449423
0.449418
0.449425
0.449438
0.449398
0.449369
0.449294
0.449101
0.449005
0.449062
0.449142
0.449113
0.449061
0.449032
0.448909
0.448975
0.449134
0.449016
0.449089
0.449193
0.449177
0.449179
0.449153
0.449146
0.44908
0.448871
0.448864
0.449102
0.449128
0.449104
0.449086
0.448958
0.449014
0.449177
0.449095
0.449126
0.449133
0.449102
0.449011
0.448984
0.449026
0.448992
0.449004
0.448998
0.448848
0.381761
0.393952
0.406041
0.418672
0.430421
0.439627
0.445632
0.448693
0.449599
0.449635
0.449594
0.449504
0.44945
0.449621
0.449668
0.449773
0.449948
0.44989
0.449834
0.449922
0.450065
0.450163
0.450267
0.450207
0.450212
0.45018
0.450067
0.450133
0.450303
0.450146
0.450216
0.450306
0.450307
0.450305
0.450259
0.450248
0.450181
0.450167
0.45012
0.450054
0.449872
0.449739
0.449638
0.449424
0.449277
0.449216
0.449053
0.449044
0.44915
0.449106
0.449171
0.449192
0.4491
0.44917
0.449204
0.449184
0.449173
0.449035
0.448966
0.448937
0.448905
0.448871
0.448789
0.448767
0.448742
0.448852
0.448931
0.44891
0.448906
0.448756
0.448836
0.449084
0.449038
0.449069
0.449124
0.449101
0.449067
0.449016
0.449005
0.448933
0.448986
0.449231
0.449201
0.449236
0.449281
0.449256
0.449261
0.449261
0.449217
0.448947
0.381822
0.393894
0.406014
0.418691
0.430425
0.439635
0.445671
0.448587
0.449258
0.449193
0.449221
0.449575
0.449713
0.4497
0.449693
0.449556
0.449584
0.449871
0.449912
0.449888
0.449862
0.449859
0.449854
0.449705
0.449747
0.449911
0.449929
0.449931
0.449818
0.449814
0.449765
0.449866
0.449937
0.449872
0.449872
0.44987
0.44987
0.449832
0.449792
0.449716
0.449536
0.449479
0.449379
0.44938
0.44938
0.449354
0.449349
0.449278
0.449268
0.449222
0.449137
0.449008
0.448877
0.448833
0.448766
0.448546
0.448562
0.448622
0.448592
0.448507
0.448517
0.448764
0.448721
0.448823
0.448906
0.448911
0.448912
0.44881
0.448734
0.448799
0.448924
0.448895
0.448899
0.448912
0.448916
0.448892
0.448846
0.448695
0.448742
0.449053
0.449071
0.449034
0.448963
0.448886
0.448901
0.448892
0.449018
0.44914
0.449101
0.448949
0.381781
0.393928
0.406067
0.418657
0.430376
0.439636
0.445737
0.448626
0.449332
0.449452
0.449562
0.449557
0.449553
0.449419
0.449474
0.449568
0.44943
0.449466
0.449725
0.449744
0.449886
0.4503
0.450297
0.450247
0.450244
0.450233
0.450177
0.450005
0.45005
0.450117
0.450104
0.450099
0.450032
0.449997
0.449772
0.449784
0.449841
0.449641
0.449667
0.449734
0.449726
0.449723
0.449685
0.449681
0.449649
0.449606
0.449446
0.449133
0.449014
0.448941
0.448721
0.448698
0.448793
0.448732
0.448811
0.448844
0.448786
0.448812
0.448778
0.44866
0.448641
0.448809
0.448891
0.448852
0.44871
0.448734
0.448885
0.448892
0.448888
0.448714
0.448749
0.448843
0.448755
0.448698
0.448818
0.449025
0.449025
0.449018
0.448922
0.448841
0.448842
0.448849
0.448807
0.448945
0.449141
0.44904
0.449116
0.449159
0.449109
0.448936
0.381753
0.393945
0.406074
0.418635
0.430435
0.439614
0.445592
0.448744
0.449782
0.449869
0.449859
0.449853
0.449681
0.449708
0.449922
0.449846
0.449942
0.450071
0.450031
0.450028
0.449941
0.450084
0.450288
0.450268
0.450267
0.450148
0.450239
0.450379
0.450263
0.450322
0.450389
0.450325
0.450336
0.450335
0.450326
0.45031
0.450264
0.450208
0.45016
0.450119
0.450065
0.449953
0.449877
0.449727
0.44952
0.449319
0.44922
0.449169
0.449134
0.449096
0.449013
0.4488
0.448686
0.44877
0.448939
0.448908
0.44877
0.448797
0.448919
0.448827
0.448888
0.448924
0.448894
0.448858
0.448709
0.448806
0.448998
0.449021
0.448989
0.448819
0.448866
0.449052
0.449063
0.449053
0.448883
0.44893
0.44907
0.449047
0.449017
0.448853
0.448882
0.449009
0.44902
0.449024
0.448922
0.448989
0.449062
0.449048
0.44904
0.448871
0.381802
0.393869
0.406095
0.418738
0.430335
0.439476
0.445703
0.448895
0.449671
0.44966
0.449793
0.450017
0.450015
0.450037
0.450003
0.449887
0.449873
0.450191
0.450377
0.450349
0.450266
0.45023
0.450295
0.450209
0.450204
0.450328
0.450291
0.450379
0.450529
0.450348
0.450394
0.450455
0.450446
0.450443
0.450403
0.450384
0.450284
0.45022
0.450142
0.450078
0.449951
0.449843
0.449764
0.449707
0.449651
0.449537
0.449445
0.449258
0.449007
0.448985
0.449037
0.448975
0.449017
0.449048
0.44903
0.449054
0.449023
0.448986
0.448987
0.448957
0.44892
0.44888
0.44873
0.448778
0.448953
0.448931
0.448949
0.449
0.448997
0.448957
0.448837
0.448828
0.44903
0.449062
0.449025
0.448951
0.448863
0.448991
0.449121
0.449128
0.449128
0.448991
0.448969
0.44901
0.448984
0.449065
0.449107
0.449102
0.449094
0.448875
0.38177
0.393954
0.406053
0.418568
0.430525
0.439655
0.44562
0.448544
0.449303
0.449358
0.449322
0.449202
0.449191
0.449418
0.449501
0.44948
0.449417
0.449446
0.449783
0.44995
0.449938
0.449939
0.449855
0.449843
0.450093
0.450399
0.450334
0.450298
0.450266
0.450162
0.450225
0.450319
0.45024
0.45025
0.450208
0.450173
0.450156
0.450098
0.449959
0.449862
0.449707
0.449526
0.44945
0.449316
0.449257
0.449222
0.449175
0.449074
0.449
0.449107
0.449157
0.449117
0.449106
0.449085
0.449083
0.449042
0.449042
0.448973
0.448731
0.448713
0.448881
0.448901
0.448869
0.448749
0.448728
0.448759
0.448756
0.448753
0.448724
0.448735
0.448703
0.448834
0.449034
0.448967
0.449028
0.449092
0.449075
0.449072
0.449065
0.449019
0.448867
0.448834
0.449073
0.449169
0.449209
0.449184
0.449127
0.449151
0.449114
0.44895
0.381783
0.393909
0.406055
0.418755
0.43037
0.43943
0.445669
0.448934
0.449897
0.450109
0.450092
0.450056
0.450033
0.450006
0.44995
0.450032
0.450146
0.450028
0.450124
0.450209
0.450169
0.450147
0.45027
0.450461
0.450341
0.450435
0.450634
0.450453
0.4505
0.450573
0.450359
0.450395
0.450421
0.450346
0.45032
0.450237
0.450157
0.450133
0.450126
0.450098
0.450079
0.449984
0.449773
0.44954
0.449324
0.449196
0.449139
0.449079
0.448983
0.448914
0.448841
0.448817
0.448783
0.448734
0.448695
0.448574
0.448607
0.448862
0.44893
0.448911
0.448902
0.448764
0.44875
0.448908
0.448922
0.448843
0.44884
0.449055
0.449122
0.449086
0.449023
0.448924
0.448989
0.449053
0.44901
0.448909
0.448832
0.449014
0.449133
0.449085
0.449093
0.449057
0.448952
0.448905
0.449052
0.449126
0.449089
0.449087
0.44904
0.44883
0.381746
0.393955
0.406143
0.418555
0.430466
0.439604
0.445573
0.44872
0.449737
0.449793
0.449765
0.449677
0.449698
0.449718
0.449692
0.449664
0.449746
0.449968
0.449958
0.449908
0.449961
0.450053
0.449915
0.450004
0.450242
0.450154
0.450113
0.450267
0.450392
0.450384
0.450381
0.450333
0.450251
0.450187
0.450124
0.449994
0.449928
0.449885
0.449827
0.449771
0.449725
0.449671
0.449631
0.449577
0.449521
0.449486
0.449451
0.449384
0.449341
0.449253
0.449054
0.448757
0.448733
0.448764
0.44874
0.448658
0.448628
0.44865
0.448613
0.448858
0.449315
0.449338
0.44932
0.449322
0.449271
0.449138
0.449034
0.449037
0.449008
0.449123
0.449232
0.449112
0.449174
0.449256
0.449254
0.449251
0.449152
0.448977
0.448949
0.449005
0.448995
0.448874
0.448903
0.449082
0.449073
0.449076
0.449061
0.449064
0.449045
0.448898
0.381771
0.393926
0.406051
0.418753
0.430415
0.43941
0.445514
0.449005
0.450225
0.450323
0.450308
0.450312
0.450284
0.450257
0.450202
0.450315
0.45046
0.450452
0.450454
0.450366
0.450343
0.45045
0.450571
0.450542
0.450426
0.450428
0.450617
0.450643
0.450595
0.450441
0.450476
0.450501
0.450411
0.450402
0.450367
0.450347
0.450307
0.450293
0.450248
0.450202
0.450129
0.450041
0.449862
0.449651
0.449458
0.449334
0.449249
0.449207
0.449165
0.449079
0.448889
0.448629
0.448536
0.448563
0.448566
0.448465
0.448489
0.448744
0.448758
0.44888
0.448968
0.448934
0.448814
0.448807
0.448903
0.448912
0.448874
0.448937
0.449046
0.448988
0.44899
0.448992
0.44899
0.448912
0.449032
0.449149
0.449113
0.449109
0.449086
0.449076
0.448927
0.448971
0.449126
0.449097
0.449096
0.449028
0.449095
0.44913
0.449075
0.448879
0.381766
0.393948
0.406011
0.418777
0.430409
0.439382
0.445616
0.449012
0.450077
0.450362
0.450491
0.450471
0.450438
0.450434
0.450384
0.450316
0.450279
0.450172
0.45025
0.450454
0.450316
0.450339
0.450562
0.450589
0.450547
0.450693
0.450853
0.450744
0.450798
0.450851
0.450833
0.450827
0.450767
0.450761
0.450711
0.450651
0.450579
0.450506
0.450391
0.450201
0.450023
0.449896
0.449738
0.449592
0.449475
0.449408
0.449314
0.449124
0.448776
0.448639
0.448683
0.44868
0.448681
0.448682
0.448668
0.448631
0.448713
0.44882
0.448786
0.448786
0.448788
0.448732
0.448886
0.449109
0.449006
0.449079
0.449186
0.449144
0.449141
0.44912
0.448981
0.448925
0.44907
0.449134
0.449106
0.449043
0.449154
0.449243
0.449092
0.449146
0.449182
0.449151
0.449123
0.448986
0.449051
0.449142
0.449091
0.449106
0.449063
0.448849
0.381784
0.393898
0.406076
0.418759
0.430354
0.439482
0.445552
0.448962
0.450047
0.450149
0.45014
0.450104
0.450124
0.45006
0.45017
0.45029
0.450241
0.450238
0.450136
0.450184
0.45054
0.450665
0.45066
0.450632
0.4506
0.450603
0.450592
0.450448
0.450503
0.450545
0.450456
0.450405
0.450367
0.450361
0.450355
0.450318
0.450163
0.449922
0.449755
0.449605
0.449523
0.449473
0.449385
0.449274
0.449304
0.449323
0.449309
0.449305
0.449227
0.449051
0.448747
0.448623
0.448664
0.448729
0.44869
0.44855
0.448523
0.44871
0.448814
0.448799
0.448805
0.448781
0.448719
0.448866
0.449185
0.449198
0.449172
0.44914
0.449108
0.449056
0.448906
0.448903
0.448932
0.448808
0.448873
0.449129
0.449135
0.449113
0.448972
0.448937
0.449029
0.448977
0.449074
0.449143
0.44906
0.449109
0.449173
0.449148
0.449106
0.448849
0.381726
0.393955
0.406102
0.418703
0.430351
0.439541
0.445665
0.448861
0.449722
0.449733
0.449807
0.44982
0.449708
0.449768
0.44989
0.449887
0.449891
0.449791
0.449946
0.450161
0.450167
0.450189
0.450128
0.450332
0.450752
0.450648
0.450739
0.450843
0.450751
0.450732
0.450709
0.450717
0.450714
0.450702
0.450661
0.450608
0.450507
0.450416
0.450283
0.45018
0.45003
0.449882
0.449773
0.449613
0.449518
0.449343
0.449174
0.449007
0.44892
0.448872
0.448776
0.448494
0.448417
0.44876
0.44895
0.448873
0.448935
0.449299
0.449396
0.44936
0.449369
0.449372
0.449387
0.449334
0.449185
0.449143
0.449172
0.449135
0.449132
0.449132
0.449024
0.449055
0.449189
0.449201
0.449203
0.449138
0.449138
0.449137
0.449151
0.449148
0.449017
0.449041
0.44909
0.448907
0.448958
0.449012
0.448995
0.448993
0.44894
0.44877
0.381769
0.393941
0.406075
0.418646
0.430373
0.439701
0.445745
0.448484
0.44919
0.449279
0.449509
0.449644
0.449631
0.449624
0.449489
0.449474
0.449666
0.449724
0.449745
0.449722
0.449778
0.450288
0.450643
0.450792
0.450881
0.450781
0.450756
0.450826
0.450848
0.450792
0.450792
0.450793
0.450797
0.450749
0.450696
0.450596
0.450384
0.450162
0.449993
0.449867
0.449765
0.449684
0.449611
0.449563
0.44949
0.449336
0.449173
0.449076
0.448884
0.448706
0.448647
0.448492
0.448535
0.448647
0.448612
0.448609
0.448607
0.448528
0.448521
0.448535
0.448376
0.448381
0.448591
0.448643
0.4486
0.448441
0.448445
0.448583
0.448555
0.448561
0.448529
0.448615
0.449039
0.44914
0.449137
0.449115
0.449093
0.449107
0.449106
0.449097
0.448951
0.44899
0.449083
0.449056
0.449071
0.449082
0.449094
0.449065
0.449008
0.448763
0.381807
0.393858
0.406106
0.418735
0.430333
0.439502
0.445663
0.448938
0.450003
0.450069
0.450051
0.450045
0.449927
0.450028
0.450217
0.45009
0.450184
0.450321
0.450262
0.45026
0.4502
0.450297
0.450696
0.450915
0.45092
0.450929
0.450876
0.450684
0.450731
0.450772
0.450747
0.450741
0.450692
0.450666
0.450565
0.450511
0.450376
0.450245
0.450107
0.450008
0.449897
0.449803
0.449706
0.449613
0.449548
0.449494
0.44942
0.449277
0.44899
0.448813
0.448758
0.448705
0.448598
0.44843
0.448577
0.448905
0.448906
0.448887
0.448937
0.449079
0.449195
0.449219
0.449136
0.44908
0.449185
0.449296
0.449172
0.449259
0.449332
0.449319
0.449319
0.44928
0.449274
0.449223
0.449096
0.449049
0.449173
0.449189
0.449168
0.44925
0.449394
0.449463
0.449438
0.449345
0.449398
0.449458
0.449414
0.44941
0.449361
0.449029
0.381777
0.393926
0.406028
0.418792
0.430341
0.43945
0.44571
0.448826
0.450162
0.45033
0.450181
0.450107
0.450157
0.450215
0.450184
0.45008
0.450153
0.45039
0.450312
0.4503
0.450534
0.450754
0.45063
0.450658
0.450835
0.450773
0.450868
0.451001
0.450987
0.45098
0.4509
0.450896
0.450853
0.450823
0.450779
0.450708
0.450552
0.450376
0.450238
0.449968
0.449652
0.449491
0.44933
0.449218
0.449153
0.449116
0.44905
0.448916
0.448665
0.448661
0.448719
0.448722
0.448722
0.448562
0.448584
0.449013
0.449147
0.449043
0.44907
0.44935
0.449418
0.449361
0.449359
0.449343
0.44919
0.449218
0.449275
0.449175
0.449167
0.449167
0.449161
0.449104
0.449163
0.4492
0.449134
0.449261
0.449423
0.449377
0.449373
0.449385
0.449371
0.449207
0.449114
0.449271
0.449358
0.449303
0.449295
0.449266
0.449247
0.449008
0.381762
0.393991
0.405983
0.418692
0.430428
0.439632
0.445649
0.448673
0.449427
0.449351
0.449383
0.449487
0.449444
0.449443
0.449403
0.449486
0.449921
0.450043
0.450093
0.450535
0.450805
0.450796
0.450737
0.450793
0.450853
0.450829
0.450818
0.450716
0.45069
0.45064
0.450611
0.450611
0.450613
0.450578
0.450539
0.450465
0.450423
0.45035
0.450236
0.449973
0.449814
0.449567
0.44932
0.44917
0.44911
0.449019
0.448798
0.448705
0.448646
0.448468
0.448514
0.448576
0.4484
0.448459
0.448553
0.448468
0.44849
0.448458
0.448358
0.448397
0.448597
0.44865
0.448623
0.448504
0.448557
0.448967
0.449081
0.449012
0.44901
0.449011
0.449005
0.448912
0.448952
0.449104
0.449119
0.449078
0.449099
0.449085
0.448936
0.448888
0.448971
0.448983
0.44903
0.449046
0.449018
0.448942
0.449017
0.449117
0.449075
0.448921
0.381758
0.39391
0.406132
0.418653
0.430389
0.439554
0.445652
0.448872
0.449838
0.449884
0.44988
0.449868
0.44979
0.44985
0.450052
0.450022
0.450024
0.449939
0.449947
0.450175
0.450297
0.450283
0.450249
0.450344
0.450615
0.450588
0.450525
0.450634
0.450872
0.450851
0.450816
0.450799
0.450788
0.450719
0.450653
0.450517
0.45038
0.450248
0.450115
0.450026
0.449902
0.449758
0.449624
0.449544
0.44944
0.449306
0.449131
0.44899
0.448933
0.448872
0.448754
0.448419
0.448383
0.448533
0.44847
0.448563
0.448638
0.448633
0.448631
0.448536
0.448442
0.448573
0.448693
0.448659
0.448579
0.448599
0.448886
0.448957
0.448939
0.448913
0.448916
0.44889
0.448771
0.448644
0.448735
0.448798
0.448792
0.448766
0.448812
0.448956
0.448928
0.448804
0.448813
0.448878
0.44875
0.448839
0.449091
0.449089
0.449079
0.448875
0.381797
0.393879
0.406085
0.41875
0.430335
0.43948
0.445724
0.448895
0.449835
0.449947
0.450097
0.450096
0.449943
0.450006
0.450247
0.45015
0.450204
0.450424
0.450346
0.450406
0.450679
0.450695
0.450601
0.450635
0.450835
0.45101
0.451007
0.450811
0.450852
0.450926
0.450915
0.45091
0.45086
0.450844
0.45078
0.450697
0.450474
0.450272
0.450086
0.449917
0.449784
0.449667
0.449578
0.449512
0.449461
0.449423
0.449376
0.449288
0.449101
0.448796
0.448671
0.448602
0.448554
0.448407
0.44838
0.448592
0.44864
0.448614
0.448586
0.448476
0.448496
0.448573
0.448637
0.448612
0.448466
0.448495
0.448693
0.44869
0.448694
0.44866
0.448753
0.4488
0.448775
0.4487
0.448709
0.44894
0.448959
0.448937
0.448865
0.448958
0.449046
0.44905
0.449051
0.448884
0.448843
0.448882
0.448878
0.448882
0.448878
0.448765
0.381766
0.393949
0.406008
0.418785
0.430394
0.439422
0.445571
0.449041
0.450221
0.450324
0.45029
0.450304
0.450294
0.450172
0.45023
0.450354
0.450229
0.450304
0.450517
0.450404
0.450448
0.450727
0.45076
0.450677
0.450743
0.450881
0.450986
0.450977
0.450779
0.450816
0.450845
0.450747
0.450732
0.450718
0.450715
0.450665
0.450583
0.450411
0.450224
0.450067
0.449932
0.449839
0.449736
0.449665
0.449597
0.449449
0.449382
0.449249
0.449134
0.449081
0.449043
0.448964
0.448769
0.448599
0.448717
0.449275
0.449352
0.449206
0.449287
0.449383
0.449369
0.449361
0.449257
0.449237
0.449134
0.449198
0.44932
0.449211
0.44928
0.449371
0.449373
0.449371
0.449227
0.449215
0.449178
0.449094
0.449095
0.44906
0.448986
0.448972
0.449158
0.449235
0.449218
0.449212
0.449055
0.449088
0.449185
0.44918
0.449176
0.448965
0.381777
0.393926
0.406028
0.418794
0.430341
0.439448
0.445709
0.448828
0.450165
0.450335
0.450281
0.450157
0.450164
0.450285
0.450275
0.450223
0.450197
0.450324
0.450389
0.450372
0.450307
0.450366
0.450585
0.450568
0.450567
0.450795
0.451051
0.451025
0.451033
0.451004
0.450956
0.450921
0.450911
0.45087
0.450834
0.450695
0.450524
0.450362
0.450227
0.44995
0.449699
0.449442
0.449304
0.449196
0.449133
0.449098
0.449042
0.448932
0.448684
0.448646
0.448713
0.448724
0.448712
0.448567
0.448685
0.448862
0.448768
0.448885
0.449182
0.449123
0.449214
0.449316
0.449319
0.44932
0.449252
0.449102
0.449092
0.44919
0.449194
0.449189
0.449192
0.449196
0.449151
0.449007
0.449009
0.44917
0.449063
0.449135
0.449246
0.449243
0.449232
0.449236
0.449241
0.449202
0.449189
0.449056
0.448925
0.448978
0.449024
0.448865
0.381809
0.393855
0.406107
0.418742
0.430306
0.439556
0.445617
0.448932
0.449917
0.449881
0.449958
0.450106
0.450094
0.450094
0.449983
0.450084
0.45027
0.450399
0.450432
0.450409
0.450387
0.450451
0.45073
0.450661
0.450755
0.45087
0.450869
0.450863
0.450708
0.45069
0.450657
0.45062
0.450573
0.450511
0.450472
0.450415
0.450395
0.450343
0.450292
0.450206
0.450026
0.449837
0.449684
0.449553
0.44947
0.449417
0.449323
0.449122
0.448829
0.448579
0.448574
0.448582
0.448533
0.44848
0.448639
0.448993
0.448987
0.448971
0.448956
0.449165
0.449336
0.44932
0.449297
0.449178
0.449144
0.44919
0.449169
0.449255
0.44933
0.449318
0.449315
0.44921
0.44921
0.449136
0.449193
0.449336
0.449323
0.449327
0.449268
0.449177
0.449148
0.4491
0.449184
0.449389
0.449367
0.449369
0.44938
0.449383
0.449315
0.449016
0.381775
0.393938
0.406064
0.418653
0.430405
0.43964
0.445685
0.448648
0.449358
0.449292
0.449301
0.449436
0.449444
0.449587
0.449724
0.449731
0.449728
0.449743
0.449954
0.449977
0.449948
0.450043
0.450536
0.450603
0.45051
0.45059
0.450724
0.450648
0.450569
0.450504
0.450511
0.450515
0.450509
0.450485
0.450442
0.450393
0.450314
0.450262
0.450184
0.450036
0.449806
0.449629
0.449531
0.449343
0.449217
0.449116
0.4489
0.448683
0.448679
0.448688
0.448597
0.448582
0.448687
0.448724
0.448629
0.448703
0.448842
0.448852
0.448821
0.448762
0.448641
0.448672
0.448825
0.448837
0.448836
0.44868
0.448704
0.448713
0.448787
0.449052
0.449063
0.449035
0.449018
0.448994
0.448957
0.448836
0.448854
0.449052
0.449057
0.448986
0.449009
0.449173
0.449164
0.449166
0.449165
0.449078
0.449127
0.449214
0.449171
0.449013
0.381751
0.393958
0.406134
0.418554
0.430475
0.439618
0.445563
0.448741
0.449633
0.449593
0.449697
0.449816
0.449812
0.449812
0.449634
0.449655
0.449907
0.450133
0.450121
0.450056
0.450046
0.450018
0.450104
0.450634
0.450795
0.45071
0.4507
0.450687
0.450614
0.450581
0.450554
0.450537
0.450491
0.450439
0.450387
0.450323
0.450266
0.450157
0.45005
0.44995
0.449826
0.449717
0.449621
0.449534
0.449484
0.449418
0.44927
0.449199
0.449048
0.448984
0.448847
0.448783
0.448753
0.448742
0.448767
0.448754
0.448716
0.448532
0.448523
0.448851
0.448961
0.448949
0.448955
0.448859
0.448908
0.448999
0.448943
0.448959
0.448973
0.448956
0.448921
0.448841
0.448974
0.44911
0.449113
0.449113
0.44895
0.449016
0.449125
0.449016
0.449009
0.449006
0.448947
0.448896
0.448963
0.44905
0.449013
0.449026
0.449005
0.448787
0.381747
0.393955
0.406143
0.418554
0.430472
0.439595
0.445604
0.448739
0.449555
0.449506
0.449587
0.449718
0.449712
0.449712
0.449546
0.449554
0.449946
0.450171
0.450153
0.450063
0.450048
0.450301
0.450386
0.450292
0.45033
0.450477
0.450416
0.450531
0.45062
0.450611
0.450607
0.45055
0.450536
0.450479
0.450386
0.450228
0.450085
0.449954
0.449852
0.44975
0.449669
0.449612
0.44956
0.449519
0.449467
0.449376
0.449243
0.449175
0.449114
0.448997
0.448787
0.448711
0.448636
0.448459
0.448561
0.448948
0.448897
0.449005
0.449104
0.449091
0.449083
0.448976
0.448959
0.448884
0.448971
0.449125
0.449141
0.449109
0.44892
0.448974
0.449109
0.448968
0.449037
0.449089
0.448993
0.448982
0.44898
0.448891
0.44895
0.449065
0.449064
0.449062
0.448881
0.448941
0.449036
0.449037
0.449037
0.44897
0.448947
0.448747
0.381774
0.393931
0.406029
0.418776
0.430373
0.439433
0.445602
0.44901
0.450057
0.450139
0.450134
0.450102
0.450071
0.450035
0.45018
0.450337
0.450294
0.450329
0.45034
0.450248
0.450346
0.450527
0.450407
0.450378
0.45047
0.450448
0.450539
0.450707
0.45052
0.450569
0.450609
0.450584
0.450577
0.45051
0.450483
0.450379
0.450325
0.450194
0.45007
0.449961
0.449859
0.449785
0.449705
0.449634
0.449527
0.44928
0.449099
0.449007
0.448822
0.448677
0.44871
0.448695
0.448815
0.448945
0.448891
0.448887
0.448886
0.448797
0.448815
0.448874
0.448881
0.448868
0.448901
0.448969
0.44895
0.448947
0.448793
0.448854
0.448937
0.44892
0.448927
0.448897
0.449136
0.44926
0.44919
0.449191
0.449199
0.449196
0.449172
0.449098
0.449077
0.449077
0.449062
0.448923
0.44898
0.449131
0.449044
0.449047
0.449039
0.448874
0.381762
0.39395
0.406013
0.41881
0.430364
0.439412
0.445585
0.448928
0.450209
0.45033
0.450267
0.450261
0.450261
0.450253
0.450169
0.450235
0.450291
0.45016
0.450183
0.450464
0.450532
0.450648
0.450799
0.450731
0.450705
0.450675
0.450583
0.450666
0.450727
0.450713
0.450714
0.450646
0.450626
0.45061
0.450615
0.450565
0.450495
0.450376
0.450293
0.450142
0.449991
0.449892
0.449824
0.449691
0.449561
0.449487
0.449397
0.449348
0.449283
0.44921
0.449065
0.448776
0.448778
0.448899
0.448906
0.448903
0.448806
0.448789
0.448743
0.448865
0.448974
0.448862
0.448899
0.448922
0.448902
0.44885
0.448835
0.4488
0.448841
0.449192
0.449317
0.449324
0.449323
0.44913
0.449115
0.449217
0.449129
0.449215
0.449305
0.449158
0.449226
0.449279
0.449175
0.449217
0.449229
0.449184
0.449186
0.449184
0.449138
0.44886
0.381747
0.393918
0.406123
0.418716
0.430297
0.439574
0.445685
0.448787
0.449797
0.449852
0.449809
0.449716
0.449637
0.44964
0.449642
0.449563
0.449644
0.449912
0.449896
0.449902
0.449876
0.450001
0.450363
0.450369
0.45028
0.450341
0.450459
0.450459
0.450454
0.450312
0.450291
0.450224
0.450192
0.450156
0.45012
0.450079
0.450009
0.449878
0.449765
0.449715
0.449667
0.449615
0.449577
0.449532
0.44946
0.449312
0.449199
0.449127
0.449015
0.448749
0.448571
0.448694
0.448821
0.448755
0.448754
0.448761
0.448757
0.448625
0.448652
0.448894
0.449085
0.449067
0.44893
0.448987
0.449021
0.448953
0.448957
0.448956
0.448856
0.448907
0.448967
0.448956
0.448922
0.448926
0.448969
0.44881
0.448817
0.448976
0.44903
0.449004
0.449016
0.449018
0.448862
0.448935
0.449082
0.44905
0.449043
0.449024
0.449016
0.448835
0.381782
0.393908
0.406062
0.418739
0.430385
0.439461
0.445566
0.448961
0.45017
0.450268
0.450253
0.450259
0.45023
0.450135
0.450171
0.450202
0.450181
0.450121
0.450118
0.450357
0.450424
0.450395
0.4503
0.45028
0.450488
0.450533
0.450621
0.450756
0.450737
0.450735
0.450699
0.45066
0.450613
0.450545
0.450464
0.450383
0.450298
0.450233
0.45017
0.450105
0.450039
0.449942
0.449869
0.449735
0.449555
0.449452
0.449341
0.449279
0.449195
0.449024
0.4487
0.448672
0.448871
0.448897
0.448853
0.448707
0.448732
0.448838
0.448735
0.448737
0.448737
0.448737
0.44862
0.448666
0.448816
0.448683
0.44865
0.448796
0.44889
0.448867
0.448792
0.448875
0.449084
0.449192
0.449166
0.449014
0.449045
0.449198
0.449197
0.449198
0.449179
0.449141
0.449096
0.448951
0.448959
0.448967
0.448913
0.44892
0.448882
0.448742
0.38177
0.393945
0.406041
0.418653
0.430411
0.439681
0.445706
0.448524
0.449112
0.449083
0.449255
0.449655
0.449649
0.449645
0.449586
0.449497
0.449659
0.449852
0.449737
0.44977
0.450071
0.450129
0.450049
0.450143
0.450469
0.450493
0.450639
0.450727
0.450668
0.450664
0.450599
0.450593
0.450602
0.450603
0.450566
0.450465
0.450356
0.450271
0.450142
0.450012
0.44991
0.44985
0.449762
0.44969
0.449644
0.44956
0.449372
0.449211
0.449126
0.448884
0.448859
0.448959
0.448961
0.448967
0.44895
0.448862
0.448804
0.448783
0.44875
0.448706