/*--------------------------------*- C++ -*----------------------------------*\
  =========                 |
  \\      /  F ield         | OpenFOAM: The Open Source CFD Toolbox
   \\    /   O peration     | Website:  https://openfoam.org
    \\  /    A nd           | Version:  11
     \\/     M anipulation  |
\*---------------------------------------------------------------------------*/
FoamFile
{
    format      ascii;
    class       volScalarField;
    location    "0.1";
    object      nut;
}
// * * * * * * * * * * * * * * * * * * * * * * * * * * * * * * * * * * * * * //

dimensions      [0 2 -1 0 0 0 0];

internalField   nonuniform List<scalar> 
287084
(
0.000836956
0.000864531
0.000892694
0.000922247
0.00095011
0.000972553
0.000987323
0.000994504
0.000996643
0.000997262
0.000997611
0.000997663
0.000997498
0.000997551
0.000997567
0.0009977
0.000997951
0.000997633
0.000997736
0.000997806
0.000997717
0.000997648
0.000997256
0.000997419
0.000998074
0.000998096
0.000998132
0.000998102
0.000998008
0.000997837
0.000998025
0.000998206
0.000998076
0.000998439
0.00099882
0.000999029
0.00099931
0.000999492
0.000999703
0.000999868
0.00100004
0.00100019
0.00100028
0.0010004
0.00100039
0.00100039
0.00100043
0.00100041
0.00100042
0.00100034
0.00100011
0.000999551
0.000999573
0.000999817
0.000999813
0.000999737
0.000999794
0.000999818
0.00099971
0.000999535
0.000999342
0.000999441
0.000999543
0.000999449
0.000999206
0.000999479
0.000999909
0.00099989
0.000999842
0.000999454
0.000999532
0.000999719
0.00099963
0.000999557
0.000999286
0.000999176
0.000999033
0.000999213
0.000999804
0.00099977
0.000999692
0.000999654
0.000999353
0.000999244
0.000999451
0.000999366
0.000999563
0.000999684
0.000999549
0.000999024
0.00118295
0.00122085
0.00125875
0.00129811
0.00133513
0.00136487
0.00138461
0.00139373
0.00139606
0.0013966
0.00139711
0.00139684
0.00139696
0.00139743
0.00139728
0.00139734
0.00139726
0.00139701
0.00139694
0.00139685
0.00139668
0.00139617
0.00139583
0.00139637
0.00139666
0.00139704
0.00139741
0.00139712
0.00139741
0.00139769
0.00139782
0.00139807
0.00139823
0.00139829
0.00139788
0.00139787
0.00139827
0.00139864
0.00139884
0.00139873
0.00139885
0.00139924
0.00139968
0.00139991
0.00140006
0.00140018
0.00140018
0.00139974
0.00139985
0.00140033
0.00140037
0.00140047
0.00140051
0.00140052
0.00140056
0.0014006
0.00140052
0.00140053
0.00140047
0.00140034
0.00140008
0.00139946
0.00139917
0.00139972
0.00139998
0.0013998
0.00139939
0.00139919
0.00139957
0.00139979
0.00139963
0.00139919
0.00139924
0.00139999
0.00140011
0.00140002
0.00139994
0.00139984
0.00139967
0.0013993
0.00139906
0.00139917
0.00139936
0.00139925
0.00139913
0.001399
0.00139863
0.00139884
0.00139896
0.00139837
0.00118298
0.00122107
0.00125882
0.00129837
0.00133546
0.00136474
0.00138442
0.00139428
0.00139724
0.0013975
0.00139745
0.00139704
0.00139697
0.00139724
0.00139719
0.00139704
0.00139649
0.00139624
0.00139693
0.00139723
0.00139714
0.00139705
0.00139637
0.0013963
0.00139691
0.00139705
0.00139696
0.00139717
0.00139735
0.00139745
0.00139766
0.00139761
0.00139785
0.00139818
0.0013985
0.00139868
0.00139899
0.00139917
0.00139943
0.00139976
0.00140003
0.00140002
0.00139958
0.00139939
0.00139968
0.00139995
0.00140002
0.00139995
0.00139982
0.00140007
0.00140042
0.00140045
0.00140052
0.00140041
0.00140041
0.00140043
0.00140012
0.00140021
0.00140023
0.00140007
0.0013998
0.00139928
0.00139942
0.00139969
0.00139953
0.00139915
0.00139901
0.00139946
0.00139937
0.00139969
0.00139999
0.00139989
0.00139991
0.00139985
0.00139974
0.00139977
0.00139974
0.00139935
0.00139896
0.00139895
0.00139899
0.00139889
0.00139886
0.00139875
0.00139843
0.00139859
0.00139941
0.00139942
0.00139935
0.00139867
0.00118302
0.00122107
0.0012591
0.00129869
0.00133567
0.00136496
0.00138464
0.0013948
0.00139775
0.00139795
0.00139766
0.00139779
0.00139815
0.00139803
0.00139792
0.00139773
0.00139747
0.00139685
0.00139655
0.00139656
0.00139644
0.00139643
0.00139637
0.00139625
0.00139605
0.00139639
0.00139665
0.00139673
0.00139685
0.00139642
0.00139661
0.00139731
0.00139731
0.00139788
0.00139849
0.00139871
0.00139909
0.00139946
0.00139983
0.00140002
0.00140024
0.00140036
0.00140055
0.00140073
0.00140092
0.00140082
0.00140071
0.00140063
0.00140065
0.00140053
0.00140002
0.00139981
0.0014
0.0014001
0.0013999
0.00139999
0.00140008
0.00140006
0.00140004
0.00139954
0.00139977
0.00140004
0.00139996
0.00139993
0.0013998
0.00139971
0.00139963
0.00139953
0.00139908
0.00139901
0.00139949
0.00139934
0.00139961
0.00139981
0.00139975
0.00139971
0.00139932
0.00139925
0.00139903
0.0013993
0.00139995
0.00140001
0.00139988
0.00139944
0.00139936
0.00139942
0.0013993
0.00139927
0.00139925
0.00139869
0.00118304
0.00122109
0.00125938
0.00129871
0.0013356
0.00136564
0.0013845
0.00139448
0.00139796
0.00139821
0.00139804
0.00139745
0.00139727
0.0013974
0.00139706
0.00139695
0.0013968
0.00139662
0.00139619
0.00139627
0.00139647
0.00139625
0.00139594
0.00139568
0.0013959
0.00139591
0.00139623
0.00139641
0.00139613
0.00139651
0.00139716
0.0013969
0.00139735
0.00139805
0.00139834
0.0013987
0.00139896
0.0013991
0.00139922
0.00139943
0.00139932
0.00139984
0.00140032
0.00140015
0.00140055
0.00140084
0.00140063
0.00140097
0.00140118
0.0014011
0.00140114
0.00140123
0.00140129
0.00140116
0.00140121
0.00140112
0.00140092
0.00140051
0.00139959
0.00139936
0.00139951
0.00139934
0.00139949
0.00139964
0.00139955
0.00139948
0.00139914
0.00139868
0.00139893
0.00139932
0.00139919
0.00139898
0.00139868
0.00139911
0.0013993
0.00139955
0.00139999
0.00139944
0.00139954
0.00139986
0.00139937
0.00139958
0.00139983
0.00139982
0.00139979
0.00139907
0.00139902
0.0013992
0.00139916
0.00139872
0.00118303
0.0012212
0.00125928
0.00129864
0.00133607
0.00136575
0.00138471
0.00139347
0.0013975
0.00139794
0.00139739
0.00139747
0.00139768
0.00139757
0.00139729
0.00139695
0.00139653
0.0013962
0.00139662
0.00139689
0.00139667
0.00139647
0.00139635
0.00139572
0.0013957
0.00139594
0.00139593
0.00139584
0.00139623
0.00139699
0.00139677
0.00139728
0.00139786
0.0013982
0.00139857
0.00139886
0.0013992
0.00139918
0.00139933
0.00139946
0.00139904
0.00139926
0.00139976
0.00139993
0.00140026
0.00140063
0.00140072
0.00140072
0.00140067
0.00140015
0.00140015
0.00140039
0.00140047
0.00140049
0.00140012
0.00140029
0.00140052
0.00140025
0.00140034
0.00140036
0.0014002
0.00139973
0.00139978
0.00139989
0.0013998
0.00139974
0.00139921
0.0013992
0.00139915
0.0013994
0.00140012
0.00139993
0.00140004
0.00140003
0.0013999
0.00139975
0.00139934
0.00139919
0.00139894
0.00139919
0.00139983
0.00139981
0.00139967
0.00139943
0.00139931
0.00139886
0.00139905
0.00139947
0.00139936
0.0013989
0.00118303
0.00122115
0.00125941
0.00129855
0.0013364
0.0013656
0.00138453
0.0013944
0.00139762
0.00139786
0.00139775
0.0013976
0.00139684
0.00139662
0.00139684
0.00139647
0.00139643
0.00139757
0.00139782
0.00139727
0.00139738
0.00139764
0.00139743
0.00139736
0.00139736
0.00139736
0.00139684
0.00139707
0.00139738
0.00139738
0.00139765
0.00139799
0.00139837
0.00139863
0.00139881
0.00139911
0.00139941
0.00139973
0.00139992
0.0013998
0.00140005
0.00140022
0.00140042
0.00140065
0.00140086
0.00140101
0.00140104
0.00140114
0.00140111
0.00140112
0.00140111
0.00140102
0.00140076
0.00140047
0.00140038
0.00140021
0.0014001
0.00139995
0.00139964
0.00139949
0.00139965
0.00139967
0.00139984
0.0013999
0.00139976
0.00139963
0.0013992
0.00139934
0.00139965
0.00139949
0.00139912
0.00139895
0.00139908
0.00139905
0.00139903
0.00139886
0.00139885
0.00139877
0.0013991
0.00139927
0.00139917
0.00139893
0.00139887
0.00139943
0.00139949
0.00139937
0.00139889
0.00139886
0.00139909
0.00139859
0.00118312
0.00122105
0.00125931
0.00129917
0.00133592
0.00136513
0.0013846
0.00139547
0.00139938
0.00139967
0.00139949
0.00139916
0.00139889
0.00139885
0.00139863
0.00139809
0.00139811
0.00139829
0.00139805
0.00139786
0.00139756
0.00139738
0.00139674
0.00139675
0.00139718
0.00139686
0.00139721
0.00139763
0.00139776
0.00139799
0.00139802
0.00139834
0.00139863
0.00139898
0.00139937
0.00139979
0.00140024
0.00140061
0.00140062
0.00140068
0.00140066
0.00140083
0.00140094
0.00140113
0.00140128
0.00140129
0.00140146
0.00140163
0.00140179
0.00140176
0.00140173
0.00140154
0.00140096
0.00140067
0.00140084
0.00140107
0.00140095
0.00140074
0.00140061
0.00140017
0.00140033
0.00140076
0.00140033
0.0014005
0.00140076
0.00140066
0.0014006
0.00140046
0.00140038
0.00140012
0.00139941
0.00139934
0.00140003
0.00140007
0.00139995
0.00139985
0.0013994
0.00139955
0.00140002
0.00139973
0.0013998
0.00139979
0.00139967
0.00139936
0.00139925
0.00139936
0.00139924
0.00139927
0.00139924
0.0013987
0.00118304
0.00122123
0.00125924
0.00129896
0.00133616
0.00136554
0.00138483
0.00139474
0.00139771
0.00139782
0.00139759
0.00139714
0.00139677
0.00139709
0.001397
0.00139709
0.0013974
0.00139698
0.00139658
0.00139664
0.00139689
0.00139703
0.00139722
0.00139695
0.00139693
0.00139685
0.00139657
0.00139691
0.00139763
0.00139741
0.00139794
0.00139859
0.00139901
0.00139946
0.00139979
0.00140025
0.00140054
0.00140099
0.00140131
0.00140155
0.0014014
0.00140136
0.00140139
0.00140102
0.00140082
0.00140085
0.00140052
0.00140064
0.00140108
0.00140103
0.00140129
0.00140138
0.00140111
0.00140132
0.00140141
0.00140132
0.00140124
0.00140075
0.00140048
0.00140034
0.00140018
0.0014
0.00139968
0.00139954
0.0013994
0.00139968
0.00139986
0.00139973
0.00139966
0.00139913
0.00139932
0.00140005
0.00139985
0.0013999
0.00140002
0.00139991
0.00139976
0.00139956
0.00139949
0.00139923
0.00139937
0.0014001
0.00139998
0.00140007
0.00140018
0.00140008
0.00140008
0.00140007
0.00139992
0.00139901
0.00118323
0.00122105
0.00125916
0.00129903
0.00133619
0.00136559
0.00138498
0.00139443
0.00139668
0.00139645
0.00139642
0.00139734
0.00139755
0.00139728
0.001397
0.00139632
0.00139614
0.00139678
0.00139665
0.00139635
0.00139605
0.00139586
0.0013957
0.00139514
0.00139523
0.00139575
0.00139589
0.00139604
0.0013959
0.00139617
0.00139638
0.0013971
0.00139778
0.00139807
0.00139859
0.00139912
0.00139965
0.00140006
0.00140043
0.00140067
0.00140055
0.00140076
0.0014008
0.00140111
0.00140138
0.00140151
0.00140167
0.00140159
0.00140166
0.00140159
0.00140137
0.00140098
0.00140057
0.00140042
0.00140018
0.00139945
0.00139944
0.00139957
0.00139941
0.00139908
0.00139904
0.00139974
0.00139953
0.00139977
0.00139996
0.00139991
0.00139984
0.00139945
0.00139915
0.00139929
0.00139962
0.00139948
0.00139944
0.00139942
0.00139938
0.00139927
0.00139908
0.00139857
0.00139868
0.00139961
0.00139964
0.00139949
0.00139924
0.00139898
0.001399
0.00139895
0.00139933
0.0013997
0.00139956
0.00139902
0.0011831
0.00122116
0.00125933
0.00129893
0.00133605
0.0013656
0.0013852
0.00139457
0.00139691
0.00139725
0.00139746
0.00139725
0.001397
0.00139633
0.00139623
0.00139624
0.00139553
0.00139536
0.00139589
0.0013957
0.00139591
0.00139699
0.00139683
0.00139656
0.0013965
0.00139648
0.00139639
0.00139601
0.00139639
0.00139691
0.00139726
0.00139769
0.00139798
0.00139841
0.00139828
0.0013989
0.00139965
0.00139959
0.00140021
0.00140092
0.00140136
0.00140176
0.00140201
0.0014023
0.00140247
0.00140255
0.00140222
0.00140137
0.00140109
0.00140092
0.00140027
0.0014002
0.00140049
0.00140026
0.00140047
0.00140051
0.00140027
0.00140028
0.00140009
0.00139965
0.0013995
0.00139995
0.00140012
0.00139992
0.0013994
0.0013994
0.00139979
0.00139975
0.00139967
0.00139905
0.0013991
0.00139933
0.00139901
0.00139877
0.0013991
0.0013997
0.00139965
0.00139959
0.00139925
0.00139896
0.00139893
0.00139892
0.00139876
0.00139917
0.00139976
0.00139942
0.00139964
0.00139976
0.00139959
0.00139898
0.00118302
0.00122121
0.00125936
0.00129887
0.00133623
0.00136554
0.00138475
0.00139493
0.0013983
0.00139853
0.00139836
0.00139813
0.00139734
0.00139715
0.00139752
0.00139698
0.00139697
0.00139706
0.00139664
0.00139636
0.00139583
0.00139606
0.00139652
0.00139633
0.00139627
0.00139591
0.00139629
0.0013969
0.0013968
0.00139733
0.00139796
0.00139825
0.00139883
0.00139942
0.00140001
0.00140059
0.00140107
0.0014015
0.00140193
0.00140233
0.00140265
0.00140273
0.00140287
0.00140272
0.00140234
0.00140192
0.00140177
0.00140173
0.00140171
0.00140163
0.00140139
0.00140072
0.00140033
0.00140055
0.00140102
0.00140085
0.00140034
0.00140034
0.00140064
0.00140026
0.00140036
0.00140038
0.0014002
0.0014
0.00139945
0.00139967
0.00140019
0.00140019
0.00140001
0.00139941
0.00139949
0.00140001
0.00139999
0.0013999
0.00139932
0.00139941
0.0013998
0.00139969
0.00139956
0.00139901
0.00139906
0.00139943
0.00139944
0.00139942
0.00139908
0.00139926
0.00139948
0.00139941
0.00139938
0.00139878
0.00118317
0.00122097
0.00125942
0.00129919
0.00133592
0.0013651
0.00138509
0.00139539
0.00139794
0.00139785
0.00139811
0.00139858
0.00139831
0.00139808
0.00139765
0.00139696
0.00139659
0.00139724
0.0013975
0.00139712
0.00139658
0.00139623
0.00139624
0.00139584
0.00139576
0.00139616
0.00139615
0.00139661
0.00139736
0.00139718
0.00139779
0.00139851
0.00139908
0.00139972
0.00140027
0.00140089
0.00140125
0.0014017
0.00140207
0.00140244
0.00140255
0.00140266
0.00140279
0.00140294
0.00140303
0.00140288
0.00140275
0.00140227
0.00140156
0.00140152
0.00140169
0.00140147
0.00140155
0.00140159
0.00140146
0.00140145
0.00140126
0.00140105
0.00140096
0.00140076
0.00140054
0.00140032
0.00139976
0.00139981
0.00140026
0.00140011
0.00140008
0.00140016
0.00140007
0.00139987
0.00139943
0.00139933
0.0013999
0.00139995
0.00139978
0.00139949
0.00139917
0.00139953
0.00139989
0.00139988
0.00139984
0.00139938
0.00139928
0.00139938
0.00139928
0.0013995
0.00139962
0.00139958
0.00139955
0.0013988
0.00118307
0.00122124
0.00125929
0.00129865
0.00133651
0.00136566
0.00138482
0.00139428
0.00139676
0.00139688
0.00139659
0.00139598
0.00139566
0.00139605
0.00139596
0.00139555
0.00139499
0.00139473
0.00139543
0.00139562
0.00139529
0.00139503
0.00139456
0.00139438
0.00139509
0.00139605
0.00139596
0.00139606
0.00139628
0.00139637
0.00139707
0.00139795
0.00139836
0.00139909
0.00139969
0.00140031
0.00140098
0.00140149
0.00140171
0.001402
0.00140205
0.00140194
0.0014021
0.00140201
0.00140209
0.00140218
0.00140218
0.00140196
0.00140179
0.00140214
0.00140228
0.00140211
0.00140202
0.00140188
0.00140178
0.00140156
0.00140145
0.00140113
0.00140026
0.00140009
0.00140051
0.00140047
0.00140026
0.00139978
0.00139961
0.00139962
0.00139952
0.00139942
0.00139925
0.00139921
0.00139904
0.00139938
0.00139994
0.00139967
0.0013998
0.00139995
0.00139985
0.00139979
0.00139973
0.00139954
0.00139903
0.0013989
0.00139961
0.00139988
0.00139999
0.00139988
0.00139968
0.00139974
0.00139961
0.00139903
0.00118311
0.0012211
0.0012593
0.00129924
0.00133602
0.00136494
0.00138495
0.00139547
0.00139858
0.00139917
0.00139893
0.00139856
0.00139819
0.00139776
0.00139723
0.00139711
0.00139709
0.00139634
0.00139627
0.00139618
0.00139573
0.00139538
0.00139554
0.00139597
0.00139552
0.00139583
0.00139657
0.00139624
0.00139673
0.00139741
0.00139729
0.00139805
0.00139884
0.00139936
0.00140006
0.0014006
0.00140112
0.00140178
0.00140245
0.00140298
0.00140348
0.00140366
0.00140341
0.00140301
0.00140259
0.00140239
0.00140235
0.00140224
0.00140198
0.00140177
0.00140151
0.00140138
0.0014012
0.00140095
0.00140073
0.00140024
0.00140022
0.0014009
0.00140099
0.00140081
0.00140066
0.00140011
0.00139995
0.00140034
0.00140028
0.00139993
0.00139982
0.0014004
0.00140053
0.00140034
0.00140006
0.00139968
0.00139982
0.00139995
0.00139976
0.00139939
0.0013991
0.00139962
0.00139995
0.00139976
0.00139975
0.0013996
0.00139924
0.00139906
0.0013995
0.0013997
0.00139957
0.00139954
0.00139939
0.00139866
0.00118299
0.00122124
0.00125957
0.00129861
0.00133631
0.00136547
0.00138464
0.00139477
0.00139804
0.00139814
0.00139785
0.00139731
0.00139705
0.00139676
0.0013963
0.00139581
0.00139566
0.00139594
0.00139552
0.00139498
0.0013948
0.00139479
0.00139412
0.00139422
0.00139489
0.00139463
0.00139464
0.00139537
0.00139613
0.00139659
0.00139718
0.00139772
0.00139823
0.00139885
0.00139949
0.00139993
0.00140055
0.0014012
0.00140173
0.00140221
0.00140265
0.00140297
0.00140325
0.00140342
0.0014035
0.00140358
0.0014036
0.00140346
0.00140335
0.00140306
0.00140239
0.00140139
0.00140123
0.00140122
0.00140102
0.00140064
0.00140041
0.00140035
0.0014001
0.00140073
0.00140203
0.00140198
0.0014018
0.00140169
0.00140142
0.0014009
0.00140047
0.00140039
0.00140021
0.00140048
0.00140074
0.00140029
0.00140042
0.0014006
0.00140054
0.00140047
0.00140011
0.00139951
0.00139938
0.00139952
0.00139945
0.00139903
0.00139909
0.00139962
0.00139957
0.00139955
0.00139949
0.00139948
0.00139941
0.00139888
0.00118307
0.00122115
0.00125928
0.00129923
0.00133615
0.00136485
0.00138443
0.00139564
0.00139952
0.00139974
0.00139948
0.00139921
0.00139878
0.00139832
0.00139775
0.00139768
0.00139771
0.00139725
0.00139683
0.00139616
0.00139572
0.00139573
0.00139585
0.00139558
0.00139513
0.00139516
0.00139589
0.00139625
0.0013965
0.00139655
0.0013973
0.00139812
0.00139866
0.00139951
0.00140029
0.00140113
0.00140187
0.00140265
0.00140326
0.0014038
0.00140417
0.0014044
0.00140426
0.00140393
0.00140358
0.00140337
0.00140323
0.00140316
0.00140304
0.00140274
0.00140209
0.00140118
0.00140079
0.00140075
0.00140063
0.00140017
0.0014001
0.00140075
0.00140065
0.00140089
0.00140103
0.00140079
0.00140028
0.00140014
0.00140032
0.00140024
0.00140001
0.00140011
0.00140035
0.00140009
0.00140001
0.00139994
0.00139986
0.00139955
0.00139986
0.00140017
0.0014
0.00139994
0.00139982
0.00139974
0.00139924
0.00139934
0.00139979
0.00139967
0.00139964
0.0013994
0.0013996
0.00139969
0.0013995
0.00139882
0.00118306
0.00122122
0.00125915
0.0012993
0.00133612
0.00136475
0.00138472
0.00139563
0.00139903
0.00139981
0.00139999
0.00139963
0.00139917
0.00139876
0.00139818
0.00139753
0.00139697
0.00139618
0.00139598
0.00139619
0.00139537
0.0013951
0.00139552
0.00139541
0.00139519
0.00139567
0.00139633
0.00139629
0.00139689
0.00139762
0.00139825
0.00139903
0.00139972
0.00140062
0.00140141
0.00140217
0.00140286
0.0014035
0.00140393
0.00140403
0.00140409
0.00140421
0.00140414
0.00140402
0.0014039
0.00140387
0.00140368
0.00140313
0.00140204
0.00140157
0.00140164
0.00140153
0.00140141
0.00140127
0.00140108
0.00140081
0.00140091
0.00140109
0.00140083
0.00140068
0.00140054
0.00140022
0.00140057
0.00140113
0.00140069
0.0014008
0.00140102
0.00140079
0.00140068
0.00140052
0.0014
0.00139975
0.00140012
0.00140026
0.00140011
0.00139985
0.00140014
0.00140036
0.00139985
0.00139997
0.00140004
0.00139991
0.00139979
0.00139933
0.00139951
0.00139977
0.00139959
0.00139961
0.00139947
0.00139872
0.00118311
0.00122107
0.00125935
0.00129923
0.00133594
0.00136505
0.00138451
0.00139544
0.0013989
0.0013991
0.00139884
0.00139841
0.0013981
0.00139749
0.0013974
0.00139731
0.00139669
0.0013962
0.00139542
0.00139512
0.00139582
0.00139585
0.00139554
0.00139525
0.00139507
0.00139511
0.00139524
0.00139511
0.00139575
0.00139648
0.00139694
0.00139762
0.00139843
0.00139938
0.00140036
0.00140123
0.0014017
0.00140184
0.00140214
0.0014024
0.00140277
0.00140314
0.00140329
0.00140328
0.00140362
0.00140384
0.00140389
0.00140392
0.00140366
0.00140306
0.00140201
0.00140151
0.00140151
0.00140156
0.00140128
0.00140067
0.00140042
0.00140084
0.00140101
0.0014008
0.00140066
0.00140044
0.0014001
0.00140042
0.00140129
0.00140121
0.00140101
0.0014008
0.0014006
0.00140035
0.00139979
0.0013997
0.00139971
0.00139925
0.00139939
0.00140013
0.00140009
0.00139997
0.00139948
0.00139932
0.00139957
0.00139937
0.00139964
0.00139983
0.00139954
0.00139966
0.00139984
0.00139975
0.0013996
0.00139873
0.00118293
0.00122124
0.00125943
0.00129905
0.00133592
0.00136522
0.00138484
0.00139511
0.00139785
0.00139776
0.00139774
0.00139746
0.00139673
0.00139649
0.00139641
0.00139593
0.00139545
0.00139464
0.00139464
0.00139484
0.00139443
0.00139413
0.00139364
0.00139406
0.00139528
0.001395
0.00139546
0.00139612
0.00139633
0.0013969
0.0013976
0.00139851
0.00139947
0.00140045
0.00140136
0.00140223
0.0014029
0.00140354
0.00140397
0.00140439
0.00140457
0.00140464
0.00140473
0.00140456
0.00140451
0.00140412
0.00140368
0.00140318
0.00140289
0.00140267
0.00140227
0.00140125
0.00140087
0.00140178
0.00140221
0.00140179
0.00140181
0.00140277
0.0014029
0.00140262
0.00140248
0.00140234
0.00140223
0.00140193
0.00140133
0.00140107
0.00140104
0.00140082
0.0014007
0.0014006
0.00140018
0.00140019
0.00140053
0.00140049
0.00140043
0.00140016
0.00140011
0.00140005
0.00140004
0.00139999
0.00139954
0.00139958
0.00139969
0.00139909
0.00139922
0.00139936
0.00139929
0.00139927
0.00139909
0.00139849
0.00118306
0.0012212
0.00125934
0.00129887
0.00133598
0.0013657
0.00138507
0.00139391
0.00139616
0.0013963
0.00139677
0.00139685
0.00139642
0.00139596
0.00139507
0.00139453
0.00139461
0.00139429
0.00139385
0.0013933
0.00139302
0.00139422
0.00139501
0.00139527
0.00139545
0.00139518
0.0013953
0.00139587
0.00139645
0.00139695
0.00139775
0.00139868
0.0013997
0.00140061
0.00140152
0.00140227
0.00140263
0.00140288
0.00140322
0.00140359
0.00140392
0.00140421
0.00140442
0.0014046
0.00140461
0.00140429
0.00140385
0.00140357
0.00140293
0.0014023
0.001402
0.00140138
0.00140136
0.00140153
0.00140124
0.00140105
0.00140086
0.00140043
0.00140022
0.0014001
0.00139943
0.00139928
0.00139979
0.0013998
0.00139953
0.0013989
0.00139879
0.00139911
0.00139892
0.00139884
0.00139864
0.00139883
0.00140007
0.00140031
0.00140023
0.0014001
0.00139997
0.00139996
0.00139991
0.00139983
0.00139934
0.00139942
0.00139968
0.00139956
0.00139958
0.00139958
0.0013996
0.00139949
0.0013993
0.00139847
0.00118318
0.00122094
0.00125944
0.00129915
0.00133585
0.00136507
0.0013848
0.0013953
0.00139867
0.00139874
0.00139842
0.00139805
0.00139728
0.00139714
0.00139725
0.00139635
0.00139612
0.00139602
0.00139532
0.00139482
0.00139417
0.00139408
0.001395
0.00139546
0.00139538
0.00139546
0.0013955
0.00139527
0.00139595
0.00139678
0.00139754
0.00139847
0.00139935
0.00140036
0.00140115
0.00140207
0.0014027
0.00140326
0.00140371
0.00140417
0.00140448
0.00140474
0.00140488
0.00140492
0.00140495
0.00140493
0.00140477
0.00140434
0.00140339
0.00140275
0.00140246
0.00140215
0.00140165
0.00140094
0.00140121
0.00140205
0.00140186
0.00140161
0.00140158
0.00140185
0.00140204
0.00140194
0.00140153
0.0014012
0.00140139
0.0014016
0.00140109
0.00140125
0.00140136
0.00140122
0.00140112
0.00140092
0.00140081
0.00140058
0.00140012
0.0013999
0.00140023
0.00140023
0.00140011
0.00140032
0.00140072
0.0014009
0.00140079
0.00140046
0.0014006
0.00140076
0.0014006
0.00140057
0.00140041
0.0013993
0.00118309
0.00122115
0.00125919
0.00129932
0.00133587
0.0013649
0.00138493
0.00139494
0.00139914
0.00139952
0.00139879
0.00139821
0.00139795
0.00139767
0.00139709
0.00139625
0.00139594
0.00139614
0.00139537
0.00139482
0.00139508
0.00139536
0.00139465
0.00139452
0.00139497
0.00139483
0.00139534
0.00139614
0.00139665
0.00139735
0.00139795
0.00139891
0.00139984
0.00140086
0.00140185
0.00140275
0.00140332
0.00140375
0.00140422
0.00140416
0.00140384
0.00140389
0.00140382
0.00140381
0.00140384
0.00140387
0.00140373
0.00140331
0.00140248
0.00140237
0.00140243
0.00140229
0.00140211
0.00140142
0.0014013
0.00140244
0.00140267
0.00140215
0.00140204
0.00140273
0.00140276
0.00140242
0.00140225
0.00140204
0.00140142
0.00140138
0.00140143
0.001401
0.00140086
0.00140076
0.00140064
0.00140038
0.00140048
0.00140052
0.00140024
0.00140057
0.00140102
0.00140082
0.00140075
0.00140074
0.00140066
0.00140011
0.00139978
0.00140023
0.00140048
0.00140028
0.00140024
0.00140012
0.00140005
0.00139923
0.00118305
0.00122135
0.00125905
0.001299
0.00133614
0.00136547
0.00138474
0.00139444
0.00139684
0.00139646
0.00139628
0.00139625
0.0013957
0.00139524
0.00139461
0.00139434
0.00139516
0.00139499
0.00139461
0.00139547
0.00139584
0.00139539
0.00139488
0.00139484
0.00139493
0.00139491
0.00139509
0.00139517
0.00139565
0.00139622
0.00139701
0.001398
0.00139908
0.0014001
0.00140113
0.00140203
0.00140297
0.00140374
0.00140428
0.00140425
0.00140442
0.00140421
0.00140387
0.00140374
0.00140378
0.00140364
0.00140302
0.00140273
0.00140249
0.00140183
0.00140184
0.00140188
0.00140115
0.00140114
0.00140124
0.00140078
0.00140064
0.00140034
0.00139984
0.00139977
0.00140022
0.00140021
0.00139997
0.00139944
0.00139946
0.0014006
0.00140083
0.0014005
0.00140038
0.00140028
0.00140016
0.00139978
0.00139982
0.00140022
0.0014002
0.0014
0.00140001
0.00139991
0.00139939
0.00139919
0.00139941
0.00139941
0.00139952
0.00139954
0.00139942
0.00139915
0.00139937
0.00139966
0.00139952
0.00139896
0.00118303
0.0012211
0.00125952
0.00129888
0.00133601
0.00136522
0.00138474
0.00139506
0.00139811
0.00139811
0.00139782
0.00139742
0.00139676
0.00139648
0.00139661
0.00139599
0.00139545
0.00139464
0.00139412
0.00139431
0.00139421
0.00139376
0.00139332
0.00139339
0.00139413
0.00139412
0.00139413
0.00139486
0.00139617
0.00139684
0.00139762
0.00139857
0.00139962
0.00140055
0.0014015
0.0014022
0.00140286
0.00140345
0.00140394
0.00140445
0.00140474
0.00140485
0.00140487
0.00140495
0.00140485
0.00140458
0.00140409
0.00140365
0.00140342
0.00140313
0.00140262
0.00140141
0.00140112
0.0014014
0.00140101
0.00140109
0.00140112
0.0014009
0.0014007
0.00140022
0.00139974
0.00139998
0.00140019
0.00139993
0.00139953
0.00139946
0.00140022
0.00140033
0.00140016
0.00139997
0.00139988
0.00139971
0.00139926
0.00139879
0.001399
0.00139913
0.00139905
0.00139891
0.001399
0.00139941
0.00139928
0.00139885
0.00139884
0.00139901
0.00139859
0.00139883
0.0013996
0.00139957
0.00139953
0.00139882
0.00118315
0.001221
0.00125937
0.00129919
0.00133584
0.00136499
0.00138497
0.00139514
0.0013981
0.0013983
0.00139849
0.00139813
0.00139724
0.00139697
0.00139721
0.00139639
0.00139601
0.00139614
0.00139537
0.00139503
0.0013954
0.00139503
0.00139441
0.00139429
0.00139481
0.00139543
0.00139563
0.00139542
0.00139611
0.00139708
0.00139792
0.00139891
0.00139985
0.00140094
0.00140189
0.00140277
0.00140315
0.00140352
0.00140384
0.00140411
0.00140437
0.00140456
0.00140472
0.00140485
0.00140492
0.00140494
0.00140486
0.00140458
0.00140394
0.00140289
0.00140236
0.00140199
0.00140166
0.00140101
0.00140072
0.00140118
0.00140113
0.00140085
0.00140056
0.00140003
0.00139991
0.00139998
0.00140002
0.00139978
0.00139918
0.00139914
0.00139963
0.00139949
0.0013994
0.00139918
0.00139938
0.00139944
0.00139927
0.00139896
0.00139892
0.00139957
0.00139957
0.00139945
0.00139917
0.00139941
0.00139964
0.00139962
0.00139958
0.00139903
0.00139887
0.00139897
0.00139893
0.00139893
0.0013989
0.00139848
0.00118306
0.00122122
0.00125913
0.0012993
0.00133603
0.00136481
0.00138449
0.00139559
0.00139931
0.00139949
0.0013991
0.0013988
0.00139834
0.0013975
0.00139718
0.00139705
0.00139612
0.0013958
0.00139593
0.00139506
0.00139473
0.00139518
0.00139496
0.00139447
0.00139459
0.00139507
0.00139561
0.00139598
0.00139593
0.00139677
0.00139773
0.00139842
0.00139946
0.00140054
0.00140168
0.00140265
0.00140347
0.00140392
0.00140424
0.00140454
0.00140479
0.00140506
0.00140518
0.00140529
0.00140531
0.00140499
0.00140484
0.00140443
0.00140401
0.00140375
0.0014035
0.00140309
0.0014023
0.00140158
0.00140175
0.0014033
0.00140334
0.00140268
0.00140274
0.00140286
0.00140263
0.00140244
0.00140195
0.00140173
0.00140127
0.00140133
0.00140158
0.00140112
0.00140122
0.0014014
0.00140131
0.00140121
0.00140068
0.00140057
0.00140038
0.00140005
0.0014
0.00139983
0.00139955
0.00139946
0.00139999
0.00140019
0.00140011
0.00140005
0.00139953
0.00139961
0.00139989
0.00139985
0.00139983
0.0013991
0.00118309
0.00122115
0.00125919
0.00129933
0.00133587
0.0013649
0.00138493
0.00139495
0.00139915
0.00139954
0.0013991
0.00139836
0.00139797
0.00139789
0.00139737
0.00139669
0.00139608
0.00139594
0.00139561
0.00139505
0.00139438
0.00139415
0.00139451
0.00139424
0.00139414
0.0013949
0.00139591
0.00139621
0.00139679
0.00139742
0.00139812
0.00139899
0.00140002
0.00140101
0.00140202
0.0014027
0.00140323
0.00140371
0.00140418
0.0014041
0.00140398
0.00140373
0.00140374
0.00140374
0.00140377
0.00140381
0.0014037
0.00140337
0.00140254
0.00140232
0.00140241
0.00140229
0.00140208
0.00140143
0.00140161
0.00140197
0.00140148
0.00140165
0.00140239
0.00140202
0.00140213
0.00140227
0.00140212
0.00140197
0.00140162
0.00140101
0.00140086
0.00140104
0.00140094
0.00140083
0.00140074
0.00140066
0.00140044
0.00139991
0.00139985
0.00140029
0.00139989
0.00140006
0.00140036
0.0014003
0.00140022
0.00140019
0.00140018
0.00140002
0.00139995
0.00139951
0.00139908
0.00139922
0.00139935
0.00139879
0.00118319
0.00122093
0.00125944
0.00129917
0.00133577
0.00136524
0.00138466
0.00139528
0.0013984
0.00139815
0.00139813
0.00139824
0.0013978
0.00139735
0.00139652
0.00139633
0.00139639
0.00139626
0.00139585
0.00139528
0.00139475
0.00139455
0.0013951
0.00139468
0.00139487
0.00139527
0.00139548
0.00139583
0.00139589
0.00139652
0.00139726
0.00139809
0.00139898
0.00139988
0.00140086
0.00140178
0.00140276
0.00140357
0.00140429
0.00140479
0.00140489
0.00140484
0.0014048
0.00140473
0.0014047
0.00140469
0.00140447
0.00140385
0.00140289
0.00140202
0.00140189
0.00140177
0.00140144
0.00140109
0.00140141
0.00140233
0.00140212
0.00140187
0.00140164
0.00140211
0.00140248
0.00140226
0.00140203
0.00140151
0.00140126
0.00140127
0.00140108
0.00140123
0.00140136
0.00140122
0.00140111
0.0014007
0.00140061
0.00140031
0.00140042
0.0014008
0.0014007
0.00140065
0.00140042
0.00140009
0.00139996
0.00139977
0.0014
0.0014006
0.0014005
0.00140048
0.0014005
0.00140049
0.00140026
0.00139926
0.00118309
0.00122119
0.00125931
0.00129889
0.00133608
0.00136552
0.00138488
0.00139442
0.00139669
0.00139635
0.00139612
0.0013962
0.00139583
0.00139584
0.0013958
0.00139533
0.00139481
0.00139435
0.0013945
0.00139409
0.00139356
0.00139346
0.00139468
0.00139468
0.0013943
0.00139459
0.0013952
0.00139532
0.00139559
0.00139606
0.00139688
0.00139782
0.00139881
0.00139979
0.00140073
0.00140164
0.00140241
0.0014032
0.00140382
0.00140412
0.00140405
0.00140404
0.00140417
0.00140391
0.00140376
0.0014036
0.001403
0.00140234
0.00140229
0.00140224
0.00140185
0.00140166
0.00140183
0.00140177
0.0014013
0.00140134
0.00140159
0.00140144
0.00140116
0.0014008
0.00140025
0.00140019
0.00140052
0.00140041
0.00140027
0.00139965
0.0013996
0.00139952
0.00139965
0.00140037
0.00140031
0.00140014
0.0014
0.00139985
0.00139967
0.00139923