/*--------------------------------*- C++ -*----------------------------------*\
  =========                 |
  \\      /  F ield         | OpenFOAM: The Open Source CFD Toolbox
   \\    /   O peration     | Website:  https://openfoam.org
    \\  /    A nd           | Version:  11
     \\/     M anipulation  |
\*---------------------------------------------------------------------------*/
FoamFile
{
    format      ascii;
    class       volScalarField;
    location    "0.1";
    object      omega;
}
// * * * * * * * * * * * * * * * * * * * * * * * * * * * * * * * * * * * * * //

dimensions      [0 0 -1 0 0 0 0];

internalField   nonuniform List<scalar> 
287084
(
55.0264
55.8994
56.7698
57.6562
58.4533
59.0557
59.4218
59.5739
59.6008
59.6001
59.5977
59.5931
59.5894
59.5923
59.5929
59.599
59.6079
59.6008
59.606
59.6097
59.6087
59.6085
59.5987
59.6063
59.6262
59.6254
59.6237
59.6235
59.6187
59.6124
59.6155
59.6161
59.6075
59.6106
59.613
59.6102
59.6095
59.6069
59.6047
59.6025
59.6023
59.6014
59.5968
59.5933
59.5878
59.5834
59.5806
59.5764
59.5737
59.5688
59.5583
59.5427
59.5451
59.5524
59.5519
59.5495
59.5512
59.5522
59.5493
59.5428
59.5401
59.545
59.5485
59.5466
59.5402
59.5515
59.564
59.5636
59.5631
59.5539
59.5574
59.5635
59.5615
59.558
59.5508
59.5508
59.5488
59.5555
59.5713
59.5713
59.5694
59.5685
59.559
59.5578
59.5677
59.5645
59.5706
59.5744
59.5709
59.5573
55.0262
55.8993
56.761
57.6391
58.435
59.0469
59.432
59.5931
59.6235
59.6281
59.6384
59.632
59.6354
59.6469
59.6451
59.6469
59.6473
59.6463
59.648
59.6465
59.6426
59.6324
59.6291
59.6442
59.6475
59.655
59.6634
59.6563
59.6598
59.6613
59.6596
59.6589
59.6564
59.6507
59.634
59.6297
59.6319
59.6326
59.6303
59.6181
59.6158
59.6184
59.6191
59.6193
59.6198
59.6171
59.6098
59.5988
59.6006
59.6088
59.6077
59.6084
59.6054
59.605
59.6052
59.6055
59.6036
59.6019
59.601
59.5991
59.5946
59.5812
59.5783
59.5936
59.5982
59.5953
59.585
59.584
59.5948
59.5993
59.5974
59.5883
59.5917
59.6078
59.6103
59.6089
59.6055
59.6035
59.602
59.5939
59.5911
59.5949
59.5991
59.5973
59.593
59.5925
59.5866
59.5913
59.5934
59.5817
55.0261
55.9
56.7574
57.6395
58.4352
59.0371
59.4237
59.6032
59.6473
59.6477
59.6448
59.6351
59.636
59.6439
59.6433
59.6412
59.63
59.6294
59.65
59.6568
59.6567
59.6566
59.6443
59.6451
59.6581
59.6593
59.6575
59.6585
59.6591
59.6574
59.6565
59.6522
59.653
59.6518
59.6494
59.6462
59.6457
59.6447
59.6451
59.6449
59.6424
59.6323
59.6156
59.6093
59.611
59.6122
59.6101
59.6024
59.5982
59.6022
59.6073
59.6067
59.6047
59.6028
59.6029
59.6033
59.5972
59.5982
59.5986
59.595
59.5874
59.5797
59.5851
59.5913
59.5887
59.5788
59.5788
59.5932
59.5909
59.5981
59.6045
59.6044
59.6036
59.6031
59.6037
59.6032
59.603
59.5935
59.5872
59.5882
59.5895
59.5877
59.5853
59.5839
59.5797
59.5854
59.6038
59.6034
59.6007
59.5867
55.026
55.8972
56.7594
57.6396
58.4303
59.0313
59.418
59.605
59.6497
59.6505
59.6456
59.6494
59.6589
59.6572
59.655
59.6536
59.6529
59.6415
59.6396
59.6457
59.645
59.6473
59.6451
59.6408
59.6394
59.6479
59.6513
59.6503
59.6498
59.6374
59.6384
59.649
59.6415
59.6468
59.6523
59.6512
59.6523
59.6503
59.648
59.6447
59.6438
59.6393
59.6388
59.6388
59.6371
59.627
59.6196
59.6145
59.6123
59.6075
59.5938
59.5905
59.5942
59.5951
59.5918
59.5926
59.5942
59.5938
59.5934
59.5843
59.5902
59.5962
59.5946
59.5944
59.5925
59.5923
59.5936
59.5909
59.5816
59.583
59.5955
59.5919
59.598
59.6021
59.6014
59.6013
59.5928
59.5927
59.5905
59.5973
59.6088
59.6093
59.6093
59.5992
59.5991
59.6033
59.6004
59.6005
59.6001
59.5879
55.0261
55.8956
56.7625
57.6356
58.4254
59.0414
59.4094
59.5949
59.6521
59.654
59.6507
59.6394
59.6398
59.646
59.6408
59.6423
59.6401
59.6367
59.6332
59.6396
59.6458
59.6431
59.6357
59.6335
59.6417
59.641
59.645
59.6459
59.6378
59.6421
59.6507
59.6394
59.643
59.6505
59.6485
59.6463
59.6448
59.6394
59.6332
59.6303
59.6229
59.6283
59.6318
59.6231
59.6261
59.6272
59.6196
59.6231
59.6242
59.6194
59.619
59.6195
59.6198
59.6158
59.6147
59.6125
59.6078
59.5981
59.5791
59.5785
59.5853
59.5818
59.5849
59.5886
59.5872
59.586
59.5786
59.571
59.5796
59.5881
59.5858
59.5798
59.5762
59.5883
59.5906
59.5975
59.6087
59.5977
59.6008
59.6082
59.5983
59.6034
59.6087
59.6085
59.6083
59.5936
59.5942
59.5989
59.5972
59.5884
55.0259
55.8974
56.7591
57.6331
58.4335
59.0399
59.4082
59.568
59.6395
59.645
59.6347
59.6391
59.6439
59.6441
59.6441
59.6399
59.6323
59.6318
59.6468
59.6519
59.6519
59.6501
59.6489
59.6377
59.639
59.6439
59.6402
59.6362
59.643
59.6543
59.6445
59.6495
59.6543
59.6539
59.6538
59.6512
59.6497
59.6398
59.6339
59.6289
59.6142
59.6144
59.6194
59.6164
59.6169
59.6174
59.6177
59.6137
59.6069
59.5963
59.5968
59.6013
59.6001
59.5986
59.5922
59.5962
59.6009
59.5968
59.5982
59.5991
59.5973
59.5879
59.5899
59.593
59.5918
59.5916
59.5823
59.5824
59.5824
59.5907
59.6065
59.6041
59.6059
59.6063
59.6039
59.599
59.5908
59.5885
59.5865
59.5947
59.6058
59.6072
59.6051
59.5982
59.5972
59.5895
59.5943
59.603
59.6007
59.592
55.0258
55.8958
56.7606
57.6298
58.4385
59.0337
59.4036
59.5863
59.6389
59.6417
59.6404
59.6398
59.628
59.6285
59.6382
59.633
59.6373
59.6667
59.6733
59.6657
59.6715
59.6793
59.6783
59.6785
59.677
59.6763
59.6643
59.6669
59.6696
59.6665
59.6673
59.6656
59.6638
59.661
59.6562
59.6541
59.6513
59.6492
59.6448
59.6335
59.6311
59.6273
59.625
59.6247
59.6239
59.623
59.6196
59.6174
59.6139
59.6123
59.6103
59.6072
59.6007
59.5942
59.5925
59.589
59.5873
59.5869
59.5804
59.5789
59.5841
59.5847
59.59
59.5925
59.5901
59.5859
59.5802
59.586
59.5932
59.5907
59.5814
59.5806
59.5872
59.587
59.5876
59.5845
59.5854
59.5844
59.5914
59.5947
59.5932
59.5887
59.5895
59.6014
59.6019
59.6013
59.5905
59.5911
59.597
59.5859
55.0278
55.8931
56.7593
57.6424
58.4254
59.0231
59.4058
59.6101
59.6761
59.6793
59.6764
59.6729
59.6732
59.6773
59.6757
59.6682
59.674
59.6818
59.6802
59.6801
59.677
59.6763
59.6661
59.669
59.6792
59.6713
59.6772
59.6828
59.6812
59.681
59.677
59.6775
59.673
59.6719
59.6733
59.6728
59.6728
59.6695
59.6572
59.6489
59.6402
59.6366
59.6321
59.6304
59.6301
59.6275
59.6283
59.6268
59.6257
59.6228
59.621
59.6161
59.602
59.5984
59.6034
59.6083
59.6064
59.6005
59.5998
59.593
59.598
59.608
59.6005
59.6053
59.6115
59.6099
59.6097
59.6078
59.6073
59.6024
59.5888
59.5907
59.6062
59.6066
59.6046
59.6006
59.5944
59.6
59.6104
59.6056
59.6065
59.6067
59.6063
59.5974
59.5965
59.602
59.5991
59.6003
59.5993
59.5881
55.0262
55.8968
56.7566
57.6376
58.4308
59.0309
59.4081
59.5907
59.6377
59.6386
59.6361
59.6276
59.6261
59.6395
59.6407
59.6489
59.6604
59.6549
59.6516
59.6591
59.6659
59.6721
59.6809
59.6759
59.6741
59.6721
59.6669
59.6726
59.6834
59.6731
59.678
59.6835
59.6833
59.6832
59.6798
59.679
59.6744
59.6733
59.67
59.6649
59.6523
59.6436
59.637
59.6223
59.6132
59.6101
59.6014
59.6027
59.6106
59.6073
59.6105
59.6114
59.6066
59.6106
59.6123
59.6106
59.6094
59.5988
59.5933
59.5927
59.5904
59.5867
59.5837
59.5846
59.5828
59.5896
59.5939
59.5918
59.5915
59.5825
59.589
59.6053
59.6023
59.6031
59.604
59.6045
59.6028
59.5971
59.5954
59.5929
59.5987
59.6153
59.6131
59.6143
59.6171
59.6169
59.6174
59.6165
59.6115
59.5933
55.0306
55.8923
56.7551
57.6391
58.431
59.0316
59.4103
59.5818
59.616
59.6105
59.6131
59.6376
59.6446
59.643
59.6413
59.6337
59.6373
59.6557
59.6571
59.657
59.6551
59.6554
59.6544
59.6433
59.647
59.658
59.6576
59.6575
59.6512
59.652
59.6485
59.6548
59.6588
59.656
59.6568
59.6546
59.6523
59.6498
59.6485
59.6434
59.6303
59.6266
59.6227
59.6234
59.6235
59.6216
59.6212
59.6159
59.6151
59.6116
59.6044
59.5955
59.5871
59.5845
59.5805
59.5676
59.5695
59.5733
59.5704
59.5649
59.5679
59.5858
59.5814
59.5876
59.5923
59.5922
59.5922
59.5841
59.5799
59.5857
59.5934
59.5929
59.5934
59.5923
59.5899
59.5879
59.5854
59.5773
59.5827
59.6021
59.6026
59.6006
59.5932
59.5897
59.5934
59.5925
59.6005
59.6076
59.6048
59.5943
55.0276
55.8951
56.7585
57.6363
58.4278
59.0321
59.4149
59.5845
59.6193
59.6248
59.634
59.6333
59.6327
59.6251
59.6288
59.6345
59.6259
59.6293
59.6453
59.6455
59.658
59.682
59.6822
59.6806
59.6807
59.6777
59.6707
59.6616
59.666
59.6703
59.6691
59.6687
59.6638
59.6614
59.6478
59.6495
59.6535
59.6404
59.6425
59.647
59.647
59.6468
59.6432
59.6429
59.6404
59.6369
59.6244
59.603
59.5961
59.592
59.5793
59.58
59.5872
59.5823
59.5867
59.5882
59.5838
59.5835
59.5832
59.5743
59.5742
59.5874
59.5913
59.5886
59.5789
59.5819
59.5923
59.5921
59.5913
59.5793
59.5821
59.5881
59.5805
59.5774
59.5876
59.6005
59.5995
59.5975
59.5903
59.5867
59.5872
59.5876
59.5866
59.5961
59.608
59.6017
59.6063
59.6085
59.6051
59.5932
55.0256
55.8965
56.7588
57.635
58.4319
59.0297
59.4057
59.5951
59.6509
59.6544
59.6534
59.6528
59.6424
59.6455
59.6607
59.6543
59.6605
59.6681
59.6644
59.6641
59.6597
59.6701
59.6823
59.6821
59.6821
59.673
59.6792
59.6878
59.6807
59.6844
59.6886
59.6859
59.6875
59.6874
59.6847
59.6816
59.6785
59.6751
59.6722
59.6696
59.6661
59.6586
59.6534
59.6428
59.6289
59.616
59.6101
59.607
59.6048
59.6024
59.597
59.5818
59.5771
59.5847
59.5953
59.5932
59.5835
59.5862
59.5945
59.5882
59.5917
59.5935
59.5908
59.5856
59.5781
59.5869
59.5967
59.5971
59.5972
59.5866
59.5907
59.6034
59.6025
59.6005
59.5902
59.5942
59.6007
59.6009
59.6009
59.5887
59.5913
59.6
59.5993
59.5979
59.5928
59.5978
59.6021
59.6007
59.5998
59.5895
55.0289
55.891
56.7612
57.6416
58.4239
59.0213
59.4145
59.6042
59.6441
59.6422
59.6512
59.6651
59.6642
59.6631
59.6618
59.6558
59.6564
59.679
59.6886
59.6866
59.6782
59.6774
59.6846
59.6774
59.6775
59.6868
59.683
59.6885
59.6978
59.6859
59.6892
59.6931
59.6923
59.6921
59.6894
59.688
59.6809
59.6757
59.6708
59.6665
59.658
59.6512
59.6463
59.6428
59.639
59.6312
59.625
59.6116
59.5979
59.5988
59.6027
59.5986
59.6004
59.602
59.6006
59.5999
59.5997
59.5971
59.5952
59.593
59.5904
59.5897
59.5809
59.5851
59.5967
59.5956
59.596
59.5971
59.5979
59.5954
59.5872
59.5883
59.6013
59.6022
59.6001
59.5925
59.5882
59.5989
59.6065
59.6064
59.6063
59.5958
59.5955
59.601
59.5986
59.6029
59.605
59.6044
59.6036
59.5895
55.0269
55.897
56.757
57.6308
58.4385
59.0322
59.4065
59.5794
59.6173
59.6201
59.6179
59.6098
59.6109
59.626
59.63
59.6285
59.6241
59.6278
59.6505
59.6597
59.6579
59.6578
59.6512
59.651
59.6713
59.6894
59.683
59.6787
59.6769
59.6725
59.6781
59.684
59.678
59.6771
59.6769
59.677
59.6739
59.6675
59.6582
59.6519
59.6413
59.6297
59.625
59.6163
59.6129
59.6107
59.6079
59.6008
59.5984
59.607
59.6095
59.6061
59.6058
59.6064
59.6064
59.6011
59.5988
59.5945
59.5799
59.581
59.5914
59.5919
59.5913
59.5801
59.5799
59.5846
59.5818
59.5816
59.5816
59.5806
59.5782
59.5889
59.6011
59.5974
59.6006
59.6043
59.6035
59.6011
59.5996
59.598
59.5868
59.5865
59.6052
59.6073
59.6094
59.6099
59.6058
59.6054
59.6047
59.5949
55.0277
55.8937
56.7582
57.6431
58.4259
59.0179
59.4126
59.608
59.6588
59.6711
59.6701
59.6654
59.6652
59.6655
59.6614
59.6663
59.673
59.6657
59.6719
59.6765
59.6729
59.6715
59.6816
59.6931
59.6853
59.6921
59.7046
59.6924
59.6958
59.7004
59.6865
59.6892
59.6908
59.6853
59.6818
59.6763
59.674
59.6751
59.6749
59.6708
59.6676
59.6608
59.6459
59.6303
59.6164
59.6086
59.6052
59.601
59.5946
59.59
59.5853
59.5839
59.5816
59.5782
59.5776
59.571
59.5744
59.5906
59.5942
59.5924
59.5899
59.5825
59.5835
59.5931
59.5932
59.5893
59.5896
59.6039
59.6066
59.6036
59.5968
59.5925
59.5981
59.6018
59.5986
59.5892
59.5863
59.6009
59.6073
59.6031
59.6029
59.6021
59.593
59.5911
59.6028
59.6064
59.6033
59.6032
59.6012
59.5863
55.0251
55.8976
56.7632
57.6292
58.4343
59.0288
59.4044
59.5933
59.6476
59.6492
59.6472
59.6415
59.6431
59.6442
59.642
59.6402
59.6473
59.6613
59.6605
59.6568
59.6601
59.6655
59.6568
59.6634
59.6789
59.6704
59.6685
59.6811
59.6882
59.6873
59.687
59.6833
59.6763
59.6724
59.6684
59.66
59.6562
59.6537
59.6501
59.6467
59.6439
59.6405
59.638
59.6345
59.6309
59.6288
59.6263
59.6218
59.6203
59.6139
59.5982
59.5812
59.5818
59.5843
59.5817
59.5738
59.5737
59.5776
59.5746
59.5933
59.6195
59.6213
59.6197
59.6193
59.6162
59.6049
59.6001
59.6029
59.6006
59.6079
59.6141
59.6067
59.6106
59.6155
59.6149
59.6144
59.6061
59.5955
59.5959
59.6003
59.5982
59.5896
59.5929
59.6054
59.6047
59.6051
59.6039
59.6042
59.601
59.5908
55.0269
55.895
56.7579
57.6432
58.429
59.0156
59.4026
59.615
59.6813
59.6848
59.6833
59.6813
59.6794
59.6774
59.6761
59.6855
59.694
59.6925
59.6925
59.6855
59.6845
59.6931
59.7
59.6979
59.6898
59.6915
59.7032
59.7043
59.7012
59.691
59.6941
59.6958
59.6892
59.6887
59.6865
59.6863
59.6837
59.6813
59.6785
59.6756
59.6708
59.6648
59.6523
59.6382
59.6257
59.618
59.6128
59.6101
59.6072
59.6012
59.5874
59.5701
59.5674
59.572
59.5719
59.5642
59.5667
59.5852
59.5848
59.5921
59.5968
59.5944
59.5862
59.5871
59.5942
59.5923
59.5896
59.595
59.6017
59.599
59.5996
59.5994
59.5966
59.5917
59.6017
59.6084
59.6051
59.6051
59.6033
59.6019
59.5933
59.5972
59.6075
59.6039
59.6037
59.6009
59.6048
59.6065
59.6027
59.5892
55.0265
55.8964
56.7551
57.645
58.4283
59.0142
59.4096
59.6143
59.6716
59.6865
59.6937
59.6944
59.692
59.6894
59.6856
59.6809
59.6795
59.6741
59.6804
59.6931
59.6838
59.686
59.6996
59.7004
59.6993
59.7093
59.7187
59.7122
59.7154
59.7187
59.7173
59.7169
59.7128
59.7114
59.7082
59.7043
59.6998
59.6951
59.6872
59.6744
59.6631
59.6549
59.6445
59.635
59.6276
59.6233
59.6167
59.6027
59.5795
59.5742
59.5804
59.5797
59.5798
59.5798
59.5764
59.5739
59.5808
59.5872
59.5862
59.5865
59.5842
59.5803
59.5932
59.6067
59.6001
59.6047
59.6112
59.6097
59.6098
59.6069
59.5945
59.5928
59.6042
59.6048
59.6049
59.6024
59.6096
59.6145
59.6049
59.6082
59.6101
59.6075
59.6029
59.5961
59.6021
59.6076
59.6034
59.603
59.6017
59.5876
55.0277
55.8931
56.7598
57.6431
58.4251
59.021
59.4046
59.6111
59.6688
59.6707
59.672
59.6696
59.6686
59.6666
59.6757
59.6825
59.6804
59.6804
59.6724
59.6764
59.6999
59.7061
59.7048
59.7029
59.7029
59.7022
59.6996
59.691
59.6955
59.698
59.6912
59.6889
59.689
59.6886
59.6862
59.6833
59.6717
59.655
59.6446
59.6353
59.6305
59.6273
59.6213
59.6168
59.6198
59.6209
59.6197
59.6194
59.6133
59.5984
59.5779
59.5733
59.5771
59.5811
59.5791
59.5668
59.5668
59.5815
59.5868
59.5851
59.5831
59.5812
59.5794
59.5922
59.61
59.6116
59.6095
59.6051
59.6046
59.6008
59.5914
59.5922
59.5942
59.5863
59.5916
59.609
59.6085
59.6052
59.5936
59.5934
59.6027
59.598
59.6039
59.6076
59.6033
59.6057
59.6096
59.6082
59.6036
59.5869
55.0235
55.8976
56.7611
57.6391
58.4254
59.0255
59.4115
59.6023
59.6478
59.6472
59.6505
59.6509
59.6446
59.6484
59.6559
59.6549
59.6539
59.6488
59.6605
59.6733
59.6725
59.6718
59.6696
59.6866
59.7128
59.7054
59.7114
59.7178
59.7104
59.7103
59.7105
59.7116
59.7102
59.7073
59.7047
59.7014
59.6949
59.689
59.6804
59.6738
59.6638
59.6543
59.6472
59.6366
59.6303
59.6183
59.607
59.5962
59.591
59.5877
59.5815
59.5617
59.5597
59.5868
59.5965
59.5919
59.597
59.621
59.6257
59.6248
59.6256
59.6236
59.6221
59.619
59.6083
59.6077
59.6123
59.6092
59.6092
59.6091
59.601
59.6034
59.6126
59.6116
59.6115
59.6088
59.6094
59.6092
59.6103
59.6094
59.5997
59.6011
59.6041
59.5921
59.5956
59.5988
59.5972
59.597
59.5935
59.5821
55.0267
55.8962
56.7589
57.6354
58.4279
59.0366
59.4143
59.5741
59.6096
59.614
59.6306
59.6396
59.638
59.6355
59.6283
59.6292
59.6414
59.6417
59.6424
59.6426
59.6489
59.6846
59.7035
59.7122
59.7198
59.7118
59.7111
59.7168
59.7179
59.7161
59.7169
59.7151
59.7132
59.7101
59.7069
59.7002
59.6857
59.6713
59.6608
59.653
59.6466
59.6416
59.637
59.6339
59.629
59.6182
59.6074
59.6008
59.5875
59.5762
59.573
59.5648
59.5688
59.5758
59.5749
59.5749
59.573
59.5674
59.5677
59.5687
59.5577
59.5591
59.5725
59.5748
59.5718
59.5609
59.5627
59.5726
59.5703
59.571
59.5685
59.575
59.6029
59.6078
59.607
59.6055
59.6057
59.6069
59.6049
59.6022
59.5944
59.5979
59.6037
59.6034
59.6048
59.6033
59.6027
59.6004
59.5959
59.5811
55.0293
55.8903
56.762
57.6413
58.4238
59.0229
59.4118
59.6087
59.6656
59.6676
59.6659
59.6653
59.6589
59.6664
59.678
59.6697
59.676
59.6841
59.681
59.681
59.6762
59.6834
59.7094
59.7227
59.7221
59.7215
59.7187
59.7065
59.7104
59.7131
59.7113
59.7109
59.7076
59.7059
59.6991
59.6953
59.6862
59.6774
59.6688
59.6626
59.6554
59.6495
59.6432
59.6372
59.6331
59.6296
59.6243
59.6137
59.5943
59.5835
59.5803
59.5766
59.5688
59.5601
59.5734
59.5941
59.5938
59.5923
59.5958
59.6032
59.6101
59.6134
59.6067
59.6036
59.6123
59.6187
59.611
59.6167
59.6208
59.6194
59.6193
59.6163
59.6163
59.613
59.602
59.601
59.6128
59.6127
59.6109
59.6159
59.6228
59.6291
59.6289
59.6221
59.6251
59.6287
59.6272
59.6273
59.6221
59.5986
55.0273
55.8948
56.7564
57.6456
58.4239
59.0195
59.4147
59.6017
59.6779
59.6855
59.6731
59.6697
59.6741
59.6774
59.6756
59.6683
59.6744
59.6898
59.6817
59.6812
59.6997
59.712
59.7039
59.7064
59.7189
59.7139
59.72
59.7282
59.7268
59.7262
59.7206
59.7194
59.7169
59.7158
59.713
59.7079
59.6974
59.686
59.6768
59.6582
59.6379
59.628
59.6177
59.6107
59.6068
59.6044
59.5998
59.5899
59.5758
59.5773
59.5813
59.5806
59.5804
59.5705
59.5735
59.6035
59.6094
59.6031
59.6057
59.624
59.627
59.6245
59.6248
59.6222
59.6113
59.6135
59.617
59.6113
59.6115
59.6115
59.6085
59.6048
59.6096
59.6115
59.6086
59.6173
59.627
59.6249
59.625
59.6236
59.6215
59.6092
59.6049
59.6176
59.6221
59.6175
59.6174
59.6175
59.6157
59.5981
55.0265
55.8994
56.7524
57.6393
58.4312
59.0312
59.4091
59.5883
59.6275
59.6208
59.6228
59.63
59.6275
59.6277
59.6245
59.6308
59.6594
59.6631
59.6679
59.7009
59.7159
59.7151
59.7108
59.7142
59.7176
59.7155
59.7125
59.7057
59.7042
59.7038
59.7045
59.7028
59.7009
59.6988
59.6968
59.6923
59.6908
59.6858
59.6768
59.6593
59.6491
59.6324
59.6164
59.6074
59.6037
59.5977
59.5825
59.5767
59.5734
59.5634
59.5674
59.5711
59.5597
59.5638
59.5695
59.5627
59.5624
59.5624
59.5571
59.5602
59.572
59.573
59.5732
59.5664
59.5712
59.5989
59.6042
59.6007
59.6011
59.6011
59.5986
59.5922
59.5959
59.6035
59.606
59.605
59.6069
59.6046
59.5914
59.5901
59.5966
59.5966
59.6002
59.6009
59.599
59.594
59.5999
59.606
59.6031
59.5924
55.0257
55.8943
56.7632
57.6357
58.4283
59.0261
59.4106
59.6036
59.6539
59.6543
59.6561
59.656
59.6502
59.6546
59.6681
59.6659
59.666
59.6593
59.6602
59.6751
59.6812
59.6807
59.6782
59.6856
59.7033
59.6991
59.6953
59.7051
59.7177
59.718
59.7178
59.7149
59.7139
59.7092
59.7038
59.6948
59.6862
59.6777
59.6694
59.6638
59.6556
59.6462
59.6377
59.6326
59.6255
59.6162
59.6045
59.5956
59.5921
59.5877
59.579
59.559
59.5595
59.571
59.5652
59.5709
59.575
59.5742
59.5739
59.5662
59.5609
59.5717
59.5785
59.575
59.5699
59.5735
59.5921
59.5933
59.594
59.5938
59.5921
59.5883
59.5795
59.5735
59.5813
59.5847
59.5839
59.5821
59.5864
59.5957
59.5936
59.5849
59.5863
59.5907
59.5821
59.589
59.6055
59.6054
59.6042
59.5895
55.0286
55.8917
56.7605
57.6424
58.4238
59.0217
59.4159
59.6048
59.6539
59.6581
59.6678
59.6692
59.6599
59.6652
59.6813
59.6738
59.6778
59.6927
59.6863
59.6906
59.7069
59.7071
59.7021
59.7048
59.7173
59.7262
59.7278
59.7155
59.7185
59.7234
59.7226
59.7223
59.719
59.7179
59.7136
59.7074
59.692
59.6788
59.6669
59.6562
59.6478
59.6404
59.6348
59.6307
59.6275
59.6251
59.6218
59.6154
59.6018
59.5815
59.5741
59.5697
59.5671
59.5592
59.5594
59.5737
59.5751
59.5726
59.5681
59.5632
59.5654
59.5683
59.5721
59.5724
59.5635
59.5664
59.5804
59.5796
59.5799
59.5773
59.5826
59.5849
59.5831
59.5781
59.5804
59.595
59.595
59.5955
59.5904
59.5962
59.6012
59.6012
59.6011
59.5883
59.587
59.5924
59.5916
59.592
59.5912
59.5828
55.0266
55.8965
56.7549
57.6455
58.4274
59.0167
59.4065
59.617
59.6808
59.6848
59.684
59.6855
59.6832
59.6745
59.6791
59.6866
59.6787
59.6841
59.6978
59.6896
59.6931
59.7104
59.7114
59.7072
59.7113
59.718
59.7244
59.7259
59.7136
59.7162
59.7182
59.7133
59.7135
59.7108
59.7086
59.7054
59.7001
59.6884
59.6762
59.6662
59.6578
59.6519
59.6453
59.6409
59.6364
59.6264
59.6218
59.6127
59.6053
59.6021
59.5996
59.5942
59.5801
59.5715
59.5835
59.6197
59.6229
59.6136
59.6192
59.6249
59.6233
59.6216
59.6139
59.612
59.6073
59.6128
59.6203
59.6137
59.618
59.6234
59.6231
59.6226
59.6117
59.6098
59.6074
59.6018
59.6017
59.6017
59.5961
59.5959
59.6103
59.6139
59.6122
59.6114
59.602
59.6046
59.6109
59.6097
59.6093
59.5957
55.0273
55.8948
56.7564
57.6457
58.4238
59.0194
59.4147
59.6019
59.6781
59.6858
59.6804
59.6728
59.6752
59.6835
59.6819
59.6756
59.6753
59.685
59.6854
59.6861
59.6832
59.6872
59.7021
59.7006
59.7006
59.7167
59.7319
59.7313
59.7324
59.7279
59.7253
59.7256
59.7252
59.7202
59.717
59.7072
59.6954
59.6852
59.6762
59.6573
59.6408
59.6244
59.616
59.6093
59.6055
59.6032
59.5992
59.591
59.5771
59.5773
59.5827
59.5812
59.5775
59.5696
59.5797
59.5905
59.5848
59.5936
59.6126
59.6087
59.6143
59.6203
59.62
59.6199
59.6139
59.6045
59.6059
59.613
59.6112
59.6108
59.611
59.6112
59.6083
59.5984
59.6003
59.612
59.6034
59.608
59.6148
59.614
59.6133
59.6136
59.6139
59.6108
59.6097
59.5993
59.592
59.5969
59.5995
59.5895
55.0294
55.89
56.7621
57.6416
58.4222
59.0265
59.4085
59.6082
59.6614
59.6566
59.6612
59.6706
59.669
59.6689
59.6627
59.6698
59.6793
59.687
59.6907
59.6884
59.6868
59.6931
59.7118
59.7064
59.7123
59.7192
59.7187
59.7181
59.7067
59.7047
59.7028
59.7007
59.6979
59.6942
59.6931
59.6896
59.688
59.6848
59.6816
59.6758
59.6634
59.6511
59.6412
59.633
59.6278
59.6243
59.6177
59.6031
59.5832
59.57
59.5707
59.5713
59.5672
59.5639
59.5778
59.6001
59.5996
59.5962
59.5958
59.6124
59.622
59.62
59.6157
59.6099
59.61
59.6136
59.6117
59.6165
59.6206
59.6194
59.6188
59.6109
59.6097
59.6069
59.612
59.6211
59.6194
59.6173
59.6129
59.6068
59.605
59.6042
59.6118
59.6247
59.6243
59.6246
59.6239
59.6218
59.6169
59.5979
55.0272
55.8959
56.7582
57.6361
58.4298
59.032
59.4114
59.5862
59.6228
59.617
59.6179
59.6279
59.6279
59.6371
59.6448
59.6445
59.644
59.6467
59.6592
59.6599
59.6597
59.6667
59.6992
59.7011
59.6962
59.7013
59.7097
59.7031
59.6959
59.6947
59.6981
59.6974
59.6949
59.6926
59.6901
59.6871
59.6823
59.6792
59.6739
59.6636
59.6484
59.6373
59.631
59.6183
59.6104
59.6037
59.5885
59.5771
59.5778
59.5784
59.5713
59.5711
59.5792
59.5807
59.5755
59.5803
59.5867
59.5867
59.5868
59.5817
59.574
59.5779
59.5882
59.5877
59.5871
59.5776
59.5787
59.5789
59.5857
59.601
59.601
59.6013
59.599
59.5949
59.5928
59.5869
59.5898
59.6016
59.6017
59.5984
59.6003
59.612
59.6109
59.611
59.6109
59.6043
59.6071
59.6124
59.6094
59.5986
55.0255
55.8978
56.7625
57.6292
58.4349
59.0296
59.4037
59.5943
59.642
59.6373
59.6439
59.6511
59.6503
59.6502
59.6389
59.6416
59.6583
59.672
59.671
59.6662
59.6665
59.6641
59.6707
59.7068
59.7145
59.7097
59.7098
59.707
59.6997
59.6995
59.6979
59.6953
59.6924
59.6894
59.6863
59.6824
59.6788
59.6717
59.6649
59.6585
59.6505
59.6435
59.6374
59.6319
59.6287
59.6243
59.6143
59.6095
59.5993
59.5955
59.5861
59.5843
59.5845
59.5818
59.5811
59.5799
59.5794
59.5679
59.5688
59.5919
59.5965
59.5951
59.5933
59.589
59.5931
59.5987
59.5962
59.5965
59.5973
59.5972
59.5921
59.587
59.5981
59.6059
59.6056
59.6054
59.5953
59.6
59.6066
59.6002
59.6006
59.5997
59.5929
59.5905
59.5962
59.6015
59.6004
59.6017
59.599
59.5832
55.0251
55.8976
56.7632
57.6292
58.4346
59.0283
59.4066
59.5936
59.6364
59.6314
59.6364
59.6446
59.6436
59.6435
59.6332
59.635
59.6628
59.6746
59.6731
59.6665
59.6667
59.6837
59.687
59.6818
59.6845
59.6946
59.6904
59.6979
59.7031
59.7022
59.7019
59.6979
59.6969
59.6929
59.6856
59.6752
59.6662
59.6579
59.6516
59.6452
59.6402
59.6368
59.6336
59.631
59.6273
59.621
59.6122
59.608
59.6037
59.5952
59.5812
59.5767
59.5711
59.5619
59.5722
59.5979
59.5937
59.6005
59.6062
59.6046
59.6031
59.5953
59.593
59.5903
59.5979
59.6051
59.6053
59.6054
59.5934
59.5975
59.6062
59.5969
59.6013
59.6042
59.5988
59.5988
59.5984
59.5918
59.5955
59.6027
59.602
59.6018
59.5903
59.5947
59.6006
59.6002
59.6001
59.5949
59.5931
59.5808
55.0271
55.8952
56.7564
57.6447
58.4261
59.0178
59.4085
59.6141
59.6692
59.67
59.6717
59.6717
59.6672
59.6651
59.6769
59.686
59.684
59.6847
59.6848
59.6798
59.6864
59.6973
59.687
59.686
59.6954
59.6929
59.6985
59.7092
59.6967
59.7002
59.7027
59.701
59.7004
59.6958
59.6939
59.6868
59.6831
59.6741
59.666
59.6591
59.6527
59.648
59.6429
59.6382
59.6308
59.6137
59.6021
59.5961
59.5834
59.5767
59.5821
59.5806
59.5882
59.5958
59.5933
59.5934
59.593
59.5863
59.5875
59.5915
59.5906
59.5896
59.5924
59.5966
59.5948
59.5947
59.5852
59.5893
59.5943
59.594
59.5922
59.591
59.6098
59.6159
59.6123
59.6129
59.6113
59.6085
59.6066
59.604
59.605
59.6046
59.6015
59.5924
59.5975
59.6071
59.6021
59.6031
59.6019
59.5897
55.0262
55.8966
56.7553
57.647
58.4252
59.0163
59.407
59.6094
59.6807
59.6854
59.6824
59.6826
59.6821
59.6788
59.6738
59.6793
59.6823
59.6742
59.6766
59.6949
59.6968
59.7052
59.7153
59.7092
59.7054
59.7032
59.6997
59.7067
59.7103
59.7092
59.7088
59.7065
59.7065
59.7036
59.7018
59.6986
59.6939
59.6863
59.6808
59.6707
59.6612
59.6551
59.6506
59.6415
59.6332
59.6285
59.6226
59.6195
59.615
59.6098
59.5991
59.5826
59.5852
59.5937
59.5926
59.5915
59.5843
59.5842
59.583
59.5912
59.5973
59.5905
59.5921
59.5933
59.5919
59.5885
59.5892
59.5867
59.5899
59.6137
59.6199
59.6198
59.6196
59.6072
59.6076
59.6153
59.608
59.6134
59.6187
59.6093
59.6137
59.6167
59.6108
59.6127
59.6131
59.6118
59.6124
59.6103
59.6051
59.5874
55.025
55.8949
56.7628
57.6397
58.4219
59.0281
59.4124
59.5976
59.6515
59.6531
59.65
59.6414
59.6383
59.6389
59.639
59.6351
59.6411
59.6589
59.6574
59.6578
59.6556
59.6646
59.6882
59.6881
59.6813
59.685
59.6924
59.692
59.6915
59.681
59.6796
59.6752
59.6726
59.6706
59.6685
59.6666
59.6617
59.6526
59.6457
59.6429
59.6399
59.6368
59.6344
59.6314
59.6262
59.6162
59.609
59.6042
59.5964
59.5779
59.5693
59.58
59.5874
59.584
59.5845
59.5828
59.5812
59.5739
59.5773
59.5931
59.6051
59.6049
59.5947
59.5981
59.5999
59.5968
59.5976
59.5971
59.5896
59.5926
59.5961
59.5951
59.5928
59.5938
59.5967
59.586
59.5874
59.597
59.5976
59.5976
59.5986
59.5989
59.5894
59.5946
59.6039
59.6007
59.6005
59.6013
59.6006
59.5871
55.0276
55.8937
56.7586
57.642
58.4272
59.0194
59.4057
59.6115
59.6777
59.6812
59.6797
59.6791
59.6767
59.6718
59.6749
59.6766
59.675
59.6709
59.6723
59.688
59.6907
59.6887
59.6821
59.6822
59.6959
59.6967
59.7036
59.7126
59.7107
59.7084
59.706
59.7056
59.7024
59.6963
59.6912
59.686
59.6807
59.6768
59.6729
59.6688
59.6645
59.6582
59.6533
59.644
59.6322
59.6256
59.6185
59.6145
59.6086
59.5959
59.5772
59.5785
59.5914
59.592
59.5891
59.5791
59.5818
59.5889
59.5822
59.5832
59.5809
59.579
59.5731
59.5772
59.5871
59.5757
59.5746
59.5862
59.5912
59.5895
59.5844
59.5913
59.6027
59.6113
59.6108
59.5996
59.6025
59.613
59.6128
59.6106
59.6072
59.6045
59.602
59.5943
59.595
59.5955
59.5914
59.5911
59.59
59.581
55.0269
55.8963
56.7566
57.6363
58.4304
59.0349
59.4121
59.5767
59.6058
59.6034
59.6163
59.6417
59.6417
59.6411
59.634
59.6288
59.6422
59.6536
59.6461
59.6492
59.6687
59.6709
59.6667
59.6737
59.6931
59.6942
59.7054
59.7106
59.7058
59.7055
59.7032
59.7042
59.704
59.7034
59.6999
59.6916
59.6844
59.6789
59.6703
59.662
59.6558
59.652
59.6462
59.6417
59.6387
59.633
59.6198
59.6094
59.6043
59.5901
59.5909
59.5986
59.5983
59.5988
59.5953
59.5868
59.5828
59.5815
59.5812
59.5778
59.5757
59.581
59.5823
59.5814
59.5789
59.5878
59.5971
59.5944
59.5937
59.5919
59.5913
59.5815
59.5833
59.5975
59.599
59.5971
59.586
59.5885
59.593
59.5859
59.5897
59.5911
59.5826
59.5859
59.5989
59.5907
59.5944
59.6037
59.6017
59.5924
55.0286
55.8916
56.7606
57.6425
58.4211
59.0289
59.4026
59.6044
59.6792
59.6876
59.687
59.6874
59.6858
59.6844
59.6786
59.6682
59.666
59.6604
59.6643
59.6784
59.6733
59.6774
59.6791
59.6707
59.671
59.6803
59.6773
59.6842
59.6921
59.6871
59.6873
59.6866
59.6864
59.6849
59.6849
59.6841
59.6813
59.6759
59.6644
59.6539
59.6487
59.6432
59.6396
59.636
59.6332
59.6308
59.6268
59.6195
59.6138
59.5992
59.5945
59.599
59.5999
59.595
59.5981
59.6064
59.6055
59.6034
59.6008
59.5988
59.5965
59.5949
59.5811
59.5811
59.5848
59.5851
59.5854
59.5792
59.5845
59.587
59.5802
59.5837
59.6026
59.6048
59.6022
59.5958
59.5918
59.6016
59.6088
59.607
59.6072
59.6044
59.5945
59.5917
59.6027
59.6066
59.6035
59.6034
59.6014
59.5865
55.0256
55.8965
56.7588
57.635
58.4319
59.0296
59.4062
59.5938
59.6516
59.6564
59.6555
59.6549
59.6439
59.6431
59.6599
59.6597
59.6677
59.6791
59.672
59.678
59.6824
59.6812
59.6815
59.6742
59.6814
59.6875
59.6863
59.6824
59.6852
59.6901
59.6811
59.6853
59.6864
59.6812
59.6808
59.6811
59.6811
59.6779
59.6754
59.6688
59.6536
59.6395
59.6329
59.6283
59.6198
59.6047
59.6065
59.6111
59.611
59.6109
59.6055
59.6056
59.6053
59.6023
59.5999
59.5984
59.5942
59.5984
59.6008
59.5985
59.5951
59.5896
59.5867
59.5835
59.5735
59.5772
59.5895
59.5911
59.589
59.5773
59.582
59.5993
59.5999
59.5993
59.5893
59.5933
59.6032
59.6018
59.5997
59.5898
59.5872
59.6033
59.6122
59.6064
59.6104
59.612
59.6093
59.6093
59.6062
59.5914
55.0277
55.8957
56.7567
57.635
58.4294
59.0405
59.4098
59.5703
59.6123
59.6253
59.6455
59.6493
59.6466
59.6414
59.636
59.6442
59.6502
59.6436
59.6487
59.6567
59.6557
59.6557
59.647
59.6461
59.6649
59.6766
59.6768
59.6768
59.6719
59.6701
59.658
59.6604
59.6663
59.6633
59.665
59.6631
59.6614
59.6604
59.6585
59.6542
59.6521
59.6489
59.6473
59.6451
59.6424
59.6376
59.6327
59.6244
59.606
59.5972
59.5917
59.5878
59.5789
59.5761
59.589
59.5926
59.5911
59.5897
59.5854
59.5844
59.5807
59.5849
59.5896
59.5873
59.5799
59.5815
59.5841
59.5806
59.5761
59.5788
59.5905
59.5997
59.6009
59.5901
59.595
59.6005
59.5998
59.5996
59.5893
59.5927
59.5942
59.5996
59.6139
59.614
59.6132
59.6012
59.6045
59.6111
59.608
59.596
55.0261
55.8957
56.7614
57.6317
58.4349
59.0302
59.4037
59.5888
59.6374
59.6389
59.6366
59.6299
59.6289
59.6258
59.6331
59.6448
59.6445
59.6457
59.6411
59.6565
59.6684
59.6681
59.6679
59.6591
59.6625
59.6739
59.6697
59.67
59.67
59.6601
59.6622
59.6645
59.6606
59.6601
59.654
59.6529
59.6527
59.6527
59.6504
59.6482
59.6452
59.6438
59.6394
59.6362
59.6332
59.6273
59.6145
59.5974
59.5931
59.5829
59.5819
59.5916
59.5881
59.5948
59.5992
59.5912
59.5948
59.5994
59.599
59.5985
59.5901
59.5826
59.5893
59.5949
59.5944
59.5943
59.5835
59.5895
59.6056
59.597
59.6016
59.6127
59.6047
59.61
59.6152
59.6154
59.6153
59.6067
59.6023
59.6062
59.6083
59.6054
59.6057
59.6015
59.6034
59.6039
59.5998
59.6004
59.5979
59.5882
55.0273
55.8965
56.7566
57.6384
58.4303
59.0277
59.4072
59.594
59.645
59.6491
59.6476
59.6467
59.6367
59.6417
59.6599
59.6545
59.6607
59.6651
59.6632
59.66
59.6577
59.6767
59.689
59.6859
59.6859
59.6859