/*--------------------------------*- C++ -*----------------------------------*\
  =========                 |
  \\      /  F ield         | OpenFOAM: The Open Source CFD Toolbox
   \\    /   O peration     | Website:  https://openfoam.org
    \\  /    A nd           | Version:  11
     \\/     M anipulation  |
\*---------------------------------------------------------------------------*/
FoamFile
{
    format      ascii;
    class       volScalarField;
    location    "0.1";
    object      p;
}
// * * * * * * * * * * * * * * * * * * * * * * * * * * * * * * * * * * * * * //

dimensions      [0 2 -2 0 0 0 0];

internalField   nonuniform List<scalar> 
287084
(
1.67593
1.38927
1.33323
1.26277
1.19418
1.14097
1.08972
1.04218
0.996501
0.951793
0.907628
0.863544
0.81868
0.773897
0.72972
0.684433
0.638019
0.591697
0.545452
0.499569
0.454168
0.409713
0.366204
0.324496
0.283651
0.244552
0.21195
0.183255
0.156239
0.133469
0.11354
0.0937347
0.0769929
0.0648421
0.0559347
0.0501025
0.0470684
0.046463
0.0479754
0.0512878
0.0560858
0.0620716
0.0689665
0.0765208
0.0844861
0.092687
0.100869
0.108994
0.116763
0.124207
0.131202
0.137487
0.143346
0.148794
0.15358
0.157355
0.16061
0.16316
0.164952
0.166154
0.166647
0.166536
0.165796
0.164459
0.162586
0.160159
0.157226
0.153781
0.149896
0.14559
0.140852
0.135722
0.130248
0.124422
0.118295
0.111848
0.10513
0.0981818
0.09096
0.0835322
0.0758822
0.0680474
0.0600091
0.0518002
0.0433299
0.0345742
0.0254259
0.0153893
0.00517763
0.00132838
1.54043
1.34771
1.30104
1.24281
1.18237
1.13274
1.08392
1.03777
0.992963
0.948842
0.905038
0.861095
0.816564
0.771978
0.727099
0.681367
0.634998
0.588562
0.542136
0.496049
0.450444
0.405822
0.362344
0.320578
0.280787
0.243428
0.209739
0.178543
0.15088
0.126284
0.104616
0.086301
0.0712618
0.0596973
0.0512728
0.0458342
0.0431336
0.0428508
0.044673
0.0482852
0.0533733
0.0596353
0.0667868
0.0745828
0.0827738
0.0911699
0.0995581
0.107823
0.115786
0.123351
0.130463
0.136995
0.142969
0.148321
0.153014
0.156955
0.160237
0.162805
0.164662
0.165884
0.166436
0.166349
0.16564
0.164339
0.162473
0.160076
0.157143
0.153722
0.149842
0.145537
0.140816
0.13569
0.130217
0.124387
0.118266
0.111824
0.105103
0.0981711
0.0909501
0.083525
0.0758888
0.0680719
0.0600377
0.0518901
0.0434614
0.034926
0.0259934
0.0169457
0.00749077
0.00223352
1.51349
1.3416
1.29331
1.2363
1.17804
1.12906
1.08103
1.03529
0.990549
0.946315
0.902207
0.857896
0.812989
0.767935
0.722535
0.676323
0.629581
0.58265
0.535707
0.489076
0.442974
0.397815
0.353908
0.311666
0.271398
0.233563
0.199254
0.168108
0.139876
0.115347
0.0941791
0.0761612
0.0614657
0.0502488
0.0423104
0.0373904
0.0352386
0.0355279
0.03793
0.0421223
0.0477778
0.0545885
0.0622666
0.0705497
0.0791941
0.088003
0.0967651
0.10537
0.113621
0.121471
0.12881
0.135513
0.141696
0.1472
0.152037
0.156126
0.159529
0.162228
0.164181
0.165478
0.166072
0.166035
0.165365
0.164095
0.162265
0.159873
0.156985
0.153586
0.14973
0.145439
0.14072
0.135617
0.130159
0.124345
0.118224
0.111794
0.105091
0.0981388
0.0909422
0.0835338
0.0759077
0.0680982
0.0601058
0.0519316
0.0435676
0.0349785
0.0261219
0.0169358
0.00765734
0.00246781
1.46558
1.30672
1.26368
1.21169
1.15915
1.11373
1.06858
1.02487
0.981601
0.938376
0.894913
0.850914
0.806259
0.760962
0.714997
0.66831
0.621071
0.57353
0.525913
0.478548
0.431703
0.385812
0.34121
0.298354
0.257635
0.219491
0.184497
0.152639
0.124282
0.0994612
0.0781204
0.0603915
0.046318
0.0358161
0.028656
0.0245854
0.023314
0.0245079
0.0278184
0.032906
0.0394289
0.0470721
0.0555322
0.064546
0.0738666
0.0832885
0.0926238
0.101725
0.110454
0.118707
0.126423
0.133515
0.139943
0.14566
0.15066
0.154926
0.158464
0.161271
0.163349
0.16474
0.16545
0.165495
0.164903
0.163708
0.161923
0.159596
0.156737
0.153377
0.149552
0.145281
0.140596
0.135507
0.130058
0.124256
0.118146
0.111732
0.105038
0.0981033
0.0909172
0.0835211
0.0759115
0.0681233
0.0601396
0.0520101
0.0437043
0.0351868
0.0264518
0.017254
0.0082721
0.00305229
1.44222
1.29226
1.25174
1.20176
1.15149
1.10708
1.06266
1.01925
0.97596
0.932516
0.888642
0.844113
0.798849
0.7528
0.705993
0.658441
0.610303
0.561792
0.513152
0.464729
0.416825
0.369875
0.324275
0.280468
0.238915
0.200013
0.164308
0.131967
0.103212
0.0783055
0.0572724
0.0400986
0.026748
0.0170755
0.010878
0.00786214
0.00770849
0.0100594
0.01454
0.0207861
0.0284406
0.0371668
0.0466525
0.0566267
0.0668345
0.0770664
0.0871368
0.0969016
0.106218
0.115003
0.123177
0.13066
0.137452
0.143498
0.148786
0.153309
0.157063
0.160067
0.162316
0.163853
0.164674
0.164828
0.164329
0.163204
0.161496
0.159217
0.156413
0.153101
0.149313
0.145074
0.140411
0.135354
0.129937
0.12416
0.118064
0.111666
0.104991
0.0980616
0.090896
0.0835155
0.0759246
0.0681504
0.0602075
0.0520757
0.0437909
0.0352618
0.0265207
0.0173483
0.00840594
0.00312729
1.41728
1.26892
1.23001
1.18189
1.13397
1.09148
1.04878
1.00671
0.964447
0.921672
0.878165
0.833694
0.78823
0.741721
0.694222
0.645823
0.596693
0.547066
0.49723
0.447518
0.398324
0.350062
0.303212
0.258223
0.215614
0.175824
0.139321
0.106441
0.0774424
0.0525031
0.0317033
0.0150526
0.00248022
-0.00618079
-0.0111938
-0.0128836
-0.0116252
-0.00781191
-0.00185132
0.00585631
0.0149252
0.0250061
0.0357671
0.046926
0.0582274
0.0694564
0.0804357
0.0910127
0.101068
0.110506
0.119262
0.127274
0.134509
0.140941
0.146562
0.151372
0.155378
0.158598
0.161041
0.162741
0.163718
0.163997
0.163612
0.162592
0.160961
0.15876
0.156017
0.152758
0.149021
0.144823
0.140199
0.13517
0.129769
0.124016
0.117942
0.111565
0.104909
0.0980016
0.0908528
0.083486
0.0759146
0.068155
0.0602238
0.0521149
0.0438739
0.0353422
0.0266684
0.0174999
0.00858437
0.00332684
1.39896
1.25339
1.21625
1.16973
1.12335
1.08181
1.03974
0.997933
0.955634
0.912595
0.868589
0.823448
0.777166
0.72968
0.681076
0.631433
0.580969
0.529897
0.478528
0.427244
0.376435
0.326589
0.278192
0.231767
0.187862
0.146951
0.109565
0.0760377
0.0467068
0.0217726
0.00134925
-0.0145906
-0.0261555
-0.0335707
-0.0371429
-0.0372471
-0.0343081
-0.0287607
-0.0210585
-0.0116338
-0.000899016
0.0107672
0.0230222
0.0355738
0.0481585
0.0605598
0.0725968
0.0841285
0.0950342
0.10523
0.114649
0.123245
0.130998
0.137887
0.143908
0.149073
0.153387
0.156872
0.159549
0.161452
0.162602
0.163034
0.16278
0.161869
0.160341
0.158222
0.155554
0.152361
0.148673
0.144523
0.139942
0.134955
0.129592
0.123869
0.117821
0.111467
0.104831
0.0979379
0.0908067
0.083459
0.0759042
0.0681646
0.0602615
0.0521639
0.043932
0.0354164
0.026738
0.0175574
0.00864073
0.00335173
1.38157
1.23626
1.19964
1.15389
1.10838
1.06767
1.02634
0.98509
0.943152
0.90023
0.856103
0.810587
0.763677
0.715325
0.665625
0.614706
0.562775
0.510095
0.457012
0.403905
0.351265
0.299563
0.249396
0.201298
0.155894
0.113716
0.0753142
0.0411161
0.0114714
-0.0133949
-0.0333768
-0.0485062
-0.0589314
-0.0649186
-0.0668289
-0.0650964
-0.0602015
-0.0526405
-0.0429145
-0.0314993
-0.0188455
-0.00535235
0.00861637
0.0227553
0.0367975
0.0505264
0.0637669
0.0763755
0.0882478
0.0993018
0.109483
0.118751
0.127092
0.134498
0.14097
0.14652
0.151171
0.154951
0.157885
0.16001
0.161356
0.161955
0.161844
0.161063
0.159643
0.157621
0.155032
0.151907
0.148284
0.144186
0.139653
0.134707
0.129374
0.123683
0.117661
0.111335
0.104726
0.0978568
0.0907438
0.083411
0.0758764
0.0681526
0.0602624
0.052185
0.0439773
0.0354763
0.0268337
0.0176126
0.00867591
0.0034094
1.36652
1.22205
1.18626
1.14124
1.09653
1.05634
1.01532
0.974129
0.932005
0.888673
0.843916
0.79756
0.749607
0.700019
0.648909
0.596388
0.542713
0.48814
0.43305
0.377872
0.323098
0.269302
0.217088
0.167085
0.11998
0.076351
0.0368414
0.00188497
-0.0280864
-0.0528565
-0.0722864
-0.086453
-0.095539
-0.0998608
-0.0998539
-0.096016
-0.0889007
-0.0790652
-0.0670677
-0.0534291
-0.0386324
-0.0231099
-0.00724047
0.00865697
0.0243142
0.0395127
0.0540776
0.0678762
0.0808039
0.0927972
0.103807
0.113807
0.122789
0.130754
0.137715
0.143697
0.148725
0.152831
0.156048
0.158417
0.159976
0.16076
0.160816
0.160173
0.158875
0.156957
0.154459
0.151415
0.147859
0.143823
0.139342
0.13444
0.12915
0.123496
0.117505
0.111203
0.104616
0.0977665
0.0906746
0.0833641
0.0758465
0.0681403
0.060268
0.0521998
0.0440024
0.0354966
0.0268505
0.0176265
0.00871206
0.00347668
1.3525
1.20813
1.17254
1.12783
1.0834
1.04345
1.00258
0.96141
0.919135
0.875443
0.830128
0.782972
0.733981
0.683128
0.630515
0.576296
0.520714
0.464072
0.406778
0.349282
0.292177
0.236029
0.181569
0.129458
0.0804723
0.035267
-0.00547406
-0.0412191
-0.0715229
-0.0961295
-0.114921
-0.12798
-0.135543
-0.138001
-0.135848
-0.129668
-0.120087
-0.107734
-0.0932246
-0.0771358
-0.0599885
-0.0422422
-0.0242995
-0.00648893
0.0109162
0.0277001
0.0436897
0.0587625
0.0728317
0.0858341
0.0977378
0.108525
0.118198
0.126768
0.134257
0.140698
0.146125
0.150579
0.154098
0.15673
0.158519
0.159498
0.159716
0.159222
0.158053
0.156248
0.153845
0.150883
0.147403
0.143429
0.139
0.134146
0.128895
0.123279
0.117322
0.11105
0.10449
0.0976668
0.0905974
0.083303
0.0758014
0.0681114
0.0602508
0.0522015
0.0440191
0.0355346
0.0269098
0.0176662
0.00871715
0.00345269
1.3397
1.19551
1.1602
1.11576
1.07157
1.03174
0.990833
0.949444
0.906743
0.862422
0.816259
0.768048
0.717776
0.66542
0.611098
0.55494
0.497242
0.438306
0.378579
0.318561
0.258867
0.200171
0.143229
0.0888169
0.0377839
-0.00914555
-0.0511804
-0.0877682
-0.118378
-0.14277
-0.160797
-0.172596
-0.178453
-0.178827
-0.174306
-0.165551
-0.153275
-0.138183
-0.120959
-0.102233
-0.0825651
-0.0624482
-0.0422965
-0.0224516
-0.00319059
0.0152704
0.0327703
0.0491955
0.0644647
0.0785291
0.0913676
0.102981
0.113375
0.122575
0.130616
0.137538
0.143385
0.148204
0.152042
0.154946
0.156973
0.158161
0.158564
0.158225
0.15719
0.155502
0.153201
0.150328
0.146921
0.143015
0.138646
0.133842
0.128637
0.123061
0.117139
0.110895
0.10436
0.097558
0.0905076
0.0832348
0.0757501
0.0680774
0.0602325
0.0521971
0.0440154
0.0355443
0.0269178
0.0176507
0.00871917
0.00346812
1.32776
1.18356
1.14827
1.10394
1.05971
1.01979
0.978704
0.936983
0.893786
0.848763
0.801711
0.752373
0.700749
0.646804
0.590645
0.53244
0.472468
0.411078
0.348742
0.286006
0.223561
0.162112
0.102538
0.0456637
-0.00755263
-0.0562928
-0.0997063
-0.137142
-0.16805
-0.192138
-0.209299
-0.219698
-0.223676
-0.221786
-0.214695
-0.20317
-0.188008
-0.169997
-0.149887
-0.128363
-0.106035
-0.0834181
-0.0609484
-0.0389755
-0.0177804
0.00243128
0.0215019
0.0393248
0.0558351
0.0709976
0.0848056
0.0972695
0.108413
0.118267
0.126878
0.134295
0.140574
0.145768
0.149928
0.153116
0.155386
0.156786
0.15737
0.157192
0.1563
0.154733
0.152537
0.149754
0.146427
0.142589
0.138279
0.133528
0.128366
0.122825
0.116937
0.110727
0.104219
0.0974413
0.0904129
0.0831603
0.0756955
0.0680387
0.0602038
0.05218
0.0440195
0.035536
0.026942
0.0176804
0.00873567
0.00350197
1.31664
1.17246
1.13719
1.09286
1.04855
1.00847
0.967086
0.924914
0.881076
0.835209
0.787125
0.736533
0.683406
0.627727
0.569605
0.509193
0.446814
0.382812
0.317713
0.252103
0.186724
0.122387
0.0600147
0.000557352
-0.054944
-0.10558
-0.150395
-0.188687
-0.21983
-0.243547
-0.259718
-0.268571
-0.270516
-0.266189
-0.256362
-0.241898
-0.223692
-0.20262
-0.179498
-0.155072
-0.129989
-0.104794
-0.07994
-0.0557853
-0.0326068
-0.0106074
0.0100644
0.0293127
0.0470905
0.0633709
0.078157
0.0914817
0.103377
0.113893
0.123081
0.131
0.137716
0.143288
0.147783
0.151258
0.153777
0.155393
0.156167
0.156151
0.155396
0.15395
0.15186
0.149171
0.145922
0.142153
0.137902
0.133205
0.128091
0.122593
0.11674
0.110559
0.104081
0.0973284
0.0903182
0.0830814
0.0756294
0.0679889
0.0601696
0.0521607
0.0440001
0.0355559
0.0269571
0.0176526
0.00870774
0.00347177
1.30628
1.16207
1.12673
1.08232
1.03781
0.997451
0.955665
0.912952
0.868409
0.821652
0.772466
0.720525
0.665849
0.608364
0.548188
0.485498
0.420598
0.353896
0.285919
0.217327
0.148919
0.0815683
0.0163167
-0.0458071
-0.103661
-0.156227
-0.202462
-0.241568
-0.27291
-0.296168
-0.311259
-0.318454
-0.318236
-0.311343
-0.298651
-0.281134
-0.259781
-0.235554
-0.209344
-0.181949
-0.154059
-0.126245
-0.0989738
-0.0726111
-0.0474342
-0.0236387
-0.00136218
0.0193161
0.0383595
0.0557566
0.0715274
0.0857145
0.0983663
0.109539
0.119301
0.127722
0.134872
0.140822
0.145647
0.149411
0.152176
0.154005
0.154961
0.155106
0.154493
0.15317
0.151187
0.148589
0.14542
0.14172
0.137532
0.132886
0.127814
0.122354
0.116536
0.110387
0.103933
0.0972031
0.0902157
0.0829983
0.0755648
0.0679437
0.0601339
0.0521399
0.0439893
0.0355543
0.0269814
0.0176662
0.00869925
0.00346146
1.29668
1.15242
1.11698
1.07243
1.02769
0.98701
0.944769
0.901456
0.85613
0.80842
0.758047
0.704724
0.648415
0.589063
0.52678
0.461736
0.394266
0.324779
0.253873
0.182225
0.110714
0.040311
-0.0278865
-0.0927128
-0.152944
-0.207425
-0.255038
-0.294925
-0.326383
-0.349101
-0.363012
-0.36844
-0.365965
-0.356419
-0.340788
-0.320153
-0.295604
-0.268191
-0.238875
-0.208511
-0.177816
-0.147396
-0.117728
-0.0891792
-0.0620241
-0.0364516
-0.0125868
0.00950149
0.0297891
0.0482864
0.0650228
0.0800539
0.0934416
0.105262
0.115589
0.124503
0.132086
0.138407
0.14355
0.14759
0.150597
0.15264
0.153785
0.15409
0.15361
0.152405
0.150526
0.148017
0.144924
0.14129
0.137158
0.132565
0.127541
0.122122
0.116338
0.11022
0.103795
0.0970898
0.0901193
0.0829195
0.0754984
0.0678871
0.0600908
0.0521067
0.043972
0.0355382
0.0269833
0.0176566
0.00868597
0.00348035
1.2878
1.14352
1.10793
1.06321
1.01818
0.977118
0.934362
0.890412
0.844277
0.795583
0.744031
0.689284
0.631336
0.570102
0.505696
0.4383
0.368237
0.295977
0.222108
0.147416
0.0727997
-0.000670919
-0.0717917
-0.139304
-0.201874
-0.258229
-0.30717
-0.347762
-0.379279
-0.40138
-0.414044
-0.417653
-0.412869
-0.400637
-0.382052
-0.358304
-0.330578
-0.300006
-0.267626
-0.234333
-0.200886
-0.167907
-0.135893
-0.10521
-0.0761307
-0.0488343
-0.0234349
1.62281e-05
0.0215115
0.0410691
0.0587407
0.0745906
0.0886959
0.101141
0.112011
0.121399
0.129394
0.136073
0.141532
0.145846
0.149084
0.151325
0.152641
0.153099
0.152752
0.151661
0.149883
0.147461
0.144446
0.140881
0.136806
0.13226
0.127278
0.121896
0.116144
0.110051
0.103648
0.0969628
0.0900155
0.082835
0.0754315
0.0678349
0.0600503
0.0520742
0.0439413
0.0355174
0.0269507
0.0176279
0.00868756
0.00348807
1.27971
1.13536
1.09962
1.0547
1.00937
0.967915
0.924652
0.88003
0.833086
0.783396
0.73067
0.674494
0.614912
0.55182
0.485319
0.415589
0.342983
0.26797
0.191208
0.113502
0.0358398
-0.0406214
-0.114613
-0.184732
-0.249561
-0.307691
-0.357876
-0.399083
-0.430567
-0.451979
-0.46334
-0.465097
-0.458009
-0.443116
-0.421628
-0.394837
-0.364023
-0.330397
-0.29506
-0.25895
-0.222859
-0.187435
-0.153179
-0.120458
-0.0895407
-0.0605991
-0.0337329
-0.00898142
0.0136572
0.0342251
0.0527822
0.0694119
0.0841937
0.0972279
0.108616
0.118454
0.12684
0.13386
0.139607
0.144173
0.147637
0.150072
0.15156
0.152165
0.151944
0.150962
0.149276
0.146936
0.143991
0.140485
0.136464
0.131965
0.127025
0.121681
0.115962
0.1099
0.103521
0.0968571
0.0899243
0.0827605
0.0753703
0.0677858
0.0600089
0.0520426
0.0439222
0.0354991
0.0269382
0.0176043
0.00868129
0.00350296
1.27238
1.12798
1.09208
1.04697
1.00131
0.959467
0.91565
0.870396
0.822629
0.771967
0.718069
0.660555
0.599409
0.53452
0.465996
0.39403
0.318963
0.241327
0.161762
0.0811818
0.000585661
-0.0787396
-0.155465
-0.22806
-0.294999
-0.354793
-0.406101
-0.447832
-0.479212
-0.499898
-0.509955
-0.509892
-0.500559
-0.4831
-0.458831
-0.429138
-0.395387
-0.35887
-0.320739
-0.281969
-0.24339
-0.205666
-0.169304
-0.134673
-0.102037
-0.07156
-0.0433278
-0.0173671
0.0063474
0.0278629
0.0472488
0.0645982
0.0800152
0.0936009
0.105465
0.11572
0.124467
0.131798
0.137822
0.142626
0.146294
0.148913
0.150555
0.151289
0.151184
0.150307
0.14871
0.146443
0.143565
0.140117
0.136147
0.131695
0.126792
0.121477
0.115786
0.10975
0.103392
0.0967456
0.0898313
0.0826824
0.075304
0.0677287
0.0599646
0.0520056
0.0439001
0.0354798
0.0269769
0.0176544
0.00865647
0.0034921
1.26588
1.12142
1.08534
1.04005
0.994093
0.951839
0.907534
0.861641
0.813118
0.761533
0.706511
0.64774
0.585112
0.518539
0.448114
0.374038
0.296666
0.216539
0.134363
0.0510744
-0.0322511
-0.114255
-0.193527
-0.268396
-0.337293
-0.398573
-0.450872
-0.493005
-0.524214
-0.544143
-0.552917
-0.551101
-0.539643
-0.51978
-0.492916
-0.460532
-0.42407
-0.384884
-0.344182
-0.302972
-0.262112
-0.222281
-0.183995
-0.147621
-0.113418
-0.0815366
-0.0520565
-0.0249881
-0.000305791
0.0220608
0.0421979
0.0602095
0.0761997
0.0902842
0.102587
0.113221
0.122301
0.129923
0.136194
0.141213
0.145071
0.14785
0.149637
0.150498
0.1505
0.149711
0.148193
0.145997
0.143179
0.139785
0.13586
0.131446
0.126577
0.121296
0.115633
0.109619
0.103281
0.0966513
0.0897517
0.0826196
0.0752518
0.0676894
0.0599318
0.0519793
0.0438722
0.0354608
0.0269065
0.0175799
0.00867202
0.00350897
1.26023
1.1157
1.07946
1.034
0.98775
0.945137
0.900342
0.853881
0.804645
0.752209
0.696198
0.636259
0.572281
0.504168
0.432009
0.356014
0.276538
0.194171
0.1096
0.02386
-0.061961
-0.14638
-0.227935
-0.304844
-0.375461
-0.438062
-0.491187
-0.533639
-0.564633
-0.583825
-0.591391
-0.587958
-0.574559
-0.55251
-0.523303
-0.488494
-0.449599
-0.408031
-0.365034
-0.32165
-0.278759
-0.237053
-0.197052
-0.159125
-0.123524
-0.0903976
-0.0598067
-0.0317556
-0.00619957
0.0169311
0.0377364
0.0563327
0.0728387
0.0873682
0.100053
0.111023
0.120391
0.128266
0.134756
0.139965
0.143987
0.146911
0.148818
0.149785
0.149884
0.149181
0.147734
0.145598
0.142833
0.139485
0.135603
0.131225
0.126388
0.121129
0.115487
0.109496
0.103177
0.0965636
0.0896767
0.0825507
0.0751933
0.0676396
0.0598892
0.0519443
0.0438442
0.035437
0.0269041
0.0175883
0.00866686
0.00350295
1.25545
1.11088
1.07449
1.02887
0.982355
0.939413
0.894197
0.847227
0.797367
0.744185
0.687303
0.626354
0.56117
0.491701
0.418017
0.340337
0.259021
0.174663
0.0880081
0.000115596
-0.0878651
-0.174392
-0.257951
-0.33661
-0.408723
-0.472404
-0.526209
-0.568869
-0.599628
-0.618127
-0.624599
-0.619726
-0.604616
-0.580659
-0.549416
-0.512515
-0.471518
-0.427894
-0.382919
-0.337661
-0.293023
-0.249706
-0.208234
-0.168978
-0.132183
-0.0979843
-0.0664423
-0.0375481
-0.0112547
0.0125288
0.0339052
0.0529982
0.0699354
0.0848455
0.0978657
0.109122
0.11874
0.126833
0.133516
0.138892
0.143059
0.146108
0.148124
0.149182
0.14936
0.148725
0.147342
0.145262
0.142543
0.139236
0.135386
0.131041
0.126229
0.120993
0.115371
0.109395
0.10309
0.0964908
0.0896151
0.0825028
0.0751554
0.0676097
0.059866
0.0519259
0.0438358
0.0354241
0.0269111
0.0175866
0.00865051
0.00350198
1.25158
1.10698
1.07047
1.02469
0.97797
0.934745
0.889185
0.841776
0.791395
0.737549
0.679988
0.618184
0.551981
0.481389
0.406437
0.327351
0.244494
0.158495
0.0700885
-0.0195862
-0.109386
-0.197653
-0.282851
-0.362963
-0.436281
-0.500853
-0.555154
-0.597949
-0.628477
-0.64637
-0.651914
-0.645835
-0.629301
-0.603759
-0.570836
-0.532206
-0.489483
-0.444174
-0.397579
-0.35079
-0.304721
-0.260083
-0.217404
-0.177053
-0.139273
-0.104198
-0.0718769
-0.0422941
-0.015386
0.0089329
0.0307772
0.0502798
0.0675768
0.0828024
0.0960919
0.107581
0.117401
0.125673
0.13251
0.138019
0.1423
0.145448
0.147548
0.148687
0.148935
0.148358
0.147021
0.144983
0.142301
0.139023
0.135202
0.130876
0.126087
0.120872
0.115267
0.109309
0.103018
0.0964282
0.0895633
0.0824568
0.0751169
0.067574
0.0598342
0.0518993
0.0438071
0.0354069
0.0268726
0.0175509
0.00865633
0.00351725
1.24863
1.10403
1.06744
1.02151
0.974629
0.931194
0.885353
0.837619
0.786836
0.732532
0.674356
0.611867
0.544928
0.473457
0.397516
0.317338
0.233289
0.146006
0.0562525
-0.0348072
-0.126001
-0.215611
-0.302092
-0.383279
-0.45758
-0.522737
-0.577377
-0.620263
-0.650614
-0.668016
-0.672826
-0.665804
-0.648165
-0.621405
-0.587193
-0.547242
-0.503198
-0.456601
-0.408767
-0.360807
-0.313643
-0.267995
-0.224395
-0.183212
-0.144686
-0.108939
-0.0760264
-0.0459157
-0.0185382
0.00619026
0.028389
0.0482035
0.0657705
0.0812306
0.0947292
0.106401
0.116376
0.12478
0.131739
0.13735
0.14172
0.144944
0.147114
0.148307
0.148602
0.14807
0.146771
0.144768
0.142117
0.138867
0.135065
0.130762
0.12599
0.120787
0.115196
0.109246
0.102962
0.0963814
0.0895217
0.0824241
0.0750865
0.0675522
0.0598204
0.0518912
0.0438031
0.0353995
0.0268939
0.0175758
0.00864278
0.00349294
1.24668
1.10204
1.06537
1.01939
0.972385
0.928795
0.882757
0.834802
0.783725
0.729104
0.670545
0.60761
0.540138
0.468071
0.391464
0.310543
0.225676
0.137528
0.0468478
-0.0451462
-0.137314
-0.227825
-0.315193
-0.39711
-0.472139
-0.537688
-0.592395
-0.635282
-0.665587
-0.682649
-0.686964
-0.6793
-0.660911
-0.633323
-0.598238
-0.557392
-0.512456
-0.464987
-0.416321
-0.36757
-0.31967
-0.273343
-0.22912
-0.187373
-0.148338
-0.112139
-0.0788263
-0.0483517
-0.0206633
0.00433739
0.0267779
0.0467999
0.0645506
0.0801741
0.0938099
0.105599
0.115682
0.124181
0.131215
0.136898
0.141329
0.144606
0.146819
0.148056
0.14839
0.147887
0.14661
0.144627
0.141994
0.138758
0.134972
0.130676
0.125914
0.120726
0.115144
0.109201
0.102924
0.0963476
0.0894955
0.0824013
0.0750688
0.0675333
0.0598023
0.0518713
0.0437864
0.0353856
0.0268632
0.0175472
0.00866171
0.00354047
1.2457
1.10103
1.06433
1.01833
0.97126
0.927588
0.881473
0.833382
0.782174
0.72732
0.668657
0.605519
0.53771
0.465346
0.388392
0.307092
0.221811
0.13322
0.0420762
-0.0503986
-0.143042
-0.234013
-0.321825
-0.404142
-0.479559
-0.545465
-0.599888
-0.642707
-0.673106
-0.690011
-0.694079
-0.686094
-0.667325
-0.639322
-0.603797
-0.562502
-0.517117
-0.469208
-0.420119
-0.370972
-0.322702
-0.276031
-0.231498
-0.189468
-0.150187
-0.113755
-0.0802728
-0.0496124
-0.021701
0.0034318
0.025969
0.0460983
0.0639431
0.0796446
0.0933502
0.105204
0.115339
0.123881
0.130954
0.136669
0.141132
0.144435
0.146671
0.147922
0.148271
0.147784
0.146523
0.144551
0.141927
0.138705
0.134925
0.130635
0.125878
0.120694
0.115117
0.109175
0.102903
0.0963342
0.0894841
0.0823933
0.0750591
0.0675277
0.0597987
0.0518711
0.0437812
0.0353838
0.0268621
0.0175344
0.0086501
0.00351648
1.24571
1.10103
1.06433
1.01833
0.971256
0.927586
0.881468
0.833374
0.782171
0.727327
0.668649
0.605512
0.537712
0.465347
0.388396
0.307095
0.221821
0.133232
0.0420806
-0.0503853
-0.143035
-0.234004
-0.321821
-0.404132
-0.479563
-0.545454
-0.59988
-0.642708
-0.673097
-0.690003
-0.694071
-0.686085
-0.667319
-0.639316
-0.60379
-0.562496
-0.517112
-0.469204
-0.420115
-0.370967
-0.322695
-0.276027
-0.231491
-0.189459
-0.150176
-0.113747
-0.0802679
-0.0496098
-0.0216998
0.00343262
0.0259701
0.0460972
0.0639388
0.0796388
0.0933465
0.105197
0.115331
0.123876
0.130951
0.136666
0.141128
0.144433
0.14667
0.147924
0.148272
0.147787
0.146527
0.144555
0.141933
0.138706
0.134926
0.130637
0.125881
0.120697
0.115119
0.109178
0.102903
0.0963319
0.0894824
0.082389
0.0750598
0.0675267
0.0597944
0.0518636
0.0437779
0.0353813
0.0268576
0.0175454
0.0086552
0.00352054
1.24668
1.10203
1.06537
1.01939
0.972386
0.928796
0.882769
0.834815
0.783731
0.729108
0.670555
0.607616
0.540143
0.468076
0.39146
0.310539
0.225671
0.137525
0.0468472
-0.0451501
-0.137305
-0.227809
-0.31518
-0.39708
-0.472114
-0.537637
-0.592359
-0.63528
-0.665557
-0.682624
-0.686935
-0.679272
-0.660883
-0.633298
-0.598213
-0.55737
-0.512438
-0.464971
-0.416303
-0.367554
-0.319657
-0.273333
-0.229113
-0.187367
-0.148336
-0.112138
-0.0788241
-0.04835
-0.0206597
0.00433965
0.0267787
0.0468046
0.0645566
0.0801815
0.0938208
0.105611
0.115689
0.124185
0.13122
0.136897
0.141328
0.144602
0.146817
0.14805
0.148382
0.14788
0.146605
0.144623
0.14199
0.138757
0.13497
0.130673
0.125908
0.120719
0.115137
0.109193
0.10292
0.0963499
0.0894976
0.0824056
0.0750706
0.0675378
0.0598019
0.0518733
0.0437831
0.0353841
0.0268582
0.0175376
0.00865661
0.00351136
1.24865
1.10401
1.06742
1.02152
0.974628
0.931185
0.885355
0.837606
0.78683
0.732499
0.674365
0.611905
0.54493
0.473461
0.397527
0.317347
0.233301
0.146026
0.0562657
-0.0347863
-0.125987
-0.21558
-0.302063
-0.383243
-0.457542
-0.522693
-0.577339
-0.620224
-0.650562
-0.667971
-0.67278
-0.665761
-0.648123
-0.621365
-0.587156
-0.547209
-0.503167
-0.456573
-0.408741
-0.360785
-0.313624
-0.267981
-0.224382
-0.183199
-0.144673
-0.108927
-0.076015
-0.0459067
-0.0185302
0.00619575
0.0283932
0.0482062
0.0657731
0.0812337
0.09473
0.106397
0.116373
0.124781
0.131735
0.137344
0.141716
0.144943
0.147112
0.148306
0.148601
0.148072
0.146776
0.144771
0.142119
0.138868
0.135067
0.130757
0.125981
0.120782
0.115193
0.109242
0.102958
0.096382
0.0895241
0.082422
0.0750872
0.0675496
0.0598154
0.0518799
0.0437853
0.0353851
0.0268431
0.0175238
0.00866743
0.003542
1.25157
1.10697
1.07046
1.02468
0.977969
0.934735
0.889187
0.841773
0.79139
0.737563
0.679992
0.618195
0.551992
0.481402
0.406447
0.327365
0.24451
0.158506
0.0701066
-0.0195756
-0.109359
-0.197625
-0.282815
-0.362919
-0.436228
-0.50079
-0.555091
-0.59789
-0.628415
-0.646306
-0.651848
-0.64577
-0.629238
-0.603702
-0.570784
-0.532159
-0.489441
-0.444134
-0.397544
-0.350758
-0.304696
-0.260062
-0.217386
-0.177039
-0.139262
-0.104188
-0.0718689
-0.0422865
-0.0153794
0.00893937
0.0307842
0.0502868
0.0675816
0.0828063
0.0960981
0.107588
0.117406
0.125675
0.132514
0.138021
0.142301
0.145445
0.147546
0.148684
0.14893
0.148351
0.147014
0.144979
0.142298
0.139022
0.135198
0.130874
0.126085
0.12087
0.115266
0.109303
0.103012
0.0964271
0.0895609
0.0824583
0.0751162
0.0675765
0.0598358
0.0519017
0.0438118
0.035404
0.0269008
0.0175738
0.00865227
0.00350974
1.25544
1.11087
1.07449
1.02885
0.982352
0.939399
0.894192
0.847207
0.797353
0.744161
0.68733
0.626363
0.561177
0.491714
0.418037
0.340356
0.259043
0.174694
0.0880312
0.000149156
-0.0878347
-0.174346
-0.257899
-0.336555
-0.408654
-0.472332
-0.52613
-0.568798
-0.599545
-0.618045
-0.624518
-0.619652
-0.604544
-0.580587
-0.549351
-0.512455
-0.471462
-0.427844
-0.382874
-0.337626
-0.292994
-0.249683
-0.208214
-0.168959
-0.132165
-0.0979684
-0.0664283
-0.0375352
-0.0112391
0.0125418
0.0339183
0.0530121
0.069947
0.0848555
0.0978736
0.109128
0.118742
0.126834
0.133513
0.138886
0.143052
0.146102
0.148118
0.14918
0.149358
0.148726
0.147342
0.145263
0.142547
0.139237
0.135383
0.131031
0.126218
0.120984
0.115363
0.109389
0.103088
0.0964905
0.0896134
0.082499
0.0751529
0.067605
0.0598597
0.0519178
0.0438176
0.0354126
0.026863
0.0175348
0.00867043
0.0035365
1.26022
1.1157
1.07945
1.03399
0.987749
0.945117
0.900342
0.85386
0.804631
0.752101
0.696251
0.636374
0.572286
0.504182
0.432029
0.356037
0.276573
0.194189
0.109631
0.0238844
-0.0619098
-0.146332
-0.227874
-0.304783
-0.375389
-0.437981
-0.491102
-0.533548
-0.564539
-0.583727
-0.591296
-0.587867
-0.57447
-0.552426
-0.523226
-0.488425
-0.449535
-0.407972
-0.364981
-0.321603
-0.278719
-0.237016
-0.19702
-0.1591
-0.123503
-0.0903784
-0.0597896
-0.0317386
-0.00618707
0.016943
0.0377478
0.0563392
0.0728378
0.0873661
0.100053
0.111019
0.120384
0.128261
0.13476
0.139969
0.143989
0.146909
0.148815
0.149785
0.149884
0.149175
0.147728
0.145598
0.142835
0.139487
0.1356
0.131222
0.126386
0.121129
0.115485
0.109491
0.103172
0.0965629
0.0896758
0.0825529
0.0751947
0.0676387
0.0598871
0.0519465
0.0438499
0.0354372
0.0269169
0.0176046
0.00865786
0.00348536
1.26587
1.12142
1.08533
1.04004
0.994083
0.951827
0.907513
0.861622
0.813091
0.761497
0.706514
0.647797
0.585134
0.518557
0.448135
0.374066
0.2967
0.216582
0.1344
0.0511204
-0.0322004
-0.114192
-0.193452
-0.268319
-0.337197
-0.398479
-0.450763
-0.492898
-0.524103
-0.544034
-0.552809
-0.550999
-0.539546
-0.519687
-0.492829
-0.460453
-0.423996
-0.384818
-0.344123
-0.302922
-0.262069
-0.222244
-0.183962
-0.147594
-0.113394
-0.0815167
-0.0520395
-0.0249719
-0.00028756
0.0220781
0.0422155
0.0602257
0.0762136
0.0903006
0.102603
0.113231
0.122301
0.129922
0.136192
0.141208
0.145063
0.147844
0.149628
0.150489
0.150493
0.149708
0.148191
0.145998
0.143182
0.13979
0.13586
0.131442
0.126574
0.121287
0.115623
0.10961
0.103274
0.096648
0.0897499
0.0826153
0.0752461
0.0676808
0.0599209
0.0519746
0.0438653
0.0354564
0.0269357
0.0176045
0.00865155
0.0034711
1.27238
1.12798
1.09205
1.04696
1.00131
0.959449
0.915653
0.870378
0.822622
0.771958
0.718067
0.660583
0.599425
0.534541
0.466027
0.394054
0.319008
0.241354
0.161813
0.0812202
0.000649383
-0.0786794
-0.155389
-0.227976
-0.294908
-0.354697
-0.405994
-0.447715
-0.479095
-0.499775
-0.509834
-0.509771
-0.500444
-0.482995
-0.458735
-0.42905
-0.395309
-0.358795
-0.320671
-0.281908
-0.243337
-0.205618
-0.169262
-0.134639
-0.102011
-0.071538
-0.0433054
-0.0173439
0.00636455
0.0278772
0.0472629
0.0646122
0.0800244
0.0936049
0.105469
0.115718
0.12446
0.131795
0.137823
0.142625
0.146294
0.148908
0.150549
0.151284
0.151182
0.150302
0.148704
0.146442
0.143565
0.140119
0.136147
0.131694
0.126791
0.121476
0.115781
0.109745
0.103388
0.0967452
0.08983
0.0826812
0.0753037
0.0677276
0.059962
0.0520016
0.0438979
0.0354742
0.0269409
0.0176086
0.00866961
0.00351463
1.27968
1.13536
1.09962
1.05469
1.00936
0.967911
0.924633
0.880027
0.833073
0.783393
0.730673
0.67451
0.614927
0.551836
0.485339
0.415617
0.343013
0.268014
0.19126
0.113566
0.0359121
-0.0405443
-0.114523
-0.184641
-0.24945
-0.30758
-0.357754
-0.398955
-0.430436
-0.451846
-0.463213
-0.464973
-0.457888
-0.443003
-0.421524
-0.394744
-0.363939
-0.330321
-0.294992
-0.25889
-0.222802
-0.187382
-0.153131
-0.120419
-0.0895077
-0.0605711
-0.0337111
-0.00896169
0.0136776
0.0342438
0.0528005
0.0694295
0.0842119
0.0972463
0.10863
0.118462
0.12684
0.133856
0.139604
0.144169
0.14763
0.150065
0.151551
0.152156
0.151937
0.150959
0.149274
0.146937
0.143997
0.140494
0.136467
0.131965
0.127021
0.121674
0.115955
0.109891
0.103511
0.0968503
0.0899184
0.0827555
0.0753632
0.0677759
0.0599979
0.0520351
0.0439106
0.0354913
0.0269344
0.0175959
0.00867863
0.00349287
1.2878
1.14351
1.10791
1.0632
1.01817
0.977111
0.93436
0.890403
0.844273
0.795587
0.744035
0.689297
0.631351
0.570118
0.505726
0.438322
0.36829
0.296011
0.222172
0.147471
0.0728752
-0.000588468
-0.0717012
-0.139208
-0.201768
-0.258111
-0.307047
-0.347632
-0.379146
-0.401241
-0.413908
-0.417516
-0.41274
-0.400516
-0.381939
-0.358199
-0.330486
-0.299921
-0.26755
-0.234264
-0.200825
-0.167854
-0.135845
-0.10517
-0.0760974
-0.0488089
-0.0234121
3.86651e-05
0.0215302
0.041088
0.0587614
0.0746106
0.0887101
0.10115
0.11202
0.121404