# vtk DataFile Version 2.0
tracks
ASCII
DATASET POLYDATA
POINTS 780 float
-0.2 -0.2 -0.01 -0.199974 -0.200001 -0.00999582 -0.193237 -0.200373 -0.00890542 -0.187867 -0.200663
-0.00798899 -0.186442 -0.200739 -0.00773775 -0.18643 -0.20074 -0.00773577 -0.175982 -0.201298 -0.00589354
-0.162716 -0.201995 -0.00311221 -0.150039 -0.203258 0.00073472 -0.148913 -0.203445 0.0011857 -0.137707
-0.205437 0.00579049 -0.125214 -0.209478 0.0119624 -0.100375 -0.221631 0.0242457 -0.0937327 -0.225301
0.0250272 -0.0817823 -0.231385 0.0257408 -0.0754358 -0.234251 0.0259142 -0.050392 -0.245219 0.027141
-0.0349507 -0.250237 0.0277525 -0.0253543 -0.253077 0.027994 -0.000281567 -0.259792 0.0283186 0.049867
-0.270812 0.028949 0.0999577 -0.277142 0.0270901 0.149982 -0.280205 0.0242431 0.199994 -0.282555
0.0215028 0.299999 -0.287902 0.0200174 0.4 -0.289608 0.0182035 0.5 -0.290786 0.0170158
0.6 -0.291499 0.0161461 0.7 -0.291864 0.0154824 0.8 -0.292029 0.0149691 0.9
-0.292087 0.0145663 1 -0.292088 0.0142452 1.1 -0.292062 0.0139854 1.2 -0.292023
0.0137719 1.3 -0.29198 0.0135938 1.4 -0.291939 0.0134434 1.5 -0.2919 0.0133147
1.6 -0.291865 0.0132033 1.7 -0.291834 0.0131061 1.8 -0.291807 0.0130204 1.9
-0.291783 0.0129443 2 -0.291763 0.0128762 2.1 -0.291745 0.012815 2.2 -0.29173
0.0127596 2.3 -0.291717 0.0127092 2.4 -0.291705 0.0126633 2.5 -0.291695 0.0126212
2.6 -0.291687 0.0125825 2.7 -0.29168 0.0125469 2.8 -0.291673 0.012514 2.9
-0.291668 0.0124836 3 -0.291663 0.0124555 3.1 -0.291659 0.0124293 3.2 -0.291655
0.0124051 3.3 -0.291652 0.0123825 3.4 -0.291649 0.0123616 3.5 -0.291647 0.0123421
3.6 -0.291645 0.012324 3.7 -0.291643 0.0123071 3.8 -0.291642 0.0122914 3.9
-0.29164 0.0122768 4 -0.291639 0.0122633 4.1 -0.291638 0.0122507 4.2 -0.291637
0.0122391 4.3 -0.291636 0.0122283 4.4 -0.291636 0.0122184 4.5 -0.291635 0.0122092
4.6 -0.291635 0.0122007 4.7 -0.291634 0.012193 4.8 -0.291634 0.0121859 4.9
-0.291633 0.0121794 5 -0.291633 0.0121736 5.1 -0.291633 0.0121684 5.2 -0.291632
0.0121637 5.3 -0.291632 0.0121595 5.4 -0.291632 0.0121559 5.5 -0.291632 0.0121529
5.6 -0.291631 0.0121503 5.7 -0.291631 0.0121482 5.8 -0.291631 0.0121466 5.9
-0.291631 0.0121455 6 -0.291631 0.0121449 -6.91738e-17 -0.2 -0.01 0.000269431 -0.200025
-0.0100043 0.0499774 -0.204695 -0.0108066 0.0999907 -0.207857 -0.011962 0.199998 -0.213404 -0.0129228
0.3 -0.216871 -0.0133795 0.4 -0.218493 -0.0142992 0.5 -0.219504 -0.015054 0.6
-0.220081 -0.015673 0.7 -0.220385 -0.0161763 0.8 -0.220532 -0.0165847 0.9 -0.22059
-0.0169174 1 -0.220601 -0.0171904 1.1 -0.220587 -0.0174166 1.2 -0.220561 -0.0176061
1.3 -0.220531 -0.0177667 1.4 -0.2205 -0.0179041 1.5 -0.220471 -0.0180229 1.6
-0.220445 -0.0181266 1.7 -0.220421 -0.0182179 1.8 -0.220401 -0.0182988 1.9 -0.220383
-0.0183711 2 -0.220367 -0.0184361 2.1 -0.220353 -0.0184948 2.2 -0.220342 -0.0185481
2.3 -0.220331 -0.0185968 2.4 -0.220323 -0.0186413 2.5 -0.220315 -0.0186821 2.6
-0.220309 -0.0187198 2.7 -0.220303 -0.0187545 2.8 -0.220298 -0.0187866 2.9 -0.220294
-0.0188164 3 -0.22029 -0.018844 3.1 -0.220287 -0.0188696 3.2 -0.220284 -0.0188935
3.3 -0.220282 -0.0189156 3.4 -0.22028 -0.0189363 3.5 -0.220278 -0.0189555 3.6
-0.220277 -0.0189734 3.7 -0.220275 -0.01899 3.8 -0.220274 -0.0190055 3.9 -0.220273
-0.0190199 4 -0.220272 -0.0190332 4.1 -0.220271 -0.0190457 4.2 -0.22027 -0.0190572
4.3 -0.22027 -0.0190678 4.4 -0.220269 -0.0190777 4.5 -0.220269 -0.0190868 4.6
-0.220268 -0.0190952 4.7 -0.220268 -0.0191028 4.8 -0.220268 -0.0191099 4.9 -0.220267
-0.0191162 5 -0.220267 -0.019122 5.1 -0.220267 -0.0191272 5.2 -0.220267 -0.0191319
5.3 -0.220266 -0.0191359 5.4 -0.220266 -0.0191395 5.5 -0.220266 -0.0191426 5.6
-0.220266 -0.0191451 5.7 -0.220266 -0.0191472 5.8 -0.220266 -0.0191488 5.9 -0.220266
-0.0191499 6 -0.220266 -0.0191505 0.2 -0.2 -0.01 0.200029 -0.200001 -0.0100002
0.3 -0.203087 -0.0107751 0.4 -0.204674 -0.0117664 0.5 -0.205648 -0.0125668 0.6
-0.206203 -0.0132138 0.7 -0.206497 -0.0137337 0.8 -0.206641 -0.0141523 0.9 -0.2067
-0.0144915 1 -0.206713 -0.0147689 1.1 -0.206701 -0.0149982 1.2 -0.206678 -0.0151899
1.3 -0.20665 -0.0153521 1.4 -0.206622 -0.0154908 1.5 -0.206595 -0.0156106 1.6
-0.20657 -0.015715 1.7 -0.206548 -0.0158069 1.8 -0.206529 -0.0158883 1.9 -0.206512
-0.015961 2 -0.206497 -0.0160263 2.1 -0.206485 -0.0160853 2.2 -0.206474 -0.0161388
2.3 -0.206464 -0.0161876 2.4 -0.206456 -0.0162323 2.5 -0.206449 -0.0162733 2.6
-0.206443 -0.016311 2.7 -0.206438 -0.0163459 2.8 -0.206433 -0.0163781 2.9 -0.206429
-0.0164079 3 -0.206426 -0.0164356 3.1 -0.206423 -0.0164613 3.2 -0.20642 -0.0164851
3.3 -0.206418 -0.0165074 3.4 -0.206416 -0.016528 3.5 -0.206414 -0.0165473 3.6
-0.206413 -0.0165652 3.7 -0.206411 -0.0165818 3.8 -0.20641 -0.0165973 3.9 -0.206409
-0.0166117 4 -0.206408 -0.0166251 4.1 -0.206408 -0.0166376 4.2 -0.206407 -0.0166491
4.3 -0.206406 -0.0166598 4.4 -0.206406 -0.0166696 4.5 -0.206406 -0.0166787 4.6
-0.206405 -0.0166871 4.7 -0.206405 -0.0166948 4.8 -0.206404 -0.0167018 4.9 -0.206404
-0.0167082 5 -0.206404 -0.016714 5.1 -0.206404 -0.0167192 5.2 -0.206403 -0.0167238
5.3 -0.206403 -0.0167279 5.4 -0.206403 -0.0167315 5.5 -0.206403 -0.0167346 5.6
-0.206403 -0.0167371 5.7 -0.206403 -0.0167392 5.8 -0.206403 -0.0167408 5.9 -0.206403
-0.0167419 6 -0.206402 -0.0167425 0.4 -0.2 -0.01 0.4 -0.2 -0.01
0.4 -0.2 -0.01 0.5 -0.200962 -0.0108289 0.6 -0.20151 -0.0114935 0.7
-0.201802 -0.0120241 0.8 -0.201945 -0.0124494 0.9 -0.202004 -0.0127929 1 -0.202018
-0.0130732 1.1 -0.202007 -0.0133045 1.2 -0.201985 -0.0134977 1.3 -0.201958 -0.013661
1.4 -0.20193 -0.0138005 1.5 -0.201904 -0.0139209 1.6 -0.20188 -0.0140259 1.7
-0.201859 -0.0141181 1.8 -0.20184 -0.0141999 1.9 -0.201823 -0.0142728 2 -0.201809
-0.0143383 2.1 -0.201797 -0.0143975 2.2 -0.201786 -0.0144512 2.3 -0.201777 -0.0145001
2.4 -0.201769 -0.0145448 2.5 -0.201762 -0.0145859 2.6 -0.201756 -0.0146237 2.7
-0.201751 -0.0146586 2.8 -0.201746 -0.0146909 2.9 -0.201742 -0.0147208 3 -0.201739
-0.0147485 3.1 -0.201736 -0.0147742 3.2 -0.201734 -0.0147981 3.3 -0.201731 -0.0148204
3.4 -0.201729 -0.014841 3.5 -0.201728 -0.0148603 3.6 -0.201726 -0.0148782 3.7
-0.201725 -0.0148949 3.8 -0.201724 -0.0149104 3.9 -0.201723 -0.0149248 4 -0.201722
-0.0149382 4.1 -0.201721 -0.0149507 4.2 -0.201721 -0.0149622 4.3 -0.20172 -0.0149729
4.4 -0.20172 -0.0149828 4.5 -0.201719 -0.0149919 4.6 -0.201719 -0.0150003 4.7
-0.201718 -0.015008 4.8 -0.201718 -0.015015 4.9 -0.201718 -0.0150214 5 -0.201718
-0.0150272 5.1 -0.201717 -0.0150324 5.2 -0.201717 -0.015037 5.3 -0.201717 -0.0150411
5.4 -0.201717 -0.0150447 5.5 -0.201717 -0.0150477 5.6 -0.201717 -0.0150503 5.7
-0.201716 -0.0150524 5.8 -0.201716 -0.0150539 5.9 -0.201716 -0.015055 6 -0.201716
-0.0150556 -0.2 3.54365e-17 -0.01 -0.196553 -1.34062e-06 -0.00960111 -0.187694 -4.78724e-06 -0.0086577
-0.179316 -7.7854e-06 -0.00795315 -0.174909 -9.1233e-06 -0.00765259 -0.149641 -1.61712e-05 -0.00609751 -0.124808
-2.0433e-05 -0.00801046 -0.0999096 -2.42916e-05 -0.0105085 -0.0499769 -3.18751e-05 -0.0140924 5.64245e-06 -3.92379e-05
-0.0169232 0.100001 -5.05685e-05 -0.0194854 0.2 -5.50653e-05 -0.0215045 0.3 -5.70492e-05 -0.0229124
0.4 -5.78634e-05 -0.0239191 0.5 -5.81602e-05 -0.0246836 0.6 -5.82149e-05 -0.0252827 0.7
-5.81585e-05 -0.0257608 0.8 -5.80582e-05 -0.0261471 0.9 -5.79451e-05 -0.0264625 1 -5.78355e-05
-0.0267227 1.1 -5.7733e-05 -0.0269398 1.2 -5.76382e-05 -0.0271228 1.3 -5.75557e-05 -0.0272786
1.4 -5.74837e-05 -0.0274127 1.5 -5.7418e-05 -0.027529 1.6 -5.73602e-05 -0.0276308 1.7
-5.73126e-05 -0.0277206 1.8 -5.72722e-05 -0.0278005 1.9 -5.72359e-05 -0.0278719 2 -5.72039e-05
-0.0279362 2.1 -5.71765e-05 -0.0279944 2.2 -5.71529e-05 -0.0280473 2.3 -5.71319e-05 -0.0280955
2.4 -5.71141e-05 -0.0281397 2.5 -5.70982e-05 -0.0281804 2.6 -5.70837e-05 -0.0282178 2.7
-5.70715e-05 -0.0282523 2.8 -5.70601e-05 -0.0282843 2.9 -5.70493e-05 -0.0283139 3 -5.70391e-05
-0.0283414 3.1 -5.70296e-05 -0.028367 3.2 -5.70215e-05 -0.0283907 3.3 -5.70141e-05 -0.0284128
3.4 -5.70064e-05 -0.0284334 3.5 -5.6998e-05 -0.0284525 3.6 -5.69885e-05 -0.0284704 3.7
-5.69801e-05 -0.0284869 3.8 -5.69723e-05 -0.0285024 3.9 -5.69636e-05 -0.0285167 4 -5.69548e-05
-0.0285301 4.1 -5.69461e-05 -0.0285425 4.2 -5.69373e-05 -0.0285539 4.3 -5.69257e-05 -0.0285646
4.4 -5.69103e-05 -0.0285744 4.5 -5.68921e-05 -0.0285835 4.6 -5.68712e-05 -0.0285918 4.7
-5.68457e-05 -0.0285995 4.8 -5.68162e-05 -0.0286065 4.9 -5.67821e-05 -0.0286128 5 -5.67439e-05
-0.0286186 5.1 -5.67045e-05 -0.0286238 5.2 -5.66639e-05 -0.0286284 5.3 -5.66224e-05 -0.0286325
5.4 -5.65785e-05 -0.028636 5.5 -5.65304e-05 -0.0286391 5.6 -5.64808e-05 -0.0286416 5.7
-5.64339e-05 -0.0286437 5.8 -5.63882e-05 -0.0286452 5.9 -5.63471e-05 -0.0286463 6 -5.63227e-05
-0.0286469 -1.61646e-16 3.29607e-17 -0.01 6.19886e-06 -6.26225e-10 -0.0100002 0.000142544 -1.44e-08 -0.0100046
0.100001 -9.97679e-06 -0.0134827 0.2 -1.40872e-05 -0.0156946 0.3 -1.57062e-05 -0.0172183 0.4
-1.62416e-05 -0.0182976 0.5 -1.63583e-05 -0.0191094 0.6 -1.63054e-05 -0.0197403 0.7 -1.61888e-05
-0.0202403 0.8 -1.60576e-05 -0.0206418 0.9 -1.59309e-05 -0.0209681 1 -1.58173e-05 -0.0212362
1.1 -1.57162e-05 -0.0214591 1.2 -1.56256e-05 -0.0216463 1.3 -1.55485e-05 -0.0218054 1.4
-1.54821e-05 -0.0219419 1.5 -1.54219e-05 -0.0220602 1.6 -1.5369e-05 -0.0221635 1.7 -1.53259e-05
-0.0222545 1.8 -1.52894e-05 -0.0223353 1.9 -1.52568e-05 -0.0224076 2 -1.52278e-05 -0.0224725
2.1 -1.52031e-05 -0.0225312 2.2 -1.51816e-05 -0.0225845 2.3 -1.51626e-05 -0.0226331 2.4
-1.51465e-05 -0.0226776 2.5 -1.5132e-05 -0.0227185 2.6 -1.51187e-05 -0.0227561 2.7 -1.51075e-05
-0.0227909 2.8 -1.5097e-05 -0.022823 2.9 -1.50869e-05 -0.0228528 3 -1.50773e-05 -0.0228804
3.1 -1.50684e-05 -0.022906 3.2 -1.50607e-05 -0.0229299 3.3 -1.50537e-05 -0.022952 3.4
-1.50464e-05 -0.0229727 3.5 -1.50384e-05 -0.0229919 3.6 -1.50291e-05 -0.0230097 3.7 -1.50208e-05
-0.0230264 3.8 -1.50132e-05 -0.0230419 3.9 -1.50046e-05 -0.0230562 4 -1.49959e-05 -0.0230696
4.1 -1.49873e-05 -0.023082 4.2 -1.49786e-05 -0.0230935 4.3 -1.49671e-05 -0.0231042 4.4
[...]
POINT_DATA 780
FIELD attributes 2
age 1 780 float
0 2.61434e-06 0.000684919 0.00127357 0.00143901 0.00144033 0.00266136 0.0044847 0.00600499 0.00613503 0.00744672
0.0092149 0.0132626 0.0143552 0.016244 0.0171838 0.0208153 0.0228858 0.0241608 0.0274592 0.0338767
0.0398197 0.0453967 0.050987 0.0620318 0.0724798 0.0827537 0.0929614 0.103118 0.113237 0.123329
0.133401 0.143459 0.153505 0.163543 0.173574 0.1836 0.193622 0.20364 0.213655 0.223668
0.233679 0.243688 0.253696 0.263703 0.273709 0.283714 0.293719 0.303723 0.313726 0.323729
0.333732 0.343734 0.353736 0.363738 0.373739 0.383741 0.393742 0.403743 0.413744 0.423745
0.433745 0.443746 0.453746 0.463747 0.473747 0.483748 0.493748 0.503748 0.513748 0.523749
0.533749 0.543749 0.553749 0.563749 0.573749 0.583749 0.593749 0.603749 0.613749 0.623749
0.633749 0 3.0349e-05 0.0056298 0.0112108 0.0221883 0.0328533 0.0431767 0.0534158 0.0636001
0.0737433 0.0838554 0.0939442 0.104015 0.114073 0.12412 0.134158 0.14419 0.154217 0.164239
0.174257 0.184273 0.194286 0.204298 0.214308 0.224316 0.234323 0.244329 0.254335 0.26434
0.274344 0.284347 0.29435 0.304353 0.314355 0.324357 0.334359 0.344361 0.354362 0.364363
0.374365 0.384365 0.394366 0.404367 0.414368 0.424368 0.434369 0.444369 0.45437 0.46437
0.47437 0.48437 0.494371 0.504371 0.514371 0.524371 0.534371 0.544371 0.554371 0.564372
0.574372 0.584372 0.594372 0.604372 0 3.08413e-06 0.0105847 0.0208921 0.0311233 0.0413024
0.0514422 0.0615524 0.0716401 0.0817106 0.0917677 0.101814 0.111853 0.121885 0.131911 0.141933
0.151952 0.161968 0.171981 0.181993 0.192002 0.202011 0.212018 0.222024 0.23203 0.242034
0.252038 0.262042 0.272045 0.282048 0.29205 0.302052 0.312054 0.322056 0.332057 0.342058
0.352059 0.36206 0.372061 0.382062 0.392063 0.402063 0.412064 0.422064 0.432064 0.442065
0.452065 0.462065 0.472066 0.482066 0.492066 0.502066 0.512066 0.522066 0.532066 0.542066
0.552066 0.562066 0.572066 0.582066 0 0 0 0.0102286 0.020406 0.0305447
0.0406543 0.0507415 0.0608117 0.0708687 0.0809153 0.0909537 0.100985 0.111012 0.121034 0.131053
0.141069 0.151082 0.161093 0.171103 0.181112 0.191119 0.201125 0.21113 0.221135 0.231139
0.241143 0.251146 0.261149 0.271151 0.281153 0.291155 0.301156 0.311158 0.321159 0.33116
0.341161 0.351162 0.361163 0.371163 0.381164 0.391164 0.401165 0.411165 0.421166 0.431166
0.441166 0.451166 0.461167 0.471167 0.481167 0.491167 0.501167 0.511167 0.521167 0.531167
0.541167 0.551167 0.561167 0 0.000440783 0.00157911 0.00266519 0.00324234 0.00656414 0.00969073
0.0125482 0.0180831 0.023471 0.0341846 0.0445326 0.0547694 0.0649675 0.0751361 0.0852776 0.0953954
0.105493 0.115574 0.125641 0.135696 0.145742 0.15578 0.165812 0.175839 0.185862 0.195881
0.205897 0.21591 0.225922 0.235932 0.245941 0.255948 0.265955 0.27596 0.285965 0.295969
0.305973 0.315976 0.325979 0.335981 0.345983 0.355985 0.365987 0.375988 0.38599 0.395991
0.405992 0.415993 0.425993 0.435994 0.445995 0.455995 0.465996 0.475996 0.485996 0.495997
0.505997 0.515997 0.525997 0.535998 0.545998 0.555998 0.565998 0.575998 0.585998 0.595998
0.605998 0.615998 0.625998 0 6.62871e-07 1.52428e-05 0.0106583 0.0210082 0.0312439 0.0414414
0.0516095 0.0617506 0.0718681 0.0819654 0.092046 0.102113 0.112168 0.122214 0.132252 0.142284
0.15231 0.162333 0.172352 0.182368 0.192382 0.202393 0.212403 0.222412 0.232419 0.242426
0.252431 0.262436 0.27244 0.282444 0.292447 0.30245 0.312452 0.322454 0.332456 0.342458
0.352459 0.362461 0.372462 0.382463 0.392464 0.402464 0.412465 0.422466 0.432466 0.442466
0.452467 0.462467 0.472468 0.482468 0.492468 0.502468 0.512468 0.522469 0.532469 0.542469
0.552469 0.562469 0.572469 0.582469 0.592469 0.602469 0 0 4.19117e-06 0.0102347
0.0204316 0.0305993 0.04074 0.0508571 0.0609542 0.0710345 0.0811009 0.0911559 0.101202 0.11124
0.121271 0.131298 0.14132 0.151339 0.161355 0.171369 0.181381 0.191391 0.201399 0.211407
0.221413 0.231419 0.241423 0.251428 0.261431 0.271434 0.281437 0.29144 0.301442 0.311443
0.321445 0.331447 0.341448 0.351449 0.36145 0.371451 0.381452 0.391452 0.401453 0.411453
0.421454 0.431454 0.441454 0.451455 0.461455 0.471455 0.481455 0.491456 0.501456 0.511456
0.521456 0.531456 0.541456 0.551456 0.561456 0.571456 0.571458 0.581456 0 2.25754e-17
7.73285e-06 0.0101674 0.0156554 0.0203021 0.0304191 0.040516 0.0505961 0.0606624 0.0707173 0.0807629
0.0908009 0.100833 0.110859 0.120882 0.130901 0.140917 0.15093 0.160942 0.170952 0.18096
0.190968 0.200974 0.21098 0.220984 0.230989 0.240992 0.250995 0.260998 0.271001 0.281003
0.291004 0.301006 0.311008 0.321009 0.33101 0.341011 0.351012 0.361013 0.371013 0.381014
0.391014 0.401015 0.411015 0.421015 0.431016 0.441016 0.451016 0.461016 0.471017 0.481017
0.491017 0.501017 0.511017 0.521017 0.531017 0.541017 0.551017 0.561017 0 2.50036e-06
0.000684333 0.00127406 0.00265418 0.00447808 0.0059996 0.00613223 0.0074427 0.00921239 0.0132655 0.0143532
0.0166926 0.0172053 0.0208364 0.022819 0.0241764 0.0274705 0.0338835 0.0398651 0.0454406 0.0510311
0.0620747 0.0725391 0.0828134 0.0930211 0.103178 0.113297 0.123389 0.133461 0.143519 0.153565
0.163603 0.173634 0.18366 0.193682 0.2037 0.213715 0.223728 0.233739 0.243748 0.253757
0.263763 0.273769 0.283775 0.293779 0.303783 0.313787 0.32379 0.333792 0.343794 0.353796
0.363798 0.3738 0.383801 0.393802 0.403803 0.413804 0.423805 0.433806 0.443806 0.453807
0.463807 0.473808 0.483808 0.493808 0.503809 0.513809 0.523809 0.533809 0.543809 0.553809
0.56381 0.57381 0.58381 0.59381 0.60381 0.61381 0.62381 0.63381 0 2.91864e-05
0.00562653 0.0112055 0.022181 0.0328452 0.0431754 0.0534148 0.0635997 0.0737433 0.0838557 0.0939446
0.104016 0.114073 0.12412 0.134159 0.144191 0.154217 0.164239 0.174258 0.184274 0.194287
0.204298 0.214308 0.224317 0.234324 0.24433 0.254335 0.26434 0.274344 0.284348 0.294351
0.304354 0.314356 0.324358 0.33436 0.344361 0.354363 0.364364 0.374365 0.384366 0.394367
0.404368 0.414368 0.424369 0.434369 0.44437 0.45437 0.464371 0.474371 0.484371 0.494371
0.504371 0.514372 0.524372 0.534372 0.544372 0.554372 0.564372 0.574372 0.584372 0.594372
0.604372 0 3.08322e-06 0.0105841 0.0208929 0.0311242 0.0413034 0.0514435 0.0615538 0.0716415
0.081712 0.0917691 0.101816 0.111854 0.121886 0.131913 0.141935 0.151953 0.161969 0.171983
0.181994 0.192004 0.202012 0.212019 0.222026 0.232031 0.242036 0.25204 0.262043 0.272046
0.282049 0.292052 0.302054 0.312055 0.322057 0.332058 0.34206 0.352061 0.362062 0.372063
0.382063 0.392064 0.402065 0.412065 0.422065 0.432066 0.442066 0.452067 0.462067 0.472067
0.482067 0.492067 0.502067 0.512068 0.522068 0.532068 0.542068 0.552068 0.562068 0.572068
0.582068 0 4.54203e-17 0.0102286 0.0204059 0.0305447 0.0406543 0.0507416 0.0608118 0.0708688
0.0809154 0.0909538 0.100986 0.111012 0.121034 0.131053 0.141069 0.151082 0.161094 0.171103
0.181112 0.191119 0.201125 0.211131 0.221135 0.231139 0.241143 0.251146 0.261149 0.271151
0.281153 0.291155 0.301157 0.311158 0.321159 0.33116 0.341161 0.351162 0.361163 0.371163
0.381164 0.391165 0.401165 0.411165 0.421166 0.431166 0.441166 0.451166 0.461167 0.471167
0.481167 0.491167 0.501167 0.511167 0.521167 0.531167 0.541167 0.551167 0.561167 
U 3 780 float
9.87371 -0.54443 1.59764 9.87411 -0.544403 1.59811 9.1231 -0.492821 1.55685 8.61371 -0.460094
1.51854 8.55813 -0.457126 1.50874 8.55682 -0.457051 1.50875 7.27565 -0.382456 1.5254
8.33871 -0.830703 2.53041 8.65881 -1.43795 3.46807 8.54299 -1.5188 3.51055 7.06542
-2.28535 3.49057 6.13662 -3.0023 3.03462 6.07966 -3.35927 0.715358 6.32692 -3.221
0.37775 6.75289 -3.05023 0.184602 6.89632 -3.02008 0.337803 7.45772 -2.42369 0.295341
7.52667 -2.22789 0.189395 7.60153 -2.03576 0.0984176 7.81426 -1.71714 0.0982424 8.42854
-1.06514 -0.312802 8.96962 -0.549273 -0.510485 8.94622 -0.42021 -0.49019 9.05453 -0.484187
-0.134484 9.57137 -0.163245 -0.173613 9.73337 -0.114702 -0.115609 9.79655 -0.0698676 -0.0851948
9.84563 -0.0358928 -0.0653455 9.88228 -0.0163154 -0.050728 9.9089 -0.00572672 -0.0399155 9.92832
-0.000137966 -0.0318741 9.94279 0.00265496 -0.0258354 9.95381 0.00386901 -0.0212525 9.96234 0.00423201
-0.0177374 9.96901 0.00415465 -0.0150003 9.9743 0.00386536 -0.0128387 9.97854 0.00348884 -0.0111089
9.98198 0.00309211 -0.00970656 9.98478 0.00271022 -0.00855588 9.98709 0.00235894 -0.00760027 9.989
0.00204441 -0.00679842 9.99059 0.00176755 -0.00611835 9.99193 0.00152574 -0.00553541 9.99305 0.00131641
-0.00503187 9.994 0.00113609 -0.00459282 9.99481 0.000980673 -0.00420671 9.9955 0.000847092 -0.00386509
9.99608 0.000732518 -0.00356033 9.99659 0.000633735 -0.00328698 9.99703 0.000548659 -0.00304005 9.9974
0.000475604 -0.00281585 9.99773 0.000412711 -0.00261213 9.99801 0.000358634 -0.00242561 9.99825 0.00031175
-0.00225375 9.99847 0.000270935 -0.00209523 9.99865 0.000235841 -0.0019488 9.99882 0.000205565 -0.00181279
9.99897 0.000179257 -0.00168594 9.99909 0.000156468 -0.00156782 9.9992 0.000136498 -0.0014575 9.9993
0.000118975 -0.00135372 9.99939 0.000104186 -0.00125605 9.99947 9.15504e-05 -0.00116435 9.99953 8.03167e-05
-0.00107784 9.99959 7.05089e-05 -0.000996008 9.99965 6.17363e-05 -0.000918515 9.99969 5.43576e-05 -0.000844911
9.99974 4.78956e-05 -0.000775063 9.99977 4.22909e-05 -0.000708378 9.9998 3.74295e-05 -0.000644467 9.99984
3.33615e-05 -0.000583394 9.99986 3.02776e-05 -0.000524661 9.99988 2.73426e-05 -0.000468066 9.9999 2.46493e-05
-0.000413237 9.99992 2.22887e-05 -0.000359961 9.99994 1.99562e-05 -0.000308466 9.99995 1.76464e-05 -0.000258229
9.99996 1.54033e-05 -0.000208524 9.99997 1.25939e-05 -0.000159336 9.99998 9.47988e-06 -0.000111149 10
5.86673e-06 -5.96718e-05 10 3.72483e-06 -3.20084e-05 8.87777 -0.835256 -0.142166 8.8773 -0.834006
-0.143288 8.96136 -0.566484 -0.207011 9.11016 -0.505288 -0.0875252 9.37673 -0.325068 -0.0428228
9.68669 -0.157129 -0.0890878 9.76653 -0.0987342 -0.0737155 9.81895 -0.0566995 -0.0607849 9.8589
-0.0299992 -0.0496196 9.8891 -0.014464 -0.0403904 9.91197 -0.0057926 -0.0329749 9.9294 -0.00107321
-0.0271051 9.94284 0.00140561 -0.0224923 9.95335 0.00257852 -0.0188634 9.96165 0.00301042 -0.015993
9.96827 0.0030459 -0.0136999 9.97358 0.00288168 -0.0118504 9.97788 0.00262788 -0.0103459 9.98139
0.00234481 -0.00910909 9.98426 0.00206417 -0.00808179 9.98663 0.00180192 -0.00721977 9.9886 0.00156485
-0.00648993 9.99025 0.00135478 -0.00586592 9.99163 0.00117078 -0.00532727 9.99279 0.00101081 -0.00485869
9.99378 0.000872656 -0.00444783 9.99461 0.000753441 -0.00408472 9.99532 0.000650826 -0.00376175 9.99593
0.00056292 -0.00347238 9.99645 0.000486964 -0.00321157 9.9969 0.000421475 -0.00297518 9.99729 0.00036567
-0.00275998 9.99763 0.00031752 -0.00256349 9.99792 0.000275612 -0.00238303 9.99818 0.000239445 -0.00221662
9.9984 0.000208295 -0.00206277 9.99859 0.000181231 -0.00192013 9.99876 0.000157852 -0.00178727 9.99891
0.000137894 -0.00166336 9.99904 0.000120407 -0.00154777 9.99916 0.000105034 -0.00143967 9.99926 9.13853e-05
-0.00133782 9.99935 7.99205e-05 -0.0012418 9.99943 7.06184e-05 -0.0011517 9.9995 6.20546e-05 -0.00106645
9.99956 5.43145e-05 -0.000985662 9.99962 4.77755e-05 -0.000909229 9.99967 4.22688e-05 -0.000836554 9.99971
3.73711e-05 -0.000767463 9.99975 3.33251e-05 -0.000701593 9.99978 2.97559e-05 -0.000638314 9.99981 2.65067e-05
-0.000577756 9.99984 2.40588e-05 -0.000519703 9.99986 2.18758e-05 -0.000463803 9.99989 1.99406e-05 -0.000409667
9.9999 1.81829e-05 -0.000356987 9.99992 1.6463e-05 -0.000305689 9.99993 1.47288e-05 -0.000255642 9.99995
1.30467e-05 -0.000206525 9.99996 1.07527e-05 -0.000157902 9.99997 8.05008e-06 -0.000110046 9.99998 5.0275e-06
-5.88452e-05 9.99999 3.20249e-06 -3.1331e-05 9.44752 -0.29171 -0.0732223 9.4476 -0.291666 -0.0732289
9.70175 -0.153922 -0.0961777 9.77406 -0.0951861 -0.0782228 9.82407 -0.0545344 -0.0635647 9.86209
-0.0290617 -0.0512756 9.891 -0.0141854 -0.0414049 9.91308 -0.00583888 -0.0336258 9.93004 -0.00127312
-0.0275433 9.94319 0.00114858 -0.0227981 9.95353 0.00231386 -0.0190836 9.96173 0.00275942 -0.0161563
9.9683 0.00281765 -0.013824 9.97358 0.00267894 -0.0119466 9.97786 0.00245031 -0.0104215 9.98136
0.00219066 -0.0091694 9.98423 0.00193093 -0.00813034 9.98661 0.00168712 -0.00725919 9.98858 0.00146607
-0.00652221 9.99023 0.00126982 -0.00589258 9.99162 0.00109774 -0.00534942 9.99278 0.000947965 -0.00487719
9.99377 0.000818536 -0.00446337 9.9946 0.000706798 -0.00409785 9.99531 0.000610558 -0.00377289 9.99592
0.000528131 -0.0034819 9.99645 0.000456874 -0.00321973 9.9969 0.000395422 -0.00298221 9.99729 0.00034315
-0.00276604 9.99763 0.000298006 -0.00256874 9.99792 0.0002586 -0.00238758 9.99818 0.00022465 -0.00222059
9.9984 0.000195471 -0.00206626 9.99859 0.000170056 -0.0019232 9.99876 0.000148138 -0.00178995 9.99891
0.000129463 -0.00166575 9.99904 0.000113031 -0.00154989 9.99916 9.8582e-05 -0.00144152 9.99926 8.57388e-05
-0.00133947 9.99935 7.49949e-05 -0.00124328 9.99943 6.63479e-05 -0.00115299 9.9995 5.83078e-05 -0.0010676
9.99956 5.10234e-05 -0.000986691 9.99962 4.49409e-05 -0.000910149 9.99967 3.98127e-05 -0.000837359 9.99971
3.52363e-05 -0.000768161 9.99975 3.14919e-05 -0.000702198 9.99978 2.8203e-05 -0.00063886 9.99981 2.51617e-05
-0.000578251 9.99984 2.28444e-05 -0.000520126 9.99987 2.07871e-05 -0.000464175 9.99989 1.90134e-05 -0.000409975
9.9999 1.73785e-05 -0.000357236 9.99992 1.57986e-05 -0.000305864 9.99993 1.4188e-05 -0.000255761 9.99995
1.25947e-05 -0.000206623 9.99996 1.04172e-05 -0.000157973 9.99997 7.81371e-06 -0.000110077 9.99998 4.90137e-06
-5.88256e-05 9.99999 3.12611e-06 -3.12925e-05 9.77648 -0.0940341 -0.0810386 9.77648 -0.0940341 -0.0810386
9.77648 -0.0940341 -0.0810386 9.82574 -0.0538991 -0.0652977 9.86316 -0.0287944 -0.0523353 9.89165
-0.0141123 -0.0420677 9.91348 -0.0058635 -0.0340564 9.93028 -0.00134493 -0.0278348 9.94334 0.00105931
-0.0230019 9.95361 0.00222273 -0.0192301 9.96178 0.00267327 -0.0162645 9.96832 0.00273941 -0.0139059
9.97359 0.0026095 -0.0120098 9.97787 0.00238952 -0.010471 9.98137 0.0021379 -0.00920865 9.98423
0.00188535 -0.00816182 9.98661 0.00164785 -0.00728466 9.98858 0.0014323 -0.00654301 9.99023 0.00124077
-0.00590971 9.99162 0.00107278 -0.00536362 9.99278 0.00092649 -0.00488902 9.99376 0.000800047 -0.00447331
9.9946 0.000690866 -0.00410623 9.99531 0.000596805 -0.00378 9.99592 0.000516252 -0.00348796 9.99645
0.000446601 -0.00322493 9.9969 0.000386528 -0.00298667 9.99729 0.000335462 -0.0027699 9.99763 0.000291345
-0.00257208 9.99792 0.000252795 -0.00239049 9.99818 0.000219602 -0.00222313 9.9984 0.000191094 -0.00206848
9.99859 0.000166243 -0.00192516 9.99876 0.000144824 -0.00179167 9.99891 0.000126586 -0.00166728 9.99904
0.000110515 -0.00155124 9.99916 9.63822e-05 -0.00144271 9.99926 8.38128e-05 -0.00134054 9.99935 7.33145e-05
-0.00124423 9.99943 6.48921e-05 -0.00115383 9.9995 5.7031e-05 -0.00106835 9.99956 4.99018e-05 -0.000987364
9.99962 4.39751e-05 -0.00091075 9.99967 3.89769e-05 -0.00083789 9.99971 3.45105e-05 -0.00076863 9.99975
3.08693e-05 -0.000702611 9.99978 2.76756e-05 -0.000639229 9.99982 2.47051e-05 -0.000578584 9.99984 2.2433e-05
-0.000520417 9.99987 2.04176e-05 -0.000464431 9.99989 1.86987e-05 -0.000410192 9.99991 1.71063e-05 -0.000357414
9.99992 1.55771e-05 -0.000306001 9.99993 1.40093e-05 -0.000255865 9.99995 1.24441e-05 -0.000206707 9.99996
1.03056e-05 -0.000158032 9.99997 7.73637e-06 -0.000110112 9.99998 4.86227e-06 -5.88339e-05 9.99999 3.10413e-06
-3.12911e-05 7.81906 -0.00304145 0.90495 7.78274 -0.0030278 0.828772 7.71453 -0.00276052 0.648709
7.63468 -0.00231813 0.520777 7.60672 -0.00212171 0.468141 7.94256 -0.00136308 -0.61183 8.71338
-0.00135034 -0.874213 9.02148 -0.00137014 -0.647517 9.27672 -0.00136652 -0.52539 9.33351 -0.0010576
-0.239157 9.6636 -0.000434551 -0.195113 9.76875 -0.000193805 -0.137532 9.80568 -7.98436e-05 -0.0987197
9.83424 -2.9179e-05 -0.0751772 9.8605 -5.39986e-06 -0.0590797 9.88357 5.57385e-06 -0.0472528 9.90327
9.93963e-06 -0.0382515 9.91985 1.12123e-05 -0.031287 9.93363 1.08904e-05 -0.0258552 9.94498 1.01935e-05
-0.0215877 9.95426 9.43722e-06 -0.018214 9.96187 8.22071e-06 -0.0155253 9.96812 7.1726e-06 -0.0133595
9.97326 6.54874e-06 -0.0115988 9.97749 5.77038e-06 -0.0101579 9.98099 4.75246e-06 -0.00896704 9.98388
4.0361e-06 -0.00797254 9.98629 3.61772e-06 -0.00713449 9.98829 3.19723e-06 -0.00642231 9.98998 2.73618e-06
-0.00581179 9.99139 2.36358e-06 -0.00528387 9.99258 2.10037e-06 -0.00482306 9.9936 1.77545e-06 -0.00441804
9.99445 1.58623e-06 -0.00405983 9.99519 1.44814e-06 -0.0037409 9.99582 1.22337e-06 -0.00345478 9.99635
1.13575e-06 -0.00319613 9.99681 1.08712e-06 -0.00296193 9.99722 1.02117e-06 -0.00274891 9.99756 9.42732e-07
-0.00255375 9.99786 8.16998e-07 -0.0023742 9.99812 7.40393e-07 -0.00220888 9.99835 7.63718e-07 -0.00205604
9.99855 8.38157e-07 -0.0019141 9.99872 9.52174e-07 -0.00178219 9.99888 8.45564e-07 -0.00165862 9.99901
7.79916e-07 -0.00154307 9.99913 8.66475e-07 -0.00143553 9.99923 8.82912e-07 -0.00133436 9.99933 8.689e-07
-0.00123868 9.99941 8.79765e-07 -0.00114844 9.99948 1.15316e-06 -0.00106345 9.99955 1.5401e-06 -0.000983043
9.9996 1.82316e-06 -0.000906671 9.99965 2.09101e-06 -0.000834275 9.9997 2.55192e-06 -0.000765406 9.99974
2.94606e-06 -0.000699383 9.99977 3.41046e-06 -0.000636261 9.99981 3.81736e-06 -0.000576123 9.99983 3.94051e-06
-0.000518224 9.99986 4.06125e-06 -0.000462221 9.99988 4.14758e-06 -0.000408119 9.9999 4.39827e-06 -0.000355471
9.99991 4.80578e-06 -0.000304093 9.99993 4.95558e-06 -0.000254145 9.99994 4.68881e-06 -0.000205199 9.99995
4.57959e-06 -0.000156938 9.99996 4.10969e-06 -0.00010956 9.99998 2.43202e-06 -5.85645e-05 9.99999 1.31036e-06
-3.10059e-05 9.35153 -0.000944717 -0.301035 9.35153 -0.000944709 -0.30099 9.38246 -0.000936044 -0.326793
9.66191 -0.000397151 -0.213718 9.7697 -0.00015817 -0.148856 9.8063 -5.2499e-05 -0.105846 9.83467
-1.14759e-05 -0.0798364 9.86088 5.20947e-06 -0.0622136 9.88391 1.15274e-05 -0.0494114 9.90357 1.29969e-05
-0.0397671 9.9201 1.25686e-05 -0.0323681 9.93384 1.12824e-05 -0.0266371 9.94515 1.00539e-05 -0.0221612
9.9544 9.01995e-06 -0.0186415 9.96199 7.68181e-06 -0.0158486 9.96821 6.61209e-06 -0.0136074 9.97334
6.01128e-06 -0.0117914 9.97756 5.27242e-06 -0.0103091 9.98104 4.30482e-06 -0.00908699 9.98393 3.64001e-06
-0.00806861 9.98633 3.26409e-06 -0.00721209 9.98833 2.88756e-06 -0.00648551 9.99001 2.47714e-06 -0.00586367
9.99142 2.13927e-06 -0.00532676 9.99261 1.90146e-06 -0.00485874 9.99362 1.61031e-06 -0.0044479 9.99447
1.44816e-06 -0.00408497 9.9952 1.32581e-06 -0.00376218 9.99583 1.11914e-06 -0.00347289 9.99636 1.05046e-06
-0.00321161 9.99683 1.01292e-06 -0.0029752 9.99723 9.57948e-07 -0.00276038 9.99757 8.88564e-07 -0.0025637
9.99787 7.69588e-07 -0.00238285 9.99813 7.02519e-07 -0.00221643 9.99836 7.26513e-07 -0.00206264 9.99856
8.01838e-07 -0.0019199 9.99873 9.28064e-07 -0.00178733 9.99888 8.31494e-07 -0.00166317 9.99902 7.67378e-07
-0.00154708 9.99914 8.5423e-07 -0.0014391 9.99924 8.70439e-07 -0.00133755 9.99933 8.60745e-07 -0.00124152
9.99941 8.73876e-07 -0.00115099 9.99949 1.14134e-06 -0.00106573 9.99955 1.53764e-06 -0.000985067 9.99961
1.83183e-06 -0.000908493 9.99966 2.09498e-06 -0.000835919 9.9997 2.5487e-06 -0.00076688 9.99974 2.94201e-06
-0.000700688 9.99978 3.4093e-06 -0.000637413 9.99981 3.81673e-06 -0.00057715 9.99983 3.94296e-06 -0.000519143
9.99986 4.07148e-06 -0.000463028 9.99988 4.16354e-06 -0.00040882 9.9999 4.4251e-06 -0.000356072 9.99991
4.82911e-06 -0.000304599 9.99993 4.96607e-06 -0.000254553 9.99994 4.70334e-06 -0.000205515 9.99995 4.59642e-06
-0.000157178 9.99996 4.11655e-06 -0.000109713 9.99998 2.42338e-06 -5.86454e-05 9.99999 1.29295e-06 -3.10616e-05
9.77063 -0.00014864 -0.159951 9.77063 -0.00014864 -0.159951 9.77064 -0.000148595 -0.159928 9.8069
-4.38821e-05 -0.112829 9.83509 -5.65131e-06 -0.0844019 9.86125 8.77126e-06 -0.0652849 9.88424 1.3547e-05
-0.0515269 9.90386 1.40249e-05 -0.0412525 9.92034 1.30166e-05 -0.0334277 9.93404 1.14059e-05 -0.0274034
9.94532 1.00003e-05 -0.0227233 9.95454 8.87212e-06 -0.0190605 9.9621 7.49056e-06 -0.0161654 9.9683
6.41839e-06 -0.0138504 9.97341 5.8287e-06 -0.0119802 9.97762 5.10267e-06 -0.0104573 9.98109 4.15283e-06