/*--------------------------------*- C++ -*----------------------------------*\
  =========                 |
  \\      /  F ield         | OpenFOAM: The Open Source CFD Toolbox
   \\    /   O peration     | Website:  https://openfoam.org
    \\  /    A nd           | Version:  11
     \\/     M anipulation  |
\*---------------------------------------------------------------------------*/
FoamFile
{
    format      ascii;
    class       volScalarField;
    object      T;
}
// * * * * * * * * * * * * * * * * * * * * * * * * * * * * * * * * * * * * * //

dimensions      [0 0 0 1 0 0 0];

internalField   uniform 288.15; // 15°C

boundaryField
{
    inlet
    {
        type            fixedValue;
        value           uniform 288.15;
    }
    
    outlet
    {
        type            zeroGradient;
    }
    
    bottom
    {
        type            zeroGradient;
    }
    
    top
    {
        type            zeroGradient;
    }
    
    sides
    {
        type            zeroGradient;
    }
    
    mclarenWing
    {
        type            zeroGradient;
    }
}

// * * * * * * * * * * * * * * * * * * * * * * * * * * * * * * * * * * * * * //