/*--------------------------------*- C++ -*----------------------------------*\
  =========                 |
  \\      /  F ield         | OpenFOAM: The Open Source CFD Toolbox
   \\    /   O peration     | Website:  https://openfoam.org
    \\  /    A nd           | Version:  11
     \\/     M anipulation  |
\*---------------------------------------------------------------------------*/
FoamFile
{
    format      ascii;
    class       volVectorField;
    object      U;
}
// * * * * * * * * * * * * * * * * * * * * * * * * * * * * * * * * * * * * * //

dimensions      [0 1 -1 0 0 0 0];

internalField   uniform (97.22 0 0); // 350 km/h in +X direction

boundaryField
{
    inlet
    {
        type            fixedValue;
        value           uniform (97.22 0 0);
    }
    
    outlet
    {
        type            zeroGradient;
    }
    
    bottom
    {
        type            noSlip;
    }
    
    top
    {
        type            noSlip;
    }
    
    sides
    {
        type            noSlip;
    }
    
    mclarenWing
    {
        type            noSlip;
    }
}

// * * * * * * * * * * * * * * * * * * * * * * * * * * * * * * * * * * * * * //