/*--------------------------------*- C++ -*----------------------------------*\
  =========                 |
  \\      /  F ield         | OpenFOAM: The Open Source CFD Toolbox
   \\    /   O peration     | Website:  https://openfoam.org
    \\  /    A nd           | Version:  11
     \\/     M anipulation  |
\*---------------------------------------------------------------------------*/
FoamFile
{
    format      ascii;
    class       volScalarField;
    location    "0.044";
    object      k;
}
// * * * * * * * * * * * * * * * * * * * * * * * * * * * * * * * * * * * * * //

dimensions      [0 2 -2 0 0 0 0];

internalField   nonuniform List<scalar> 
287084
(
0.381986
0.396118
0.405635
0.410194
0.411481
0.411551
0.4115
0.411344
0.411372
0.411633
0.411688
0.411657
0.411616
0.411588
0.411543
0.411395
0.411469
0.411721
0.411553
0.411655
0.411791
0.411704
0.411692
0.411662
0.411657
0.411501
0.411541
0.411688
0.411701
0.411707
0.411642
0.411587
0.411409
0.411291
0.411423
0.411534
0.411453
0.411447
0.411434
0.411239
0.411269
0.411411
0.411253
0.411195
0.411215
0.411222
0.411163
0.411276
0.411413
0.411253
0.411321
0.411347
0.411345
0.411344
0.411112
0.411172
0.411335
0.411256
0.411257
0.411239
0.411237
0.411111
0.411181
0.411452
0.411479
0.411424
0.411193
0.411242
0.411402
0.411384
0.41138
0.411219
0.411288
0.411492
0.411455
0.411469
0.411464
0.411284
0.411268
0.411445
0.411519
0.411488
0.411391
0.411355
0.411324
0.411114
0.411122
0.411295
0.411297
0.411229
0.382033
0.395986
0.405505
0.410174
0.41146
0.41151
0.411476
0.411435
0.411559
0.411626
0.411587
0.411528
0.411433
0.41143
0.411385
0.411335
0.411439
0.411508
0.411347
0.411354
0.411553
0.411562
0.411673
0.411772
0.411732
0.411603
0.411666
0.4118
0.411553
0.411609
0.411704
0.411512
0.411433
0.411444
0.41145
0.411467
0.411462
0.411345
0.411451
0.41159
0.41159
0.411586
0.411354
0.411428
0.411536
0.411514
0.411513
0.411429
0.411388
0.411338
0.411178
0.411216
0.411381
0.411354
0.411212
0.411187
0.411313
0.411173
0.411255
0.411428
0.411343
0.411374
0.411384
0.411347
0.411202
0.41129
0.411462
0.411454
0.411456
0.411326
0.411445
0.411587
0.411534
0.411375
0.4113
0.411367
0.411287
0.411405
0.411492
0.411389
0.411404
0.411363
0.411223
0.411288
0.411357
0.411334
0.411332
0.411193
0.411187
0.411081
0.382034
0.395975
0.405499
0.410129
0.411481
0.411749
0.411711
0.411573
0.411538
0.411694
0.411776
0.411749
0.41176
0.411715
0.41156
0.411618
0.411742
0.41173
0.411726
0.411532
0.411554
0.411574
0.411637
0.411879
0.411872
0.411846
0.411632
0.411668
0.411779
0.411529
0.41153
0.411674
0.411501
0.411502
0.411637
0.411488
0.411534
0.411702
0.411637
0.41163
0.411627
0.411526
0.411536
0.411577
0.411561
0.411468
0.411486
0.411597
0.411573
0.411533
0.411297
0.411334
0.41142
0.411201
0.411275
0.411444
0.411198
0.411174
0.411347
0.411439
0.411395
0.411284
0.411283
0.411202
0.411329
0.411504
0.411487
0.411479
0.41139
0.411401
0.411475
0.411435
0.411197
0.411259
0.411404
0.41121
0.411175
0.411285
0.411277
0.41128
0.411231
0.411369
0.411487
0.411251
0.411305
0.411446
0.411203
0.41125
0.411375
0.411129
0.382019
0.396013
0.405433
0.410094
0.411605
0.411867
0.411785
0.411778
0.411718
0.411775
0.41185
0.41182
0.411805
0.411608
0.411691
0.411803
0.411782
0.411771
0.411582
0.41156
0.41162
0.41162
0.411524
0.41151
0.411575
0.411568
0.411504
0.411451
0.41163
0.41177
0.411742
0.411718
0.41157
0.411519
0.411499
0.411465
0.411423
0.411311
0.411406
0.411617
0.411512
0.411502
0.411437
0.411502
0.411525
0.411498
0.41149
0.411295
0.411279
0.411348
0.411333
0.411331
0.411316
0.411159
0.411176
0.411356
0.411189
0.411259
0.411424
0.411428
0.411428
0.411214
0.411303
0.411518
0.41141
0.411475
0.411512
0.411412
0.411506
0.411546
0.4113
0.411355
0.411484
0.411267
0.411267
0.411434
0.411413
0.411537
0.411598
0.411543
0.411426
0.411314
0.411427
0.411493
0.411437
0.411237
0.411262
0.411384
0.411364
0.411265
0.382019
0.396011
0.405416
0.41012
0.411576
0.411672
0.411549
0.411644
0.411786
0.411563
0.411641
0.411742
0.411738
0.411737
0.411532
0.411603
0.411645
0.411598
0.411586
0.411549
0.411467
0.41155
0.411789
0.411673
0.411669
0.411665
0.411526
0.411553
0.411697
0.411677
0.411695
0.411646
0.411481
0.411537
0.411749
0.411556
0.411636
0.411784
0.411762
0.411737
0.411461
0.411435
0.411538
0.411555
0.411537
0.4113
0.411342
0.411457
0.411224
0.41128
0.411443
0.411343
0.411286
0.41125
0.411135
0.411217
0.411443
0.41132
0.411316
0.411313
0.411186
0.411207
0.411369
0.411202
0.411242
0.411392
0.4113
0.411239
0.411225
0.411147
0.411221
0.411532
0.411564
0.411505
0.411293
0.411337
0.411487
0.411358
0.411363
0.41135
0.4112
0.411229
0.41141
0.411237
0.411321
0.411474
0.411249
0.411319
0.411472
0.411214
0.382002
0.39603
0.405474
0.410025
0.411205
0.411144
0.411168
0.411514
0.411615
0.411573
0.411507
0.411355
0.411375
0.411346
0.411488
0.411714
0.411603
0.411631
0.411582
0.411557
0.411552
0.411423
0.411462
0.411624
0.41159
0.411496
0.411571
0.411692
0.411652
0.41157
0.411519
0.411621
0.411606
0.411615
0.411613
0.411537
0.411459
0.411435
0.411389
0.411335
0.411313
0.411209
0.411252
0.411414
0.411256
0.411279
0.411438
0.411366
0.41137
0.411367
0.411273
0.41123
0.411433
0.411511
0.411494
0.411488
0.411268
0.411289
0.411431
0.411417
0.411377
0.411177
0.41124
0.411437
0.411368
0.411425
0.411496
0.411476
0.411466
0.411309
0.411372
0.411554
0.411346
0.411427
0.411545
0.411298
0.41133
0.411474
0.411265
0.411286
0.411426
0.411271
0.411369
0.411513
0.411408
0.411397
0.411384
0.411397
0.411396
0.411241
0.381971
0.396067
0.405464
0.410048
0.411279
0.411216
0.411324
0.411494
0.411453
0.411454
0.411342
0.411655
0.412044
0.411975
0.411941
0.412045
0.412118
0.412055
0.412048
0.412017
0.412056
0.412012
0.411832
0.411884
0.411954
0.411943
0.41194
0.411733
0.41177
0.411785
0.4116
0.411683
0.411807
0.411586
0.411543
0.411613
0.411475
0.411501
0.411715
0.411735
0.411689
0.411471
0.411513
0.411648
0.411627
0.411622
0.411452
0.411509
0.411532
0.411484
0.41134
0.411386
0.411474
0.411376
0.411264
0.411338
0.411453
0.411442
0.411439
0.411337
0.411309
0.411112
0.411168
0.411394
0.411427
0.411386
0.41135
0.411341
0.411115
0.411188
0.411364
0.411245
0.411166
0.41128
0.411455
0.411412
0.41131
0.41123
0.411282
0.41122
0.411354
0.411486
0.411258
0.411311
0.411464
0.411354
0.411438
0.411475
0.411416
0.411213
0.382008
0.39604
0.405393
0.40999
0.411821
0.412285
0.412251
0.412291
0.412308
0.412318
0.412312
0.41228
0.412252
0.412192
0.412168
0.412088
0.412098
0.412211
0.412199
0.412133
0.412119
0.412102
0.411927
0.411893
0.411938
0.411995
0.411955
0.4119
0.411877
0.411634
0.411587
0.411681
0.411527
0.411532
0.411662
0.411664
0.411584
0.411659
0.411832
0.411836
0.411833
0.411599
0.41166
0.411783
0.41173
0.41173
0.41167
0.411679
0.411592
0.411676
0.411784
0.411689
0.411741
0.411755
0.411694
0.41169
0.411696
0.411708
0.411626
0.41134
0.41133
0.411472
0.41141
0.411439
0.411397
0.411237
0.411302
0.411453
0.411397
0.411335
0.411343
0.411355
0.411286
0.411188
0.411283
0.41153
0.411521
0.411501
0.411252
0.411257
0.411428
0.411324
0.411429
0.411491
0.411444
0.411348
0.411276
0.411356
0.411373
0.411223
0.381987
0.396051
0.405464
0.410029
0.411343
0.411393
0.411447
0.411457
0.411405
0.411359
0.411618
0.412016
0.411986
0.412004
0.412
0.412026
0.411957
0.41203
0.412138
0.412089
0.412086
0.41209
0.412095
0.412049
0.41202
0.412011
0.411952
0.411901
0.411824
0.411572
0.411582
0.411756
0.411548
0.411537
0.41166
0.411666
0.41158
0.411627
0.411806
0.411706
0.411759
0.411786
0.411672
0.411746
0.411772
0.41176
0.411753
0.411563
0.411541
0.411461
0.411185
0.4112
0.41133
0.411289
0.411182
0.411242
0.411455
0.411425
0.411384
0.411182
0.411241
0.411435
0.411433
0.411417
0.411193
0.411231
0.41143
0.411298
0.411408
0.41151
0.411494
0.411488
0.411285
0.411355
0.411481
0.411372
0.411506
0.411579
0.411553
0.411546
0.411317
0.411355
0.411511
0.411403
0.411436
0.411445
0.411414
0.411432
0.411376
0.411148
0.381966
0.396047
0.405564
0.409889
0.411325
0.41148
0.411442
0.41131
0.411384
0.411687
0.411705
0.41165
0.411429
0.411502
0.411741
0.411771
0.41173
0.41164
0.411625
0.411446
0.411539
0.411713
0.411682
0.411596
0.41165
0.411785
0.411581
0.411667
0.411842
0.411668
0.411589
0.411637
0.411692
0.411658
0.411676
0.411682
0.411629
0.411469
0.411501
0.411549
0.411375
0.411264
0.411223
0.411106
0.411169
0.411327
0.411247
0.411206
0.411192
0.411123
0.411207
0.411253
0.411208
0.411068
0.411045
0.41119
0.411178
0.411113
0.41121
0.411379
0.411358
0.411339
0.411143
0.411215
0.411298
0.411139
0.41124
0.411393
0.41125
0.411246
0.411234
0.41109
0.411114
0.411279
0.411258
0.411179
0.411266
0.411408
0.41139
0.411377
0.411187
0.41128
0.411481
0.411454
0.411415
0.411292
0.411239
0.411338
0.411376
0.411227
0.381995
0.396021
0.40548
0.410045
0.411455
0.411561
0.411518
0.411375
0.411451
0.411632
0.411615
0.411573
0.41162
0.411779
0.411624
0.411598
0.41183
0.411924
0.411917
0.411917
0.41187
0.411759
0.411767
0.411789
0.411754
0.411659
0.411632
0.411708
0.411704
0.41156
0.41154
0.411762
0.411801
0.411768
0.411762
0.411672
0.411557
0.411503
0.411405
0.411305
0.411272
0.411167
0.41121
0.411372
0.411287
0.411252
0.411436
0.411538
0.411482
0.411327
0.41128
0.411324
0.41125
0.411189
0.411252
0.411371
0.411327
0.411164
0.411233
0.411336
0.411319
0.411315
0.411145
0.411244
0.411324
0.411269
0.411264
0.411143
0.411229
0.411341
0.41132
0.411265
0.411361
0.411531
0.411307
0.411359
0.411524
0.411342
0.411432
0.411551
0.411343
0.411435
0.411555
0.411332
0.411276
0.411323
0.411347
0.411351
0.411301
0.411157
0.381982
0.396056
0.405436
0.410072
0.411424
0.411489
0.411596
0.41164
0.411609
0.411525
0.411643
0.412018
0.411908
0.412033
0.412147
0.412012
0.412003
0.412003
0.411894
0.411977
0.412059
0.41184
0.411927
0.412067
0.412037
0.412034
0.412017
0.411993
0.411747
0.411647
0.411645
0.411543
0.411485
0.411488
0.411426
0.411379
0.411384
0.411273
0.411298
0.411435
0.411278
0.411293
0.411436
0.411362
0.411363
0.411358
0.411219
0.411201
0.411436
0.411534
0.411481
0.411476
0.411467
0.411438
0.411374
0.411166
0.411231
0.411323
0.411206
0.411129
0.41128
0.411439
0.411305
0.411391
0.411439
0.411401
0.41136
0.411231
0.41138
0.411483
0.411442
0.411373
0.41123
0.411316
0.411373
0.41132
0.41119
0.411121
0.411332
0.411477
0.411429
0.411248
0.411301
0.411428
0.411431
0.411431
0.411199
0.411277
0.411434
0.411183
0.382008
0.396039
0.405394
0.409977
0.411856
0.412199
0.412107
0.41211
0.412073
0.412153
0.412181
0.412027
0.412104
0.41218
0.412056
0.412134
0.412173
0.41209
0.412082
0.412051
0.412128
0.412155
0.411958
0.412017
0.412066
0.412041
0.412039
0.411971
0.411919
0.411646
0.41164
0.411786
0.411779
0.411717
0.411686
0.411812
0.411838
0.411794
0.411581
0.411589
0.411733
0.411727
0.411687
0.411475
0.411542
0.411653
0.411647
0.411646
0.411515
0.411517
0.411529
0.411507
0.411403
0.411307
0.411393
0.41146
0.411408
0.411226
0.411205
0.411458
0.411518
0.411467
0.411269
0.411298
0.411457
0.41125
0.411297
0.411441
0.411396
0.411334
0.411342
0.411353
0.411283
0.411184
0.411281
0.411529
0.411509
0.411469
0.411256
0.411318
0.41149
0.41146
0.411421
0.411212
0.411252
0.411453
0.411399
0.411409
0.411367
0.4112
0.381975
0.396035
0.405531
0.410021
0.411151
0.411109
0.411216
0.411499
0.411428
0.41146
0.411417
0.411281
0.411269
0.411391
0.411376
0.411537
0.411663
0.411604
0.411609
0.411616
0.41156
0.411664
0.411931
0.41177
0.411875
0.411974
0.411869
0.411886
0.411841
0.41174
0.411688
0.411737
0.411745
0.411623
0.41166
0.411784
0.411768
0.411747
0.411751
0.411772
0.411714
0.411717
0.411703
0.411691
0.411662
0.411642
0.41159
0.411567
0.411565
0.411535
0.411266
0.411241
0.411418
0.411444
0.411405
0.411237
0.411187
0.411358
0.411457
0.411401
0.411238
0.411163
0.411298
0.411409
0.411363
0.411174
0.411251
0.411448
0.411421
0.411382
0.41124
0.411175
0.411222
0.411183
0.411299
0.411541
0.411369
0.411471
0.411596
0.411499
0.41154
0.411556
0.411512
0.41139
0.411302
0.411439
0.411578
0.411578
0.411574
0.411312
0.382009
0.396039
0.405392
0.409988
0.411817
0.412281
0.412247
0.41225
0.412218
0.412285
0.412314
0.412235
0.412266
0.412234
0.412209
0.412216
0.412172
0.412003
0.412063
0.412134
0.412116
0.412072
0.412057
0.412092
0.412081
0.412086
0.412014
0.412003
0.411973
0.411979
0.411891
0.411642
0.411581
0.411622
0.411516
0.411461
0.411409
0.411254
0.411279
0.411414
0.411247
0.411258
0.411466
0.411544
0.41149
0.411253
0.411249
0.411382
0.411318
0.411402
0.411438
0.411312
0.411398
0.411473
0.411473
0.411471
0.411211
0.411239
0.411471
0.411371
0.411475
0.411643
0.411578
0.411582
0.411541
0.411466
0.411424
0.411408
0.411374
0.411302
0.411334
0.411349
0.411281
0.411183
0.41128
0.411528
0.411507
0.411468
0.411255
0.411319
0.411444
0.411441
0.411441
0.411339
0.411322
0.411176
0.411271
0.411408
0.411363
0.411203
0.382045
0.395986
0.405395
0.410104
0.41142
0.411404
0.411543
0.411722
0.411532
0.411607
0.411725
0.411683
0.411588
0.411548
0.411681
0.411778
0.411733
0.411539
0.411591
0.411694
0.41168
0.411639
0.411715
0.411866
0.411645
0.411696
0.411862
0.411823
0.411708
0.411758
0.411857
0.411648
0.411731
0.411831
0.411687
0.411686
0.411604
0.411575
0.41155
0.411442
0.411346
0.411321
0.411295
0.411266
0.411218
0.411063
0.411029
0.411326
0.411452
0.411358
0.411377
0.411379
0.41134
0.411245
0.411481
0.411782
0.411666
0.411762
0.411875
0.411876
0.411877
0.411677
0.411726
0.411772
0.411752
0.41175
0.411702
0.411632
0.41151
0.411445
0.411246
0.411279
0.411502
0.411523
0.411468
0.41126
0.411332
0.411416
0.411229
0.411184
0.411412
0.411514
0.411465
0.411295
0.411298
0.411422
0.411334
0.411333
0.411321
0.411176
0.382024
0.396038
0.405362
0.409957
0.411781
0.412341
0.412345
0.412375
0.41239
0.412364
0.41235
0.412322
0.412301
0.412257
0.412116
0.412154
0.412183
0.411968
0.412047
0.412134
0.411882
0.411937
0.412064
0.412028
0.412038
0.412009
0.411981
0.411851
0.411765
0.411812
0.411838
0.411775
0.411583
0.411524
0.411561
0.411564
0.411547
0.41144
0.411339
0.411288
0.411194
0.41112
0.411272
0.411367
0.411328
0.411272
0.411123
0.411233
0.411345
0.411215
0.411316
0.411371
0.411135
0.411164
0.41146
0.411412
0.411553
0.411697
0.411501
0.411595
0.4117
0.411495
0.411573
0.411635
0.411517
0.411526
0.41151
0.411334
0.411368
0.411459
0.411275
0.411336
0.411372
0.411348
0.411342
0.411159
0.411228
0.411454
0.411457
0.411448
0.411324
0.411246
0.411263
0.411216
0.411357
0.411479
0.411274
0.411369
0.411495
0.411227
0.382009
0.396039
0.405391
0.409991
0.411797
0.412424
0.412432
0.412384
0.412383
0.412361
0.412361
0.412278
0.412237
0.41224
0.412229
0.412217
0.412117
0.412164
0.412198
0.412001
0.412083
0.412175
0.412099
0.412082
0.412069
0.412085
0.412068
0.412024
0.411731
0.411741
0.411835
0.411606
0.411562
0.411594
0.411502
0.411451
0.411397
0.411234
0.411244
0.411368
0.411247
0.411209
0.411277
0.411315
0.411333
0.411316
0.411278
0.411348
0.41139
0.41136
0.411354
0.411171
0.411237
0.411532
0.411435
0.411558
0.411696
0.411648
0.411655
0.411669
0.411668
0.41156
0.411572
0.411528
0.411369
0.41144
0.411527
0.411299
0.411319
0.41151
0.411513
0.411518
0.411508
0.411351
0.411319
0.411422
0.411517
0.411483
0.411395
0.41138
0.411208
0.411297
0.411493
0.411467
0.411428
0.411202
0.411241
0.411414
0.411397
0.411259
0.382024
0.396039
0.405362
0.409954
0.411798
0.412276
0.412241
0.41231
0.41234
0.412249
0.412244
0.41224
0.412243
0.412109
0.412147
0.412172
0.411956
0.412035
0.412125
0.411877
0.411931
0.412071
0.411962
0.411974
0.411958
0.411777
0.411759
0.411858
0.411765
0.411677
0.411639
0.411516
0.4115
0.411692
0.411777
0.411747
0.411772
0.411745
0.41171
0.411622
0.411361
0.411234
0.411225
0.411098
0.411068
0.411118
0.411053
0.411018
0.411178
0.411316
0.411307
0.411303
0.411097
0.411106
0.411434
0.411423
0.411556
0.411728
0.411668
0.411689
0.41169
0.411718
0.411693
0.411701
0.411655
0.411469
0.411522
0.411588
0.411414
0.411427
0.411485
0.411495
0.41148
0.411455
0.411446
0.411389
0.411269
0.411372
0.411442
0.411393
0.411226
0.411206
0.411319
0.411169
0.411261
0.411391
0.411153
0.411163
0.411312
0.411131
0.382022
0.396052
0.405308
0.410104
0.411627
0.411785
0.411858
0.411837
0.411688
0.411782
0.411856
0.411812
0.411752
0.411679
0.411774
0.41184
0.411835
0.411854
0.411831
0.411694
0.411654
0.411908
0.412109
0.412099
0.412113
0.412052
0.41197
0.411697
0.411695
0.411815
0.411651
0.41158
0.411574
0.411517
0.411491
0.411448
0.411382
0.411393
0.411375
0.411203
0.411205
0.411304
0.411265
0.411288
0.411223
0.411189
0.411206
0.411203
0.411051
0.411063
0.411507
0.412048
0.412048
0.412044
0.412025
0.412038
0.412051
0.412029
0.412013
0.411821
0.411863
0.411916
0.411804
0.411777
0.41176
0.411787
0.411779
0.411722
0.411742
0.41176
0.411708
0.411504
0.411518
0.411585
0.411544
0.411552
0.411549
0.411449
0.411447
0.41145
0.41122
0.411286
0.411376
0.411149
0.411169
0.411328
0.411259
0.411277
0.411267
0.411123
0.382004
0.396021
0.405465
0.410037
0.411319
0.411383
0.411244
0.411268
0.411404
0.411404
0.411393
0.411367
0.411271
0.411369
0.411657
0.411645
0.411608
0.411472
0.411605
0.411913
0.4121
0.412125
0.411991
0.41201
0.411964
0.411796
0.411842
0.411978
0.411843
0.411784
0.411729
0.411569
0.411613
0.41175
0.411527
0.411568
0.411681
0.411686
0.411679
0.411396
0.411431
0.411525
0.411443
0.411428
0.411266
0.411334
0.411379
0.411331
0.411182
0.411167
0.411221
0.411051
0.411018
0.411158
0.411261
0.411254
0.411288
0.411239
0.410998
0.410995
0.411159
0.411012
0.411002
0.411124
0.4111
0.411191
0.411219
0.411058
0.411144
0.411391
0.411381
0.411376
0.411366
0.411341
0.411319
0.411232
0.411307
0.411488
0.411498
0.4115
0.411408
0.411387
0.411183
0.411254
0.411379
0.411183
0.411141
0.411281
0.411317
0.411207
0.382009
0.396039
0.405394
0.409974
0.411877
0.412184
0.412106
0.412112
0.412096
0.412102
0.412044
0.412107
0.412151
0.412104
0.411955
0.411993
0.412062
0.412011
0.412016
0.411999
0.412073
0.412152
0.41211
0.412023
0.412018
0.411975
0.411914
0.411776
0.411716
0.411786
0.411798
0.411678
0.411741
0.411759
0.411737
0.411721
0.41141
0.411427
0.411466
0.4113
0.411292
0.411292
0.41129
0.4112
0.411158
0.41104
0.411146
0.411309
0.411239
0.411237
0.41115
0.411275
0.41189
0.412098
0.412045
0.412051
0.412042
0.412049
0.412056
0.412081
0.41206
0.412012
0.411915
0.411932
0.411939
0.411716
0.411759
0.411821
0.411638
0.411738
0.411833
0.411729
0.411784
0.411862
0.411832
0.411794
0.411764
0.41172
0.411644
0.411556
0.411479
0.41124
0.411268
0.411444
0.411462
0.411462
0.411211
0.41127
0.411391
0.411141
0.382009
0.396039
0.405392
0.40999
0.411813
0.412317
0.412312
0.412259
0.412314
0.412338
0.412277
0.412282
0.412268
0.41227
0.412137
0.412177
0.412213
0.412004
0.412089
0.412188
0.412171
0.412122
0.412154
0.41221
0.412198
0.412197
0.412139
0.412108
0.411803
0.411791
0.411869
0.411627
0.411605
0.411708
0.411635
0.411558
0.411581
0.411605
0.411502
0.411591
0.411659
0.411639
0.411631
0.411394
0.411457
0.411523
0.411492
0.411531
0.411493
0.411448
0.411254
0.411328
0.411894
0.412133
0.412067
0.412132
0.41216
0.412106
0.412111
0.412088
0.412024
0.411995
0.412025
0.412027
0.411832
0.411869
0.411922
0.411766
0.411858
0.411922
0.411913
0.411913
0.411869
0.411868
0.411817
0.411801
0.411712
0.411737
0.411676
0.411663
0.411636
0.411459
0.411388
0.411407
0.411243
0.411226
0.411441
0.411491
0.411437
0.411228
0.381996
0.396014
0.405517
0.410011
0.411276
0.411632
0.411603
0.411393
0.411349
0.411415
0.411423
0.411426
0.411344
0.41158
0.412034
0.411916
0.411967
0.412263
0.412292
0.41224
0.412067
0.412113
0.412208
0.411942
0.411969
0.412083
0.411976
0.411965
0.411972
0.411952
0.411774
0.411678
0.411646
0.411585
0.411488
0.4115
0.411499
0.411317
0.411374
0.41154
0.411519
0.411518
0.411481
0.411436
0.411419
0.411429
0.411415
0.411342
0.411388
0.411432
0.411188
0.411247
0.411318
0.411289
0.411203
0.411207
0.411441
0.411405
0.41143
0.411421
0.411437
0.411324
0.411406
0.411559
0.411541
0.411538
0.411353
0.411434
0.411597
0.411527
0.41152
0.411512
0.411392
0.41135
0.411441
0.411458
0.411357
0.411436
0.411572
0.411323
0.411364
0.411485
0.411245
0.411299
0.411406
0.411404
0.411404
0.411333
0.411315
0.411105
0.382007
0.396049
0.405358
0.410087
0.411677
0.41177
0.411899
0.41201
0.411849
0.411936
0.412048
0.412016
0.412015
0.411939
0.411935
0.411915
0.41173
0.411786
0.411915
0.411849
0.411849
0.411759
0.411886
0.411977
0.411807
0.41191
0.412037
0.411871
0.411756
0.411791
0.411802
0.411622
0.411683
0.411706
0.41168
0.411668
0.411518
0.411458
0.411374
0.411113
0.41111
0.411246
0.411064
0.411023
0.411083
0.411095
0.411118
0.411078
0.410934
0.41098
0.41127
0.411274
0.411233
0.411109
0.411024
0.411145
0.411206
0.411096
0.411214
0.411347
0.411326
0.411331
0.411309
0.41129
0.411084
0.411036
0.41113
0.411027
0.41105
0.411294
0.411345
0.411315
0.411229
0.41127
0.41129
0.411185
0.411273
0.411314
0.411186
0.411105
0.411262
0.411442
0.411409
0.411352
0.411208
0.411176
0.411056
0.411064
0.41119
0.41106
0.382009
0.39604
0.405393
0.409983
0.411848
0.412231
0.412183
0.412212
0.412174
0.412213
0.41223
0.412174
0.412215
0.41224
0.412205
0.412117
0.412116
0.412123
0.411985
0.412034
0.412154
0.412085
0.41214
0.412155
0.412128
0.412135
0.412049
0.411749
0.41171
0.411811
0.411666
0.411602
0.411579
0.411568
0.411424
0.41145
0.411547
0.411534
0.411517
0.411285
0.41129
0.411321
0.411283
0.411221
0.411063
0.411051
0.411002
0.411138
0.411332
0.411308
0.411309
0.411233
0.411222
0.411193
0.411152
0.411116
0.410983
0.41108
0.411276
0.411218
0.41112
0.411209
0.411381
0.41138
0.411379
0.411275
0.411247
0.411057
0.411072
0.411227
0.411195
0.411127
0.411249
0.411399
0.411372
0.411337
0.411202
0.411174
0.411059
0.411058
0.411182
0.411092
0.411199
0.411369
0.411357
0.411355
0.411202
0.411307
0.411381
0.411203
0.382009
0.39604
0.405392
0.409992
0.411798
0.412426
0.412432
0.412347
0.412341
0.412318
0.412323
0.412323
0.412339
0.412326
0.412283
0.412155
0.412207
0.412249
0.412041
0.412126
0.412234
0.412016
0.412087
0.412263
0.412248
0.412248
0.412211
0.412175
0.41214
0.412103
0.412042
0.411913
0.411814
0.411749
0.411534
0.411578
0.411686
0.411675
0.41167
0.411568
0.411414
0.411452
0.41152
0.411469
0.411302
0.411297
0.411343
0.411347
0.411345
0.411118
0.411114
0.411531
0.412119
0.41218
0.412108
0.412146
0.412158
0.412094
0.412059
0.412034
0.412004
0.412002
0.412011
0.411998
0.411802
0.411831
0.411884
0.411703
0.411794
0.411865
0.411768
0.411774
0.411756
0.41177
0.411751
0.411552
0.411576
0.41162
0.411559
0.411563
0.411555
0.411554
0.411407
0.411446
0.411489
0.41144
0.41136
0.411214
0.411177
0.411071
0.382009
0.39604
0.405392
0.40999
0.411814
0.412319
0.412314
0.412261
0.412317
0.412341
0.41228
0.412285
0.412271
0.412273
0.41214
0.412179
0.412215
0.412005
0.41209
0.412191
0.412178
0.412192
0.412151
0.412115
0.412077
0.412076
0.41205
0.411994
0.411794
0.411725
0.411763
0.411609
0.411618
0.411723
0.411637
0.411558
0.411581
0.411607
0.411506
0.411596
0.411661
0.411641
0.411633
0.411395
0.411457
0.411523
0.411489
0.411485
0.411494
0.411492
0.411275
0.411348
0.411883
0.411956
0.411946
0.411926
0.411943
0.411962
0.411877
0.411867
0.411754
0.411832
0.411885
0.411723
0.411797
0.411836
0.411751
0.411744
0.411736
0.411572
0.411621
0.411689
0.41167
0.411667
0.411586
0.411547
0.411298
0.411283
0.411436
0.411322
0.41142
0.411496
0.411321
0.411411
0.411467
0.411418
0.411313
0.411272
0.41132
0.411129
0.382009
0.396039
0.405395
0.409973
0.411876
0.412184
0.412107
0.412114
0.412129
0.412136
0.412102
0.412091
0.412007
0.412073
0.412163
0.412122
0.411977
0.412017
0.412077
0.412022
0.412012
0.411985
0.411983
0.411819
0.411882
0.411948
0.411774
0.411884
0.412018
0.412018
0.412014
0.411922
0.411889
0.41185
0.411829
0.411687
0.41161
0.41153
0.411287
0.411327
0.411397
0.411377
0.41137
0.411242
0.411215
0.411053
0.411142
0.411306
0.411306
0.411306
0.411153
0.411267
0.411914
0.412016
0.411943
0.411916
0.411944
0.411987
0.411969
0.411957
0.411751
0.411762
0.411899
0.411898
0.411872
0.411637
0.411666
0.411746
0.411521
0.411594
0.411746
0.411728
0.411707
0.411451
0.411437
0.411607
0.411664
0.411634
0.411612
0.411571
0.411511
0.411333
0.411302
0.411403
0.411258
0.411236
0.411428
0.411476
0.411417
0.411205
0.382004
0.39602
0.405471
0.410013
0.411366
0.411502
0.411457
0.411296
0.411335
0.41163
0.411678
0.411628
0.411438
0.411501
0.411677
0.411609
0.411628
0.411644
0.411599
0.411627
0.411638
0.411781
0.412052
0.411849
0.41193
0.412078
0.411826
0.411819
0.411964
0.411969
0.411945
0.411739
0.411685
0.411724
0.41171
0.411595
0.411613
0.411738
0.411719
0.411629
0.411646
0.411661
0.411622
0.411639
0.411593
0.411559
0.411537
0.411533
0.411499
0.411507
0.411529
0.411491
0.4114
0.411164
0.411048
0.41113
0.411155
0.411058
0.411132
0.411368
0.411361
0.411323
0.411136
0.411211
0.411475
0.411462
0.411465
0.411463
0.411388
0.411325
0.411504
0.411658
0.411616
0.411629
0.41163
0.411588
0.411563
0.411521
0.411492
0.411499
0.41146
0.411403
0.411276
0.411407
0.411574
0.411529
0.411408
0.411343
0.411339
0.411141
0.382046
0.395978
0.405413
0.41009
0.411391
0.411383
0.411528
0.411712
0.411565
0.411555
0.411556
0.411535
0.411459
0.411605
0.411739
0.411706
0.411658
0.411513
0.411528
0.411527
0.411701
0.41194
0.411965
0.411922
0.411692
0.411754
0.411931
0.411801
0.411697
0.411652
0.411651
0.411601
0.411705
0.411782
0.411728
0.411555
0.411569
0.411632
0.411619
0.411613
0.411489
0.411484
0.411438
0.411354
0.411301
0.411271
0.411267
0.411233
0.411113
0.411123
0.41106
0.411175
0.411386
0.411364
0.411286
0.41127
0.411462
0.411413
0.411548
0.411662
0.411631
0.41153
0.411562
0.411619
0.411498
0.411486
0.41147
0.411484
0.411488
0.411463
0.411498
0.411524
0.411474
0.411301
0.411293
0.411453
0.411522
0.411484
0.411396
0.411374
0.411156
0.411219
0.411349
0.411348
0.411346
0.411123
0.411193
0.411349
0.411311
0.411175
0.382044
0.395986
0.405396
0.410103
0.411419
0.411401
0.411534
0.411715
0.411575
0.411577
0.41158
0.411549
0.411442
0.411584
0.411741
0.411732
0.411727
0.411519
0.411643
0.41187
0.411861
0.41186
0.41174
0.411712
0.411629
0.411606
0.411676
0.411619
0.411604
0.411662
0.411549
0.411631
0.411769
0.411759
0.411749
0.411573
0.41147
0.411498
0.411577
0.411551
0.411559
0.411479
0.411241
0.41111
0.411229
0.411305
0.411267
0.411212
0.411082
0.411315
0.411687
0.411531
0.411616
0.411764
0.411772
0.411773
0.411542
0.411594
0.411787
0.41178
0.411743
0.411731
0.411682
0.411476
0.411556
0.411642
0.41148
0.411566
0.411625
0.411571
0.411387
0.411357
0.411424
0.411333
0.411419
0.411471
0.41144
0.411432
0.41132
0.41129
0.411239
0.411222
0.411173
0.411135
0.411026
0.411051
0.411347
0.411392
0.411337
0.411133
0.382009
0.396039
0.405391
0.40999
0.411808
0.412356
0.41235
0.412328
0.412331
0.412347
0.412344
0.412285
0.412227
0.412192
0.412196
0.412213
0.412116
0.412163
0.412197
0.412001
0.412084
0.412176
0.412061
0.41207
0.412056
0.41196
0.411862
0.411828
0.411711
0.411675
0.411761
0.411777
0.411655
0.411706
0.41174
0.411521
0.411597
0.411741
0.411493
0.411493
0.411614
0.411474
0.411559
0.411695
0.411545
0.411636
0.411687
0.411582
0.411628
0.411643
0.41159
0.411399
0.411282
0.411379
0.411367
0.41152
0.411676
0.411576
0.4116
0.41155
0.411545
0.41153
0.411558
0.411514
0.41136
0.411433
0.411518
0.411293
0.411316
0.411512
0.411514
0.411518
0.411509
0.411352
0.411319
0.41146
0.411493
0.411442
0.411236
0.411254
0.411433
0.411322
0.411423
0.411482
0.411435
0.41134
0.411275
0.411364
0.411379
0.411227
0.382025
0.396039
0.40536
0.409958
0.411777
0.412414
0.412428
0.412343
0.412336
0.412355
0.412318
0.412309
0.412333
0.412282
0.412287
0.412312
0.412335
0.412307
0.412217
0.412188
0.412177
0.412047
0.412017
0.412087
0.412091
0.412096
0.412096
0.412113
0.412069
0.411984
0.411893
0.411859
0.411801
0.411621
0.411659
0.411844
0.411813
0.411768
0.411529
0.411531
0.411636
0.411639
0.411638
0.411494
0.411538
0.411549
0.411388
0.411445
0.411606
0.411606
0.411615
0.411568
0.411459
0.411344
0.411468
0.411611
0.411611
0.411612
0.411428
0.411505
0.411709
0.41155
0.411637
0.411781
0.411706
0.411724
0.411726
0.411741
0.411753
0.411734
0.411515
0.411553
0.411621
0.411618
0.411617
0.411425
0.411353
0.411446
0.411503
0.411446
0.411279
0.411236
0.411315
0.411172
0.411226
0.411389
0.411215
0.41119
0.411264
0.411119
0.382022
0.396051
0.405312
0.410077
0.411707
0.411907
0.411859
0.41166
0.411673
0.41179
0.411589
0.411669
0.411771
0.41154
0.411616
0.411735
0.411706
0.411612
0.411609
0.411813
0.411895
0.411863
0.4118
0.411782
0.41156
0.411527
0.411659
0.411547
0.411619
0.411783
0.411775
0.411769
0.411575
0.411663
0.411747
0.411714
0.411702
0.41159
0.411506
0.411314
0.41118
0.41118
0.411091
0.411196
0.411347
0.411255
0.411251
0.411193
0.411291
0.411414
0.411406
0.411403
0.411209
0.411273
0.41156
0.411438
0.411534
0.411703
0.411708
0.411709
0.41163
0.411617
0.411461
0.411537
0.411714
0.411625
0.411631
0.41159
0.41147
0.411441
0.411468
0.411417
0.411483
0.411506
0.411387
0.411467
0.411514
0.411271
0.411329
0.411479
0.411414
0.41141
0.411419
0.411409
0.411229
0.411193
0.411434
0.4115
0.411439
0.411219
0.382009
0.396039
0.405392
0.409989
0.411809
0.412311
0.412301
0.412351
0.412363
0.412339
0.412345
0.412282
0.412217
0.412179
0.412206
0.41225
0.412208
0.412235
0.412241
0.412107
0.412153
0.412186
0.412149
0.412118
0.41203
0.411957
0.411729
0.411777
0.411912
0.411916
0.411915
0.411859
0.411829
0.411628
0.411476
0.411433
0.4113
0.411314
0.41144
0.411278
0.411292
0.411429
0.411265
0.411314
0.411472
0.411286
0.411345
0.411504
0.411336
0.411435
0.411521
0.411514
0.411511
0.41129
0.411344
0.411507
0.411489
0.411448
0.411375
0.411472
0.411503
0.411369
0.411421
0.411517
0.411306
0.411379
0.411514
0.411297
0.41136
0.411553
0.411504
0.4115
0.411494
0.411416
0.41133
0.411402
0.411458
0.41141
0.411224
0.411292
0.411439
0.41144
0.41144
0.411339
0.411322
0.411175
0.41127
0.411406
0.411362
0.411201
0.38198
0.396049
0.405499
0.410016
0.411242
0.411297
0.411246
0.411221
0.411372
0.411498
0.411483
0.41148
0.411303
0.411392
0.411823
0.41184
0.411847
0.411785
0.411938
0.412067
0.411872
0.411951
0.412148
0.412136
0.412132
0.412049
0.412013
0.41193
0.411709
0.411642
0.41176
0.411775
0.411729
0.411692
0.411722
0.411871
0.411838
0.411592
0.41163
0.411743
0.411714
0.411703
0.411468
0.41153
0.411624
0.411605
0.411607
0.411556
0.411493
0.411239
0.411152
0.411216
0.411132
0.411252
0.411358
0.41134
0.411339