/*--------------------------------*- C++ -*----------------------------------*\
  =========                 |
  \\      /  F ield         | OpenFOAM: The Open Source CFD Toolbox
   \\    /   O peration     | Website:  https://openfoam.org
    \\  /    A nd           | Version:  11
     \\/     M anipulation  |
\*---------------------------------------------------------------------------*/
FoamFile
{
    format      ascii;
    class       volScalarField;
    location    "0.044";
    object      nut;
}
// * * * * * * * * * * * * * * * * * * * * * * * * * * * * * * * * * * * * * //

dimensions      [0 2 -1 0 0 0 0];

internalField   nonuniform List<scalar> 
287084
(
0.000837467
0.000869397
0.000891692
0.000902911
0.000906417
0.000906984
0.000907085
0.000906847
0.000906942
0.000907506
0.000907613
0.000907521
0.000907388
0.000907272
0.00090711
0.000906717
0.000906811
0.000907297
0.000906863
0.000907024
0.000907268
0.000907027
0.000906961
0.000906872
0.000906844
0.000906494
0.000906586
0.000906911
0.000906942
0.000906992
0.000906944
0.000906982
0.000906725
0.000906595
0.000907012
0.000907392
0.000907346
0.000907466
0.000907568
0.000907265
0.000907452
0.000907882
0.000907641
0.00090761
0.000907747
0.000907842
0.000907782
0.000908095
0.000908453
0.000908143
0.000908333
0.000908409
0.000908405
0.000908407
0.000907896
0.000908019
0.000908348
0.000908155
0.000908152
0.000908109
0.000908094
0.0009078
0.000907944
0.000908523
0.000908566
0.000908431
0.000907891
0.00090798
0.000908331
0.00090828
0.000908262
0.000907883
0.000908038
0.000908491
0.000908399
0.000908421
0.000908394
0.000907991
0.000907937
0.000908311
0.000908472
0.000908387
0.000908162
0.000908089
0.00090801
0.00090755
0.000907584
0.00090797
0.000907972
0.000907792
0.00118373
0.00122727
0.00125724
0.00127215
0.00127638
0.00127668
0.00127665
0.00127656
0.00127695
0.00127713
0.00127697
0.00127672
0.00127635
0.00127625
0.00127602
0.00127576
0.00127599
0.00127611
0.00127551
0.00127545
0.00127599
0.00127595
0.00127623
0.00127651
0.00127636
0.00127597
0.00127619
0.00127663
0.00127592
0.0012762
0.00127662
0.00127616
0.00127606
0.00127626
0.00127645
0.00127669
0.00127686
0.00127669
0.0012772
0.00127781
0.00127798
0.00127814
0.00127757
0.00127794
0.0012784
0.00127845
0.00127854
0.00127837
0.00127832
0.00127823
0.00127778
0.00127794
0.00127849
0.00127844
0.00127801
0.00127793
0.00127831
0.00127787
0.00127811
0.00127865
0.00127838
0.00127846
0.00127847
0.00127834
0.00127786
0.00127812
0.00127865
0.0012786
0.00127859
0.00127817
0.00127853
0.00127896
0.00127878
0.00127827
0.00127803
0.00127822
0.00127795
0.0012783
0.00127857
0.00127823
0.00127827
0.00127814
0.00127768
0.00127789
0.00127811
0.00127802
0.00127801
0.00127758
0.00127756
0.00127723
0.00118379
0.00122743
0.00125745
0.00127219
0.00127658
0.00127752
0.00127744
0.00127703
0.00127691
0.00127736
0.00127756
0.00127741
0.00127736
0.00127713
0.00127655
0.00127663
0.00127691
0.00127677
0.00127666
0.00127596
0.00127595
0.00127594
0.00127608
0.0012768
0.00127675
0.00127668
0.00127604
0.0012762
0.00127663
0.00127595
0.00127606
0.00127664
0.00127625
0.00127642
0.00127702
0.00127675
0.00127708
0.0012778
0.00127779
0.00127795
0.00127811
0.00127796
0.00127815
0.00127842
0.0012785
0.00127832
0.00127847
0.00127891
0.00127891
0.00127885
0.00127816
0.00127832
0.00127862
0.00127797
0.00127822
0.00127876
0.001278
0.00127791
0.00127844
0.00127872
0.00127858
0.00127823
0.00127821
0.00127794
0.00127832
0.00127884
0.00127877
0.00127874
0.00127845
0.00127847
0.00127868
0.00127855
0.00127779
0.00127797
0.00127841
0.00127779
0.00127766
0.001278
0.00127796
0.00127796
0.00127779
0.00127822
0.00127857
0.00127783
0.00127799
0.00127842
0.00127766
0.0012778
0.00127818
0.00127739
0.00118377
0.0012277
0.0012575
0.00127236
0.00127721
0.00127807
0.00127781
0.00127776
0.00127753
0.00127765
0.00127781
0.00127764
0.00127751
0.00127679
0.00127694
0.00127718
0.00127701
0.00127687
0.00127618
0.00127601
0.00127612
0.00127604
0.00127569
0.0012756
0.00127578
0.00127576
0.00127559
0.00127548
0.00127612
0.00127665
0.00127669
0.00127675
0.00127645
0.00127647
0.00127659
0.00127668
0.00127675
0.0012766
0.00127709
0.00127794
0.00127779
0.00127793
0.00127788
0.00127822
0.00127842
0.00127845
0.00127853
0.00127801
0.00127803
0.00127831
0.00127831
0.00127834
0.00127833
0.00127786
0.00127793
0.00127851
0.00127799
0.00127821
0.00127872
0.00127873
0.00127872
0.00127804
0.0012783
0.00127896
0.0012786
0.00127879
0.00127889
0.00127856
0.00127883
0.00127894
0.00127815
0.0012783
0.00127869
0.001278
0.00127798
0.00127849
0.00127841
0.00127878
0.00127896
0.00127878
0.00127841
0.00127805
0.00127839
0.00127858
0.0012784
0.00127777
0.00127784
0.00127822
0.00127815
0.00127781
0.00118378
0.00122776
0.00125755
0.00127255
0.00127723
0.00127756
0.00127715
0.0012774
0.00127778
0.00127702
0.00127718
0.0012774
0.00127729
0.00127718
0.00127644
0.00127654
0.00127656
0.0012763
0.00127615
0.00127594
0.00127559
0.00127577
0.00127645
0.00127605
0.00127601
0.001276
0.0012756
0.00127574
0.00127627
0.00127631
0.0012765
0.0012765
0.00127616
0.00127652
0.00127737
0.00127698
0.00127744
0.00127811
0.00127824
0.00127835
0.00127768
0.00127777
0.00127825
0.00127844
0.00127852
0.00127789
0.00127812
0.00127856
0.00127791
0.00127814
0.0012787
0.00127842
0.00127827
0.00127818
0.00127784
0.0012781
0.00127881
0.00127843
0.00127841
0.00127839
0.00127798
0.00127803
0.00127852
0.00127798
0.00127809
0.00127854
0.00127824
0.00127803
0.00127796
0.0012777
0.00127791
0.00127886
0.00127894
0.00127874
0.00127807
0.00127819
0.00127864
0.00127823
0.00127823
0.00127818
0.0012777
0.00127778
0.00127834
0.00127779
0.00127804
0.00127851
0.0012778
0.00127802
0.00127849
0.00127765
0.00118373
0.00122785
0.0012578
0.00127234
0.00127617
0.00127601
0.00127604
0.00127706
0.00127729
0.00127708
0.00127678
0.0012762
0.00127616
0.00127595
0.00127627
0.00127685
0.00127639
0.00127635
0.00127608
0.0012759
0.00127579
0.0012753
0.00127536
0.00127581
0.00127569
0.0012754
0.00127566
0.0012761
0.00127606
0.00127593
0.0012759
0.00127638
0.00127652
0.00127675
0.00127695
0.00127694
0.00127691
0.00127706
0.00127713
0.00127716
0.00127728
0.00127713
0.00127742
0.00127807
0.00127771
0.00127789
0.00127849
0.00127834
0.00127842
0.00127847
0.00127822
0.00127812
0.00127878
0.00127904
0.001279
0.00127898
0.0012783
0.00127836
0.00127879
0.00127873
0.0012786
0.00127796
0.00127813
0.00127873
0.0012785
0.00127866
0.00127885
0.00127877
0.00127872
0.00127821
0.00127839
0.00127894
0.00127827
0.00127851
0.00127886
0.00127807
0.00127816
0.00127859
0.00127793
0.00127798
0.00127841
0.00127791
0.00127821
0.00127865
0.00127832
0.00127828
0.00127822
0.00127826
0.00127825
0.00127773
0.00118364
0.00122799
0.0012578
0.00127247
0.00127645
0.00127628
0.00127657
0.00127702
0.00127682
0.00127672
0.00127627
0.00127714
0.00127822
0.00127788
0.00127765
0.00127784
0.00127794
0.00127762
0.00127747
0.00127726
0.00127727
0.00127705
0.00127641
0.00127653
0.00127672
0.00127669
0.00127671
0.00127613
0.00127635
0.00127651
0.0012761
0.00127653
0.00127711
0.00127665
0.00127674
0.00127719
0.001277
0.00127731
0.0012782
0.00127847
0.00127852
0.00127802
0.00127832
0.00127888
0.00127895
0.00127904
0.0012786
0.00127886
0.001279
0.0012789
0.00127849
0.00127867
0.00127896
0.00127867
0.00127832
0.00127856
0.00127891
0.00127887
0.00127885
0.00127851
0.00127841
0.00127778
0.00127793
0.00127861
0.0012787
0.00127854
0.00127841
0.00127836
0.00127764
0.00127785
0.00127837
0.00127798
0.00127772
0.00127805
0.00127858
0.00127843
0.0012781
0.00127784
0.00127799
0.00127778
0.00127819
0.00127859
0.00127787
0.00127802
0.00127849
0.00127814
0.00127839
0.00127851
0.00127832
0.00127765
0.00118376
0.00122791
0.00125761
0.00127232
0.00127818
0.00127964
0.00127949
0.00127952
0.00127949
0.00127941
0.00127929
0.00127906
0.00127885
0.00127853
0.00127832
0.00127792
0.00127782
0.00127803
0.00127786
0.00127753
0.00127737
0.00127723
0.0012766
0.00127644
0.00127656
0.00127674
0.00127665
0.00127655
0.00127658
0.00127597
0.00127599
0.00127648
0.00127622
0.00127647
0.00127712
0.00127738
0.00127737
0.00127785
0.00127862
0.00127886
0.00127905
0.00127851
0.00127887
0.0012794
0.00127936
0.00127947
0.00127937
0.00127948
0.00127927
0.00127957
0.00127995
0.00127968
0.00127985
0.0012799
0.00127972
0.0012797
0.00127971
0.00127973
0.00127946
0.00127855
0.0012785
0.00127892
0.0012787
0.00127877
0.00127862
0.0012781
0.00127828
0.00127872
0.00127853
0.00127831
0.00127831
0.00127833
0.0012781
0.00127777
0.00127805
0.0012788
0.00127876
0.00127868
0.0012779
0.0012779
0.00127842
0.00127809
0.0012784
0.00127859
0.00127843
0.00127812
0.00127789
0.00127814
0.00127818
0.00127768
0.00118369
0.00122795
0.00125785
0.00127246
0.00127672
0.0012769
0.00127701
0.00127696
0.0012767
0.00127645
0.00127713
0.00127823
0.001278
0.00127791
0.00127775
0.00127768
0.00127732
0.00127739
0.00127758
0.0012773
0.00127717
0.00127708
0.00127701
0.00127681
0.00127669
0.00127666
0.00127652
0.00127644
0.00127631
0.00127569
0.0012759
0.00127666
0.00127625
0.00127647
0.00127712
0.00127741
0.00127741
0.00127782
0.00127862
0.00127854
0.00127892
0.00127919
0.00127901
0.00127939
0.0012796
0.00127966
0.00127973
0.00127921
0.0012792
0.00127899
0.00127816
0.00127823
0.00127864
0.00127852
0.00127818
0.00127836
0.001279
0.00127889
0.00127875
0.00127809
0.00127826
0.00127883
0.0012788
0.00127873
0.001278
0.0012781
0.00127869
0.00127826
0.00127857
0.00127887
0.0012788
0.00127875
0.0012781
0.0012783
0.00127867
0.00127832
0.00127872
0.00127893
0.00127884
0.0012788
0.00127808
0.00127818
0.00127866
0.00127831
0.00127841
0.00127842
0.00127831
0.00127836
0.00127818
0.00127744
0.00118363
0.00122794
0.00125816
0.00127205
0.00127668
0.00127719
0.00127701
0.00127651
0.00127664
0.00127746
0.00127739
0.00127707
0.00127625
0.00127632
0.0012769
0.00127683
0.00127654
0.0012761
0.0012759
0.0012752
0.00127536
0.00127578
0.0012756
0.00127526
0.0012754
0.00127582
0.00127523
0.00127559
0.00127626
0.00127588
0.00127584
0.00127623
0.00127666
0.00127683
0.00127718
0.00127749
0.00127761
0.0012774
0.00127776
0.00127815
0.00127783
0.00127768
0.00127773
0.00127751
0.00127784
0.00127843
0.00127827
0.0012782
0.00127821
0.00127803
0.00127832
0.00127847
0.00127833
0.0012779
0.00127781
0.00127825
0.00127819
0.00127797
0.00127825
0.00127875
0.00127865
0.00127857
0.00127792
0.00127812
0.00127835
0.00127783
0.00127811
0.00127857
0.00127809
0.00127806
0.001278
0.00127753
0.00127758
0.00127807
0.00127799
0.00127772
0.00127798
0.0012784
0.00127833
0.00127828
0.00127767
0.00127795
0.00127857
0.00127847
0.00127834
0.00127795
0.00127778
0.00127808
0.00127819
0.0012777
0.00118372
0.00122786
0.00125791
0.00127254
0.00127709
0.00127745
0.00127725
0.00127672
0.00127684
0.00127728
0.00127709
0.00127681
0.0012768
0.00127713
0.00127649
0.00127623
0.00127677
0.00127689
0.0012767
0.00127655
0.00127625
0.00127579
0.00127571
0.00127571
0.00127557
0.00127528
0.00127525
0.00127558
0.0012757
0.00127544
0.00127561
0.00127655
0.00127696
0.00127717
0.00127746
0.0012775
0.00127745
0.00127758
0.00127756
0.0012775
0.00127763
0.00127751
0.00127782
0.00127847
0.00127833
0.00127832
0.00127897
0.00127935
0.00127922
0.00127877
0.00127863
0.00127878
0.00127854
0.00127834
0.00127852
0.00127887
0.00127871
0.00127817
0.00127836
0.00127865
0.00127857
0.00127852
0.00127796
0.00127824
0.00127845
0.00127825
0.00127821
0.0012778
0.00127804
0.00127836
0.00127827
0.00127808
0.00127836
0.00127886
0.00127815
0.00127829
0.00127878
0.0012782
0.00127847
0.00127882
0.00127816
0.00127844
0.0012788
0.0012781
0.00127791
0.00127805
0.00127812
0.00127813
0.00127796
0.00127748
0.00118368
0.00122797
0.00125777
0.00127263
0.001277
0.00127723
0.0012775
0.00127754
0.00127733
0.00127694
0.00127716
0.00127817
0.00127765
0.00127787
0.00127804
0.00127744
0.00127722
0.00127704
0.00127652
0.00127661
0.00127671
0.00127589
0.00127605
0.00127642
0.00127628
0.00127628
0.00127628
0.00127632
0.00127571
0.0012756
0.00127585
0.00127581
0.00127595
0.00127629
0.00127644
0.00127664
0.00127699
0.00127696
0.00127733
0.00127803
0.00127778
0.00127803
0.00127865
0.00127857
0.0012787
0.00127878
0.00127842
0.00127842
0.00127919
0.00127951
0.00127936
0.00127934
0.0012793
0.00127919
0.00127897
0.0012783
0.00127847
0.00127872
0.00127832
0.00127805
0.00127848
0.00127894
0.00127849
0.00127872
0.00127883
0.00127868
0.00127852
0.00127809
0.00127853
0.00127882
0.00127867
0.00127843
0.00127796
0.0012782
0.00127836
0.00127817
0.00127775
0.00127752
0.00127816
0.0012786
0.00127844
0.00127786
0.00127801
0.0012784
0.0012784
0.00127838
0.00127765
0.00127789
0.00127837
0.00127756
0.00118376
0.00122792
0.00125764
0.00127233
0.00127835
0.00127943
0.00127908
0.00127899
0.00127875
0.00127887
0.0012788
0.00127815
0.00127822
0.00127827
0.00127769
0.00127774
0.00127766
0.0012772
0.00127698
0.0012767
0.00127678
0.00127671
0.00127598
0.00127609
0.0012762
0.00127613
0.00127619
0.00127609
0.00127611
0.00127548
0.00127574
0.0012765
0.00127683
0.001277
0.00127728
0.00127804
0.00127848
0.00127868
0.00127833
0.00127863
0.00127932
0.00127952
0.00127958
0.00127907
0.00127939
0.00127983
0.00127988
0.00127992
0.00127955
0.00127957
0.0012796
0.00127953
0.00127919
0.00127886
0.0012791
0.00127927
0.00127908
0.00127847
0.00127836
0.00127911
0.00127926
0.00127906
0.0012784
0.00127846
0.00127891
0.00127824
0.00127835
0.00127876
0.00127859
0.00127837
0.00127836
0.00127837
0.00127813
0.0012778
0.00127808
0.00127883
0.00127875
0.00127861
0.00127793
0.00127811
0.00127863
0.00127852
0.00127839
0.00127773
0.00127784
0.00127846
0.00127828
0.00127831
0.00127817
0.00127762
0.00118366
0.00122791
0.00125807
0.00127247
0.00127616
0.00127605
0.00127631
0.00127708
0.00127674
0.00127669
0.0012764
0.0012758
0.00127558
0.00127576
0.00127551
0.0012758
0.00127598
0.00127558
0.00127539
0.00127522
0.00127486
0.00127503
0.00127574
0.00127515
0.00127543
0.00127575
0.00127549
0.00127567
0.00127572
0.00127566
0.0012758
0.00127629
0.0012767
0.00127671
0.00127723
0.00127801
0.00127834
0.00127863
0.00127897
0.00127933
0.00127941
0.00127963
0.00127977
0.00127988
0.00127991
0.00127993
0.00127984
0.0012798
0.00127982
0.00127973
0.00127889
0.00127879
0.00127932
0.00127937
0.00127921
0.00127864
0.00127845
0.00127893
0.0012792
0.00127898
0.00127842
0.00127815
0.00127852
0.00127883
0.00127865
0.00127802
0.00127822
0.0012788
0.00127868
0.00127853
0.00127806
0.00127783
0.00127795
0.0012778
0.00127814
0.00127887
0.00127832
0.00127862
0.00127899
0.00127867
0.00127879
0.00127882
0.00127867
0.00127828
0.001278
0.00127842
0.00127884
0.00127884
0.00127882
0.00127797
0.00118376
0.00122792
0.00125763
0.00127236
0.00127822
0.00127967
0.0012795
0.0012794
0.00127917
0.00127923
0.00127915
0.00127872
0.00127862
0.00127832
0.00127803
0.00127782
0.00127746
0.00127671
0.00127668
0.00127668
0.00127643
0.00127613
0.00127594
0.00127596
0.00127589
0.00127591
0.00127577
0.00127588
0.00127599
0.00127628
0.00127634
0.00127594
0.00127616
0.00127671
0.00127682
0.00127707
0.00127731
0.00127721
0.00127763
0.00127836
0.0012781
0.00127835
0.00127918
0.00127957
0.00127952
0.00127886
0.0012789
0.00127935
0.00127917
0.00127943
0.00127952
0.0012791
0.00127934
0.00127953
0.00127949
0.00127944
0.00127857
0.00127861
0.00127929
0.00127892
0.0012792
0.00127967
0.00127942
0.00127939
0.00127922
0.00127895
0.00127878
0.00127869
0.00127855
0.00127829
0.00127836
0.00127838
0.00127814
0.00127781
0.00127809
0.00127884
0.00127875
0.00127861
0.00127793
0.00127812
0.00127849
0.00127847
0.00127846
0.00127813
0.00127806
0.0012776
0.00127789
0.00127831
0.00127816
0.00127763
0.00118387
0.00122776
0.00125764
0.00127272
0.00127698
0.00127695
0.0012773
0.00127775
0.00127702
0.0012771
0.00127729
0.00127697
0.00127647
0.00127612
0.00127631
0.00127638
0.001276
0.00127516
0.00127508
0.00127518
0.00127493
0.00127462
0.00127471
0.00127509
0.00127435
0.00127453
0.00127513
0.00127516
0.00127504
0.00127548
0.00127615
0.00127591
0.00127661
0.00127737
0.00127739
0.00127784
0.00127801
0.00127832
0.0012786
0.00127858
0.00127855
0.0012787
0.0012788
0.00127885
0.00127881
0.00127841
0.00127835
0.0012793
0.0012797
0.0012794
0.00127943
0.0012794
0.00127924
0.00127889
0.00127958
0.00128047
0.00128005
0.00128029
0.00128059
0.00128054
0.00128048
0.00127981
0.00127991
0.00128001
0.0012799
0.00127985
0.00127966
0.0012794
0.00127899
0.00127875
0.0012781
0.00127817
0.00127884
0.00127888
0.00127868
0.00127801
0.00127821
0.00127846
0.00127786
0.0012777
0.00127839
0.0012787
0.00127853
0.00127799
0.00127799
0.00127837
0.00127809
0.00127808
0.00127803
0.00127755
0.00118381
0.00122792
0.00125753
0.00127226
0.0012781
0.00127985
0.00127978
0.00127976
0.00127967
0.00127942
0.0012792
0.00127891
0.00127863
0.00127827
0.00127759
0.00127746
0.00127729
0.00127638
0.00127637
0.0012764
0.0012754
0.00127538
0.00127563
0.00127541
0.00127539
0.00127532
0.00127533
0.0012751
0.00127508
0.00127555
0.00127601
0.00127625
0.00127613
0.00127643
0.00127704
0.00127752
0.00127792
0.00127801
0.00127806
0.00127823
0.00127821
0.00127821
0.00127887
0.00127931
0.00127929
0.00127919
0.00127877
0.00127913
0.00127948
0.00127905
0.00127933
0.00127947
0.00127868
0.00127872
0.00127958
0.00127937
0.00127975
0.00128014
0.00127946
0.0012797
0.00127997
0.00127928
0.00127947
0.00127961
0.00127919
0.00127917
0.00127908
0.00127849
0.00127856
0.00127881
0.0012782
0.00127836
0.00127844
0.00127834
0.0012783
0.0012777
0.0012779
0.00127858
0.00127857
0.00127853
0.00127812
0.00127787
0.00127791
0.00127775
0.00127818
0.00127855
0.0012779
0.00127819
0.00127858
0.00127771
0.00118376
0.00122792
0.00125762
0.00127236
0.00127814
0.0012801
0.00128004
0.00127977
0.00127962
0.00127939
0.00127919
0.00127873
0.00127838
0.00127816
0.00127787
0.00127758
0.001277
0.00127687
0.00127672
0.00127586
0.00127588
0.00127596
0.00127557
0.0012754
0.00127532
0.00127539
0.00127545
0.00127549
0.00127486
0.00127523
0.00127594
0.00127569
0.00127605
0.00127667
0.0012769
0.00127724
0.00127755
0.00127747
0.00127789
0.00127861
0.00127852
0.00127863
0.00127902
0.00127928
0.00127944
0.00127945
0.00127937
0.0012796
0.00127972
0.0012796
0.00127954
0.00127892
0.00127907
0.00127993
0.00127956
0.00127988
0.00128024
0.00128003
0.00127998
0.00127996
0.0012799
0.00127951
0.00127949
0.0012793
0.00127875
0.00127892
0.00127915
0.0012784
0.00127842
0.00127898
0.00127895
0.00127893
0.00127887
0.00127836
0.00127823
0.00127853
0.0012788
0.00127867
0.00127838
0.00127832
0.00127777
0.00127803
0.00127863
0.00127853
0.00127839
0.00127768
0.00127779
0.00127832
0.00127826
0.0012778
0.00118381
0.00122792
0.00125753
0.00127224
0.00127814
0.00127963
0.00127944
0.00127952
0.00127947
0.00127901
0.0012788
0.00127858
0.00127835
0.00127769
0.00127755
0.00127736
0.00127641
0.00127637
0.00127638
0.00127534
0.00127527
0.00127549
0.00127499
0.00127491
0.00127481
0.00127429
0.00127434
0.00127485
0.00127485
0.00127495
0.00127526
0.00127538
0.00127585
0.00127699
0.0012778
0.00127823
0.0012788
0.00127916
0.00127945
0.00127952
0.00127899
0.00127883
0.00127899
0.00127873
0.00127873
0.00127895
0.00127878
0.00127867
0.00127915
0.00127955
0.00127948
0.00127941
0.0012787
0.00127867
0.00127962
0.00127951
0.00127986
0.00128032
0.00128006
0.00128006
0.00128
0.00128002
0.00127989
0.00127985
0.00127966
0.00127903
0.00127915
0.00127931
0.00127873
0.00127873
0.00127887
0.00127887
0.00127879
0.00127869
0.00127863
0.00127843
0.00127803
0.00127833
0.00127853
0.00127836
0.00127782
0.00127775
0.00127809
0.00127761
0.00127788
0.00127828
0.00127753
0.00127756
0.00127801
0.00127741
0.0011838
0.00122796
0.00125736
0.00127271
0.0012776
0.0012781
0.00127824
0.00127804
0.00127743
0.00127754
0.00127757
0.00127721
0.00127679
0.00127631
0.00127633
0.00127626
0.00127595
0.00127572
0.00127536
0.00127467
0.00127429
0.00127486
0.00127531
0.00127516
0.00127516
0.001275
0.00127487
0.00127424
0.00127454
0.0012753
0.00127525
0.00127555
0.00127608
0.00127647
0.00127695
0.00127736
0.00127766
0.00127816
0.00127851
0.00127832
0.00127862
0.00127916
0.00127922
0.00127943
0.00127932
0.00127927
0.00127935
0.00127934
0.00127884
0.00127884
0.00128017
0.0012818
0.00128173
0.00128164
0.00128151
0.00128147
0.00128143
0.00128129
0.00128117
0.0012805
0.00128056
0.00128066
0.00128025
0.00128011
0.00128
0.00128003
0.00127996
0.00127974
0.00127976
0.00127977
0.00127957
0.0012789
0.00127892
0.00127909
0.00127894
0.00127894
0.00127891
0.00127857
0.00127855
0.00127854
0.00127781
0.001278
0.00127826
0.00127755
0.0012776
0.00127808
0.00127786
0.00127791
0.00127787
0.00127739
0.00118375
0.00122787
0.00125785
0.00127249
0.00127664
0.00127684
0.00127632
0.00127626
0.00127653
0.00127635
0.00127611
0.0012758
0.00127526
0.0012753
0.00127592
0.00127559
0.00127518
0.00127445
0.00127457
0.00127524
0.00127556
0.00127541
0.00127482
0.00127476
0.00127457
0.00127409
0.00127436
0.00127501
0.00127491
0.00127513
0.00127545
0.00127549
0.0012762
0.00127721
0.0012771
0.00127779
0.00127866
0.00127915
0.00127954
0.00127901
0.00127942
0.00127995
0.00127987
0.00127996
0.00127955
0.00127981
0.00127997
0.00127981
0.00127932
0.00127923
0.00127934
0.00127875
0.00127857
0.00127893
0.00127917
0.00127907
0.00127909
0.00127886
0.00127804
0.00127796
0.0012784
0.00127787
0.00127777
0.00127809
0.00127796
0.00127819
0.00127823
0.00127768
0.00127791
0.00127863
0.00127857
0.00127851
0.00127845
0.00127834
0.00127824
0.00127795
0.00127816
0.0012787
0.00127871
0.0012787
0.00127839
0.00127831
0.00127767
0.00127788
0.00127826
0.00127764
0.00127749
0.00127792
0.00127803
0.00127765
0.00118376
0.00122792
0.00125763
0.0012723
0.00127837
0.00127932
0.00127899
0.00127887
0.00127866
0.00127849
0.00127811
0.00127807
0.00127796
0.00127754
0.0012768
0.00127661
0.00127653
0.00127606
0.00127577
0.00127543
0.00127538
0.0012754
0.00127508
0.00127469
0.00127463
0.00127454
0.00127449
0.00127431
0.00127445
0.00127509
0.00127563
0.00127581
0.0012766
0.00127726
0.00127779
0.00127831
0.00127788
0.00127841
0.00127895
0.00127879
0.00127906
0.0012793
0.00127948
0.00127933
0.00127928
0.00127897
0.00127931
0.00127981
0.00127956
0.00127951
0.00127917
0.00127949
0.00128133
0.0012819
0.00128165
0.00128158
0.00128147
0.00128141
0.00128135
0.00128136
0.00128122
0.001281
0.00128063
0.00128062
0.00128058
0.00127984
0.00127992
0.00128006
0.00127945
0.00127972
0.00127998
0.00127962
0.00127975
0.00127997
0.00127984
0.0012797
0.00127958
0.00127942
0.00127917
0.00127887
0.00127862
0.00127786
0.00127793
0.00127847
0.00127851
0.00127851
0.00127771
0.00127789
0.00127826
0.00127745
0.00118376
0.00122792
0.00125762
0.00127234
0.00127817
0.00127974
0.00127962
0.00127932
0.00127933
0.00127922
0.00127881
0.0012786
0.0012783
0.00127803
0.00127732
0.00127715
0.00127695
0.00127598
0.00127594
0.00127594
0.00127562
0.00127523
0.00127514
0.00127519
0.00127511
0.00127516
0.00127513
0.00127527
0.00127467
0.00127507
0.00127582
0.00127564
0.00127618
0.00127712
0.0012775
0.00127784
0.00127845
0.00127901
0.00127912
0.00127976
0.00128027
0.00128044
0.0012806
0.00127999
0.00128027
0.00128053
0.00128044
0.00128055
0.0012804
0.00128021
0.00127954
0.00127969
0.00128137
0.00128203
0.00128174
0.00128186
0.00128186
0.00128161
0.00128154
0.00128139
0.00128112
0.00128096
0.00128098
0.00128093
0.00128026
0.00128032
0.00128043
0.0012799
0.00128014
0.0012803
0.00128023
0.00128019
0.00128002
0.00127999
0.0012798
0.00127972
0.00127942
0.00127948
0.00127927
0.00127921
0.00127911
0.00127854
0.00127831
0.00127835
0.00127783
0.00127777
0.00127843
0.00127858
0.00127841
0.00127772
0.00118372
0.00122784
0.00125801
0.00127241
0.0012765
0.0012776
0.00127742
0.00127663
0.00127633
0.00127634
0.00127615
0.00127592
0.00127541
0.00127586
0.00127698
0.00127631
0.00127615
0.00127675
0.00127653
0.00127606
0.00127525
0.00127515
0.00127525
0.0012743
0.00127435
0.00127475
0.00127457
0.00127478
0.00127515
0.00127554
0.00127551
0.00127579
0.00127631
0.00127675
0.00127706
0.00127768
0.00127823
0.00127815
0.00127876
0.00127964
0.00127987
0.00128011
0.00128017
0.00128016
0.0012802
0.00128027
0.00128024
0.00128
0.0012801
0.00128018
0.00127936
0.00127947
0.0012796
0.00127943
0.00127907
0.00127899
0.00127964
0.00127944
0.00127943
0.00127933
0.0012793
0.00127888
0.00127907
0.00127948
0.00127936
0.00127929
0.00127867
0.00127887
0.00127933
0.00127907
0.00127901
0.00127895
0.00127854
0.00127838
0.00127863
0.00127866
0.00127832
0.00127854
0.00127895
0.00127815
0.00127826
0.00127862
0.00127786
0.00127802
0.00127834
0.00127832
0.00127831
0.00127808
0.00127802
0.00127733
0.00118376
0.00122795
0.00125751
0.00127264
0.00127774
0.00127803
0.00127833
0.00127854
0.00127788
0.00127795
0.00127809
0.00127775
0.00127748
0.00127697
0.00127667
0.00127629
0.0012754
0.00127525
0.00127534
0.00127483
0.00127455
0.00127402
0.00127423
0.00127439
0.00127382
0.00127419
0.00127473
0.00127447
0.00127447
0.00127503
0.00127559
0.00127562
0.00127642
0.00127712
0.00127766
0.00127822
0.0012783
0.0012786
0.00127877
0.00127833
0.00127862
0.00127928
0.0012789
0.0012789
0.00127917
0.00127925
0.00127933
0.00127919
0.0012787
0.00127879
0.00127963
0.00127956
0.00127935
0.00127888
0.00127852
0.00127881
0.00127891
0.00127849
0.00127877
0.0012791
0.00127896
0.0012789
0.00127877
0.00127864
0.00127794
0.00127773
0.00127798
0.00127761
0.00127763
0.00127835
0.00127847
0.00127834
0.00127803
0.00127813
0.00127816
0.00127781
0.00127806
0.00127817
0.00127775
0.00127747
0.00127795
0.00127849
0.00127837
0.00127818
0.00127772
0.00127762
0.00127723
0.00127725
0.00127764
0.0012772
0.00118376
0.00122792
0.00125762
0.00127232
0.00127827
0.00127946
0.00127922
0.00127917
0.00127889
0.00127881
0.00127865
0.00127824
0.00127811
0.00127791
0.0012775
0.00127692
0.0012766
0.0012763
0.00127555
0.0012754
0.00127549
0.00127504
0.00127502
0.00127494
0.00127481
0.00127489
0.00127476
0.00127409
0.00127433
0.00127509
0.00127517
0.00127555
0.0012761
0.00127669
0.00127687
0.00127754
0.00127839
0.00127884
0.00127922
0.00127886
0.00127918
0.00127952
0.00127958
0.00127952
0.00127911
0.00127911
0.00127897
0.00127938
0.00127994
0.00127981
0.00127975
0.00127943
0.00127932
0.00127914
0.00127892
0.00127872
0.00127822
0.00127843
0.00127896
0.0012787
0.00127832
0.00127852
0.00127899
0.00127892
0.00127886
0.00127848
0.00127834
0.0012777
0.0012777
0.00127814
0.001278
0.00127775
0.0012781
0.00127853
0.00127842
0.00127828
0.00127784
0.00127773
0.00127735
0.00127733
0.0012777
0.0012774
0.00127772
0.00127824
0.00127819
0.00127817
0.00127769
0.00127801
0.00127823
0.00127764
0.00118376
0.00122792
0.00125762
0.00127235
0.00127812
0.00128007
0.00127999
0.00127959
0.00127941
0.00127914
0.00127894
0.0012787
0.0012785
0.00127818
0.00127775
0.00127705
0.0012769
0.00127671
0.00127575
0.00127571
0.00127577
0.00127485
0.00127488
0.0012753
0.00127521
0.00127526
0.0012753
0.00127543
0.00127568
0.00127601
0.00127635
0.00127652
0.00127683
0.00127725
0.0012772
0.00127793
0.00127881
0.00127926
0.00127968
0.00127973
0.00127955
0.0012799
0.0012803
0.00128027
0.00127983
0.00127986
0.00128002
0.00128001
0.00127997
0.00127921
0.00127913
0.00128035
0.0012821
0.0012822
0.00128189
0.00128192
0.00128187
0.00128158
0.00128139
0.00128124
0.00128107
0.00128099
0.00128095
0.00128084
0.00128017
0.00128021
0.00128032
0.0012797
0.00127994
0.00128012
0.00127978
0.00127976
0.00127967
0.00127969
0.0012796
0.00127895
0.001279
0.00127911
0.00127891
0.0012789
0.00127886
0.00127884
0.00127837
0.00127848
0.0012786
0.00127844
0.00127818
0.00127772
0.0012776
0.00127723
0.00118376
0.00122792
0.00125762
0.00127234
0.00127817
0.00127974
0.00127963
0.00127933
0.00127934
0.00127923
0.00127882
0.0012786
0.00127831
0.00127804
0.00127734
0.00127716
0.00127696
0.00127599
0.00127594
0.00127595
0.00127564
0.00127544
0.00127513
0.0012749
0.00127474
0.00127478
0.00127484
0.00127492
0.00127465
0.00127486
0.0012755
0.00127559
0.00127622
0.00127716
0.0012775
0.00127784
0.00127845
0.00127902
0.00127913
0.00127977
0.00128027
0.00128045
0.00128061
0.00128
0.00128028
0.00128053
0.00128043
0.00128041
0.0012804
0.00128034
0.0012796
0.00127976
0.00128134
0.00128148
0.00128137
0.00128122
0.00128119
0.00128116
0.00128081
0.00128071
0.00128028
0.00128045
0.00128055
0.00127998
0.00128015
0.00128022
0.0012799
0.00127983
0.00127976
0.00127921
0.00127932
0.0012795
0.0012794
0.00127936
0.00127908
0.00127893
0.00127814
0.00127806
0.00127852
0.00127815
0.00127844
0.00127866
0.0012781
0.00127837
0.00127853
0.00127837
0.00127803
0.0012779
0.00127804
0.00127741
0.00118376
0.00122792
0.00125763
0.00127229
0.00127837
0.00127932
0.00127899
0.00127888
0.00127876
0.0012786
0.00127829
0.00127802
0.00127751
0.00127745
0.00127744
0.00127702
0.00127626
0.00127608
0.00127596
0.0012755
0.0012752
0.00127488
0.00127469
0.00127406
0.00127421
0.00127446
0.00127406
0.00127464
0.00127539
0.00127581
0.0012763
0.00127657
0.00127706
0.00127754
0.00127807
0.0012782
0.0012785
0.00127873
0.00127839
0.00127888
0.00127939
0.00127957
0.00127973
0.00127946
0.00127946
0.00127901
0.0012793
0.0012798
0.00127977
0.00127972
0.00127918
0.00127947
0.0012814
0.00128164
0.00128133
0.00128116
0.00128117
0.00128122
0.00128108
0.00128097
0.00128025
0.00128022
0.00128058
0.00128052
0.00128038
0.00127959
0.00127963
0.00127983
0.00127908
0.00127927
0.0012797
0.00127961
0.00127951
0.00127869
0.00127862
0.00127912
0.00127927
0.00127916
0.00127907
0.00127892
0.00127872
0.00127815
0.00127804
0.00127834
0.00127788
0.0012778
0.00127838
0.00127853
0.00127834
0.00127764
0.00118375
0.00122786
0.00125787
0.00127242
0.00127679
0.00127721
0.00127698
0.00127635
0.00127631
0.00127705
0.00127699
0.00127661
0.00127577
0.00127571
0.00127598
0.00127548
0.00127524
0.00127499
0.00127455
0.00127436
0.00127412
0.00127435
0.00127501
0.00127426
0.00127447
0.00127496
0.00127431
0.00127451
0.00127529
0.00127571
0.00127612
0.00127602
0.00127642
0.00127713
0.00127767
0.00127787
0.00127845
0.00127931
0.00127966
0.00127974
0.00128009
0.00128037
0.00128043
0.00128062
0.00128056
0.00128051
0.00128046
0.00128044
0.00128031
0.00128029
0.0012803
0.00128012
0.00127976
0.00127895
0.00127851
0.00127868
0.00127868
0.0012783
0.00127845
0.00127912
0.00127902
0.00127884
0.00127819
0.00127836
0.00127913
0.00127904
0.001279
0.00127894
0.00127866
0.00127843
0.00127895
0.00127939
0.00127923
0.00127924
0.00127921
0.00127906
0.00127895