/*--------------------------------*- C++ -*----------------------------------*\
  =========                 |
  \\      /  F ield         | OpenFOAM: The Open Source CFD Toolbox
   \\    /   O peration     | Website:  https://openfoam.org
    \\  /    A nd           | Version:  11
     \\/     M anipulation  |
\*---------------------------------------------------------------------------*/
FoamFile
{
    format      ascii;
    class       volScalarField;
    location    "0.044";
    object      omega;
}
// * * * * * * * * * * * * * * * * * * * * * * * * * * * * * * * * * * * * * //

dimensions      [0 0 -1 0 0 0 0];

internalField   nonuniform List<scalar> 
287084
(
55.0539
56.0474
56.6755
56.9568
57.026
57.0282
57.0247
57.0138
57.0181
57.0345
57.0349
57.0356
57.0322
57.0273
57.0249
57.0174
57.0245
57.0418
57.0296
57.0368
57.0453
57.0377
57.0377
57.0384
57.0379
57.0257
57.029
57.0394
57.0385
57.0375
57.0323
57.0271
57.014
57.0094
57.0211
57.0277
57.0239
57.0242
57.0223
57.0075
57.0108
57.021
57.0064
57.0038
57.0087
57.0078
57.0034
57.0117
57.0203
57.0099
57.014
57.0152
57.0149
57.0148
56.9994
57.0043
57.0153
57.0108
57.0116
57.0072
57.0068
56.9999
57.0057
57.0218
57.0243
57.0213
57.0043
57.009
57.0199
57.0172
57.0169
57.0072
57.0127
57.0268
57.025
57.0265
57.0253
57.0113
57.0119
57.0233
57.0272
57.0244
57.0178
57.0179
57.0135
56.9984
57.0012
57.0141
57.0134
57.0082
55.0571
56.0378
56.6673
56.956
57.0241
57.0241
57.0244
57.0221
57.0297
57.0333
57.0297
57.0224
57.019
57.0221
57.0154
57.0122
57.021
57.0249
57.0148
57.0163
57.0316
57.0312
57.0374
57.0433
57.0404
57.0313
57.0366
57.0454
57.0282
57.0324
57.0385
57.0226
57.0189
57.0232
57.023
57.0212
57.0199
57.0143
57.0226
57.0315
57.0309
57.0305
57.0153
57.021
57.0279
57.0257
57.0237
57.0173
57.0137
57.0106
57.0024
57.0069
57.0185
57.0157
57.0055
57.0059
57.0159
57.004
57.0096
57.0209
57.0164
57.0167
57.017
57.017
57.0058
57.012
57.0232
57.0218
57.0201
57.0134
57.0229
57.0317
57.028
57.0132
57.0106
57.0192
57.0123
57.0198
57.0248
57.0163
57.0162
57.016
57.0071
57.011
57.0152
57.0131
57.0117
57.0043
57.0059
56.9976
55.0571
56.0371
56.6669
56.9531
57.027
57.0426
57.04
57.0267
57.0266
57.0396
57.0439
57.0414
57.039
57.0389
57.0298
57.0336
57.0418
57.0399
57.0392
57.0271
57.0279
57.0285
57.035
57.0526
57.0523
57.0483
57.033
57.0365
57.0441
57.0266
57.0283
57.0393
57.0254
57.0266
57.0371
57.025
57.0287
57.0408
57.0364
57.0365
57.0362
57.0283
57.0291
57.032
57.0301
57.0234
57.0252
57.03
57.0301
57.03
57.0117
57.0144
57.0201
57.0052
57.0109
57.0221
57.0048
57.005
57.0164
57.0213
57.0187
57.0077
57.0065
57.004
57.0151
57.0262
57.024
57.02
57.017
57.0186
57.0203
57.0204
57.0047
57.0095
57.019
57.0028
57.0021
57.014
57.0123
57.0126
57.0087
57.0177
57.0246
57.0083
57.0127
57.0222
57.0049
57.0087
57.0172
56.9997
55.0562
56.0396
56.662
56.9517
57.0366
57.0509
57.0463
57.0465
57.0418
57.0443
57.049
57.0462
57.0434
57.0319
57.0387
57.0458
57.0435
57.0411
57.03
57.0304
57.0352
57.0328
57.0258
57.0265
57.0316
57.0309
57.0226
57.02
57.0352
57.0433
57.0404
57.0353
57.0248
57.0219
57.0205
57.0182
57.0171
57.0121
57.0197
57.0337
57.0275
57.0277
57.0228
57.0257
57.0268
57.0245
57.0238
57.0117
57.0121
57.0176
57.0163
57.0163
57.0131
57.0016
57.0047
57.0181
57.0049
57.0099
57.021
57.021
57.0209
57.0061
57.0133
57.0275
57.0208
57.0242
57.0262
57.021
57.0266
57.0285
57.0118
57.016
57.0246
57.0098
57.0112
57.0241
57.0217
57.029
57.0322
57.0278
57.0163
57.0114
57.0213
57.0248
57.0211
57.0066
57.0098
57.0184
57.0163
57.009
55.0562
56.0394
56.661
56.9535
57.0335
57.0365
57.0294
57.0358
57.0449
57.0296
57.0352
57.0416
57.0407
57.0406
57.0274
57.0321
57.0343
57.0303
57.0299
57.03
57.0238
57.0297
57.0462
57.0378
57.0385
57.0376
57.0269
57.0295
57.04
57.036
57.0348
57.0318
57.0226
57.0285
57.0433
57.0294
57.0352
57.045
57.0425
57.0395
57.0218
57.0225
57.0308
57.03
57.0272
57.0111
57.0149
57.0226
57.0066
57.0113
57.0226
57.013
57.0066
57.0048
56.9998
57.0073
57.0223
57.0145
57.0152
57.0145
57.0047
57.007
57.0191
57.0057
57.009
57.0197
57.01
57.0066
57.0087
57.0027
57.0083
57.0278
57.0297
57.0259
57.0106
57.0151
57.0253
57.0169
57.0184
57.0153
57.0043
57.0081
57.0212
57.0079
57.0139
57.0239
57.0083
57.0137
57.0238
57.0055
55.0549
56.0411
56.6645
56.9448
57.0088
57.0016
57.0039
57.028
57.0327
57.0288
57.0206
57.0133
57.0186
57.016
57.0256
57.0401
57.0302
57.0298
57.0293
57.0306
57.0299
57.0198
57.0231
57.0348
57.0292
57.0229
57.0299
57.0376
57.0349
57.0259
57.0248
57.0362
57.0342
57.0351
57.0345
57.0254
57.021
57.0226
57.016
57.0127
57.0143
57.0064
57.0096
57.0213
57.0094
57.0118
57.0237
57.018
57.0191
57.0182
57.0078
57.0061
57.0228
57.0264
57.0246
57.024
57.0098
57.0121
57.0192
57.0193
57.0191
57.0037
57.0089
57.0225
57.0182
57.0208
57.0252
57.024
57.0207
57.0116
57.0176
57.0298
57.0154
57.0212
57.0288
57.0116
57.0149
57.0252
57.0096
57.0121
57.0223
57.0105
57.0174
57.0266
57.0206
57.0206
57.0197
57.0208
57.0204
57.0082
55.0528
56.0439
56.6638
56.9469
57.0142
57.0066
57.0136
57.0246
57.0236
57.024
57.0151
57.0398
57.064
57.0565
57.0547
57.0635
57.0676
57.0651
57.0652
57.0598
57.0595
57.0591
57.0481
57.0513
57.0557
57.0544
57.0542
57.0409
57.043
57.0436
57.0321
57.038
57.0459
57.0277
57.0268
57.0356
57.0242
57.0268
57.04
57.0411
57.0399
57.0234
57.0272
57.0366
57.0337
57.0332
57.0229
57.0264
57.0275
57.0241
57.0141
57.0181
57.0238
57.0151
57.0082
57.0151
57.0225
57.021
57.0205
57.0124
57.0101
56.9984
57.0038
57.0165
57.0169
57.0169
57.0143
57.0136
56.9989
57.0048
57.0164
57.0057
57.0013
57.0115
57.0227
57.0193
57.0087
57.0058
57.0132
57.0078
57.0167
57.0246
57.0089
57.0133
57.0238
57.0168
57.0216
57.0234
57.0195
57.0048
55.0555
56.0415
56.6586
56.9458
57.0543
57.0812
57.0794
57.08
57.0801
57.0807
57.081
57.0784
57.0732
57.069
57.0671
57.0647
57.0673
57.0754
57.0748
57.0698
57.0699
57.0676
57.051
57.0509
57.0549
57.0551
57.0551
57.0509
57.049
57.03
57.0295
57.0403
57.0273
57.0286
57.0386
57.0385
57.0322
57.0373
57.049
57.0481
57.0477
57.0324
57.0372
57.0453
57.0436
57.0441
57.0365
57.0354
57.0321
57.0388
57.0456
57.0406
57.0427
57.0432
57.0413
57.0415
57.0391
57.0367
57.0313
57.0134
57.0153
57.0263
57.0184
57.0183
57.018
57.0082
57.0128
57.0228
57.0171
57.0132
57.0142
57.015
57.009
57.0028
57.0119
57.0283
57.0263
57.0234
57.0077
57.0102
57.0231
57.0147
57.0213
57.0247
57.0214
57.0113
57.0089
57.0158
57.0162
57.0071
55.0539
56.0427
56.6638
56.9459
57.0164
57.0166
57.0206
57.0212
57.0169
57.0142
57.0368
57.0621
57.0609
57.0625
57.062
57.064
57.0583
57.0621
57.0689
57.0675
57.0676
57.0673
57.0644
57.0617
57.0626
57.0592
57.0517
57.0477
57.043
57.0281
57.0313
57.0443
57.0283
57.029
57.0388
57.0386
57.0319
57.0355
57.0485
57.0411
57.0435
57.045
57.0389
57.043
57.0442
57.0432
57.0424
57.0275
57.0245
57.0196
57.0027
57.0058
57.0151
57.0097
57.0026
57.0088
57.0198
57.0198
57.0197
57.0041
57.0091
57.0226
57.0204
57.0176
57.0038
57.0084
57.0226
57.0128
57.0202
57.0263
57.0245
57.0238
57.0109
57.0162
57.0243
57.018
57.027
57.0309
57.0285
57.0279
57.0129
57.0166
57.0277
57.0202
57.0209
57.0211
57.0187
57.0169
57.0148
57.0007
55.0523
56.043
56.6702
56.9355
57.0162
57.0235
57.0206
57.0112
57.0185
57.0365
57.0387
57.0357
57.0194
57.026
57.039
57.0397
57.0398
57.0327
57.0316
57.0208
57.028
57.0393
57.0355
57.0297
57.035
57.0439
57.0301
57.0366
57.0481
57.0332
57.0294
57.0339
57.0341
57.0342
57.036
57.0369
57.0338
57.0226
57.0251
57.0283
57.0138
57.0078
57.0082
56.9993
57.0037
57.0144
57.0065
57.0012
57.0001
56.9985
57.0058
57.0083
57.005
56.9953
56.9959
57.0075
57.0024
56.9979
57.0067
57.0176
57.015
57.0105
56.9996
57.0063
57.0114
57.0014
57.0086
57.0184
57.0093
57.0103
57.0072
56.9967
57
57.0121
57.0075
57.0022
57.0101
57.0193
57.0171
57.0142
57.0032
57.0114
57.0213
57.0216
57.0216
57.009
57.0065
57.0147
57.0165
57.0074
55.0544
56.0406
56.6652
56.9474
57.025
57.0289
57.0258
57.0157
57.0224
57.0343
57.0336
57.0305
57.0344
57.0455
57.0311
57.0306
57.0496
57.0538
57.0528
57.0527
57.0484
57.0411
57.0423
57.0437
57.0412
57.0346
57.035
57.0412
57.0394
57.0285
57.029
57.0439
57.045
57.0423
57.0405
57.0334
57.0243
57.0214
57.0143
57.0106
57.0116
57.0036
57.0069
57.0186
57.0093
57.0077
57.023
57.0284
57.0245
57.0102
57.0097
57.0164
57.0068
57.0033
57.0091
57.0169
57.0139
57.0021
57.0078
57.0143
57.0124
57.0119
57.0016
57.0086
57.0132
57.0115
57.0116
57.002
57.0075
57.0145
57.0133
57.0095
57.017
57.028
57.0125
57.0169
57.0283
57.0153
57.0217
57.0291
57.0151
57.0219
57.0294
57.0109
57.009
57.016
57.0145
57.0145
57.0111
57.001
55.0535
56.043
56.662
56.9495
57.0224
57.0232
57.0314
57.0342
57.0321
57.0263
57.0373
57.0629
57.0546
57.063
57.0698
57.0615
57.0619
57.0619
57.0532
57.0581
57.0629
57.0482
57.0546
57.0636
57.0635
57.0635
57.059
57.0564
57.0372
57.0331
57.0366
57.0253
57.0224
57.0261
57.0181
57.0155
57.0193
57.0106
57.0127
57.023
57.0109
57.0128
57.0236
57.0178
57.0186
57.0177
57.0069
57.0071
57.0234
57.0282
57.0265
57.0266
57.0229
57.0174
57.0136
57.0017
57.0076
57.0134
57.0033
56.9989
57.012
57.0218
57.0133
57.0186
57.0212
57.0177
57.0114
57.0057
57.0187
57.0244
57.0207
57.0123
57.0055
57.0132
57.0164
57.0129
57.0004
56.9982
57.0159
57.0241
57.0206
57.0076
57.0122
57.0205
57.0202
57.02
57.0047
57.0109
57.0211
57.0034
55.0555
56.0414
56.6587
56.945
57.0565
57.0747
57.0688
57.0699
57.067
57.0708
57.072
57.0626
57.0675
57.072
57.0647
57.0692
57.071
57.0672
57.0673
57.0648
57.0682
57.0693
57.0564
57.0601
57.0629
57.0606
57.0602
57.0547
57.0494
57.0329
57.0352
57.0464
57.0449
57.0372
57.0369
57.0474
57.0482
57.0474
57.0312
57.0331
57.0408
57.041
57.0407
57.0244
57.0294
57.0366
57.0356
57.0355
57.0281
57.0283
57.0292
57.0279
57.0166
57.0114
57.019
57.0229
57.0194
57.0064
57.0072
57.0246
57.0268
57.0239
57.0094
57.013
57.0244
57.0088
57.0126
57.0226
57.0172
57.0132
57.0141
57.0148
57.0088
57.0025
57.0118
57.025
57.0255
57.0255
57.009
57.0137
57.0218
57.0221
57.022
57.0059
57.0098
57.0244
57.0174
57.0173
57.0169
57.0052
55.0529
56.0419
56.6685
56.9441
57.0049
56.9994
57.007
57.0264
57.0187
57.0182
57.0181
57.0105
57.0107
57.0203
57.0181
57.0285
57.0357
57.0334
57.0342
57.0333
57.0289
57.0371
57.0549
57.0435
57.0507
57.0566
57.0478
57.0476
57.0471
57.0385
57.0363
57.0406
57.0409
57.0344
57.0371
57.0462
57.043
57.0418
57.0425
57.0441
57.0425
57.0433
57.0392
57.0353
57.0333
57.0331
57.0325
57.0328
57.0298
57.0255
57.0087
57.0097
57.0208
57.0217
57.0212
57.0051
57.0033
57.0175
57.0228
57.0189
57.0038
57.0014
57.0129
57.0194
57.0169
57.0029
57.0094
57.0192
57.0195
57.0195
57.0052
57.002
57.009
57.0055
57.0133
57.0292
57.0172
57.0245
57.0323
57.027
57.0283
57.029
57.0276
57.0152
57.0107
57.0227
57.0311
57.0304
57.0299
57.0122
55.0555
56.0414
56.6586
56.9456
57.0541
57.081
57.0791
57.0797
57.0772
57.0799
57.0813
57.075
57.0745
57.0742
57.0724
57.0705
57.0703
57.0602
57.0638
57.068
57.0669
57.0638
57.0642
57.0669
57.0634
57.0632
57.0607
57.0611
57.0559
57.0531
57.0475
57.0296
57.029
57.0358
57.024
57.0178
57.0178
57.009
57.0114
57.0215
57.0088
57.0107
57.0241
57.0288
57.0259
57.0084
57.01
57.0203
57.0151
57.0196
57.0213
57.0141
57.0195
57.024
57.0235
57.0233
57.0057
57.0095
57.0267
57.0183
57.0254
57.0361
57.0301
57.0295
57.0266
57.0197
57.0165
57.0153
57.0149
57.0127
57.0139
57.0147
57.0087
57.0024
57.0117
57.0249
57.0255
57.0254
57.0089
57.0136
57.0217
57.0209
57.0206
57.0125
57.0112
57.0032
57.0105
57.0192
57.0159
57.0044
55.0581
56.0374
56.6596
56.9518
57.0245
57.0203
57.0293
57.0406
57.0277
57.0329
57.0404
57.0375
57.0275
57.0271
57.0382
57.0437
57.0412
57.0268
57.0307
57.0373
57.0362
57.0332
57.0394
57.0491
57.0339
57.0383
57.0498
57.0446
57.037
57.0421
57.0487
57.035
57.0411
57.0475
57.0359
57.035
57.0323
57.0327
57.0286
57.0175
57.0107
57.0094
57.0076
57.0055
57.0027
56.9948
56.9952
57.0166
57.0228
57.0177
57.02
57.0171
57.0107
57.0072
57.0277
57.0466
57.039
57.0452
57.0522
57.0518
57.0517
57.0389
57.0418
57.0446
57.0427
57.0425
57.0384
57.0303
57.0218
57.0188
57.0074
57.0117
57.0247
57.0268
57.0239
57.0086
57.0144
57.0196
57.0041
57.0027
57.0214
57.0265
57.0229
57.0108
57.0128
57.0222
57.0155
57.0163
57.0133
57.0026
55.0567
56.0411
56.6563
56.9434
57.052
57.0856
57.0854
57.0847
57.0839
57.0819
57.0803
57.0782
57.0766
57.0748
57.0675
57.0699
57.0715
57.0572
57.0628
57.068
57.0505
57.0546
57.0628
57.0593
57.0588
57.0565
57.0557
57.0454
57.0411
57.0455
57.047
57.0435
57.0265
57.0253
57.0318
57.0317
57.0286
57.0176
57.0098
57.0068
57.0001
56.9983
57.0113
57.0166
57.013
57.0056
56.9985
57.0085
57.0153
57.0074
57.0139
57.0168
57.0008
57.0047
57.0268
57.0218
57.0312
57.0399
57.0266
57.0334
57.0398
57.0261
57.0315
57.035
57.0283
57.0301
57.0269
57.0139
57.0168
57.0229
57.0107
57.0144
57.0163
57.0142
57.0136
57.0023
57.0082
57.0239
57.022
57.0192
57.0097
57.0069
57.0115
57.0077
57.0169
57.0241
57.0103
57.0173
57.0253
57.0064
55.0555
56.0414
56.6585
56.9457
57.0534
57.0887
57.0894
57.0856
57.0854
57.0838
57.0808
57.0781
57.0782
57.0769
57.0728
57.0701
57.0663
57.0705
57.0723
57.0594
57.065
57.0705
57.0638
57.0632
57.0636
57.0649
57.0627
57.0571
57.0384
57.0411
57.0479
57.0285
57.0278
57.0338
57.0232
57.0172
57.0167
57.0074
57.0092
57.0187
57.0063
57.0049
57.0134
57.0131
57.0128
57.0113
57.0099
57.0159
57.0181
57.0155
57.0151
57.0037
57.0098
57.031
57.0231
57.0314
57.0399
57.0384
57.0393
57.0373
57.0353
57.0272
57.0271
57.0269
57.0175
57.0221
57.0275
57.0121
57.0149
57.0291
57.0291
57.0294
57.0279
57.0126
57.0123
57.021
57.0234
57.0237
57.0168
57.0157
57.0055
57.0125
57.0222
57.0226
57.0225
57.005
57.0089
57.0212
57.0191
57.0088
55.0567
56.0411
56.6563
56.9433
57.0529
57.0807
57.0787
57.0816
57.0832
57.0788
57.0791
57.0758
57.0741
57.0671
57.0695
57.0708
57.0565
57.062
57.0674
57.0502
57.0544
57.0636
57.057
57.0589
57.0554
57.0422
57.043
57.051
57.0401
57.035
57.0356
57.0264
57.0265
57.0395
57.0439
57.0416
57.0406
57.0386
57.036
57.0312
57.0116
57.0062
57.0091
56.9961
56.9953
57.0024
56.9936
56.9918
57.0053
57.0134
57.0121
57.0114
56.9982
57.0008
57.026
57.023
57.0315
57.0422
57.0396
57.0418
57.0417
57.0438
57.0386
57.0361
57.0355
57.0242
57.0276
57.0317
57.0206
57.0217
57.0258
57.0248
57.0236
57.0247
57.0214
57.0137
57.0083
57.0174
57.0213
57.0178
57.006
57.0068
57.0157
57.0034
57.0097
57.0179
57.0015
57.0036
57.0148
57.0005
55.0566
56.0418
56.6531
56.9533
57.0378
57.042
57.0463
57.0476
57.039
57.0451
57.0494
57.0452
57.0378
57.036
57.0441
57.0445
57.0449
57.0461
57.0462
57.0351
57.0334
57.0546
57.0661
57.0644
57.0621
57.0574
57.0522
57.0358
57.0382
57.0474
57.0319
57.0287
57.0318
57.0244
57.02
57.0198
57.0182
57.0204
57.0172
57.0047
57.0065
57.014
57.0089
57.0075
57.006
57.0066
57.0057
57.0034
56.9947
56.998
57.0319
57.0666
57.0661
57.0627
57.0623
57.0634
57.0641
57.0622
57.0589
57.0479
57.0515
57.0547
57.0454
57.0446
57.0451
57.0472
57.0465
57.0422
57.0427
57.0437
57.0406
57.0256
57.0275
57.0321
57.0307
57.0318
57.028
57.021
57.0213
57.0216
57.0063
57.0111
57.0167
57.0013
57.004
57.0157
57.0105
57.0125
57.0094
56.9989
55.0551
56.0405
56.664
56.9463
57.0146
57.0162
57.008
57.0101
57.0203
57.0174
57.0132
57.011
57.0074
57.0169
57.0328
57.0329
57.033
57.0231
57.0332
57.051
57.0626
57.0664
57.0557
57.0547
57.0543
57.0444
57.0481
57.0575
57.0452
57.039
57.0385
57.0295
57.0332
57.0429
57.0271
57.0305
57.0384
57.0379
57.0373
57.0183
57.0214
57.0277
57.0208
57.0198
57.0104
57.015
57.0175
57.0141
57.0036
57.0043
57.0085
56.9925
56.9917
57.0035
57.0093
57.0084
57.0075
57.0065
56.9909
56.9925
57.0051
56.9928
56.9932
57.0028
57
57.0046
57.0057
56.9958
57.0026
57.0195
57.0192
57.0158
57.0157
57.0167
57.0118
57.0059
57.0131
57.0251
57.025
57.025
57.0176
57.0159
57.0034
57.009
57.0171
57.0008
56.9996
57.0111
57.0123
57.0064
55.0555
56.0414
56.6587
56.9449
57.0579
57.0734
57.0689
57.0701
57.0687
57.0693
57.0647
57.0673
57.0697
57.0664
57.0557
57.0587
57.063
57.0616
57.0622
57.0607
57.0639
57.0685
57.0658
57.0565
57.0551
57.0549
57.0515
57.0389
57.0375
57.0436
57.044
57.0377
57.0412
57.0422
57.0405
57.0395
57.0184
57.0202
57.023
57.0128
57.0138
57.011
57.0074
57.001
56.9993
56.994
57.0028
57.0132
57.0069
57.0063
57.0027
57.014
57.0566
57.0684
57.0662
57.0671
57.0663
57.0669
57.0646
57.063
57.0612
57.0574
57.054
57.0557
57.0561
57.0413
57.0441
57.048
57.0362
57.0432
57.0489
57.0432
57.0459
57.0508
57.0484
57.0426
57.0418
57.0386
57.0315
57.025
57.0204
57.0064
57.0106
57.0232
57.0225
57.0222
57.0053
57.01
57.0179
57.0005
55.0555
56.0414
56.6586
56.9457
57.0539
57.0836
57.0832
57.0792
57.0818
57.0829
57.0809
57.0818
57.0775
57.0757
57.0688
57.0715
57.0735
57.0596
57.0655
57.0714
57.0701
57.0666
57.0687
57.0723
57.071
57.0709
57.0662
57.0638
57.0437
57.045
57.0513
57.0331
57.0335
57.0421
57.0326
57.0282
57.0308
57.0324
57.0273
57.0329
57.0369
57.0351
57.0345
57.019
57.0237
57.0278
57.0251
57.0249
57.0248
57.0241
57.0095
57.0172
57.0575
57.0711
57.0677
57.0706
57.0719
57.0675
57.065
57.0631
57.0618
57.0628
57.0624
57.0618
57.0495
57.0517
57.055
57.0454
57.0515
57.055
57.054
57.054
57.0505
57.05
57.046
57.0458
57.0391
57.0383
57.0371
57.0393
57.0356
57.0191
57.0169
57.0216
57.0085
57.0086
57.023
57.0246
57.0215
57.0062
55.0544
56.0403
56.6676
56.944
57.0129
57.035
57.0335
57.0141
57.0134
57.0218
57.0217
57.0219
57.0152
57.0337
57.0632
57.0546
57.0588
57.0774
57.0786
57.0748
57.0624
57.0662
57.0723
57.0539
57.0566
57.0648
57.0577
57.0578
57.0586
57.0563
57.0395
57.0354
57.0366
57.0289
57.0229
57.0246
57.0247
57.0135
57.0182
57.0297
57.0266
57.0264
57.0234
57.0211
57.0213
57.0222
57.0203
57.0152
57.0186
57.0213
57.0046
57.009
57.0133
57.011
57.005
57.0075
57.0254
57.0215
57.0238
57.0199
57.0176
57.0127
57.0203
57.0301
57.028
57.0277
57.0161
57.0221
57.0327
57.0294
57.0295
57.0281
57.0157
57.0144
57.0219
57.0222
57.0171
57.0219
57.0308
57.0133
57.0168
57.0251
57.0079
57.0119
57.0189
57.0182
57.0182
57.0125
57.0111
56.9979
55.0554
56.0419
56.6566
56.952
57.0413
57.0427
57.0527
57.0604
57.0502
57.056
57.063
57.0629
57.0629
57.0568
57.0571
57.0532
57.0395
57.0443
57.0527
57.0497
57.0501
57.0427
57.051
57.0561
57.0453
57.0525
57.0605
57.0463
57.04
57.0436
57.0443
57.0333
57.0371
57.0384
57.0365
57.0356
57.024
57.0182
57.013
56.9977
57.0001
57.0104
56.9933
56.9922
57.0001
56.9977
56.9959
56.993
56.9859
56.9918
57.0095
57.0099
57.0092
56.9964
56.9919
57.0022
57.0053
56.9992
57.0072
57.0154
57.0131
57.0129
57.011
57.0102
56.9938
56.9925
57.0032
56.9941
56.9964
57.0121
57.0146
57.0122
57.0062
57.0095
57.0105
57.005
57.0102
57.0123
57.0015
56.997
57.0107
57.0218
57.0186
57.0109
57.0038
57.005
56.9957
56.9969
57.0066
56.9959
55.0555
56.0414
56.6586
56.9454
57.056
57.0771
57.0745
57.0773
57.074
57.0745
57.0753
57.0736
57.0745
57.0757
57.0723
57.0663
57.0665
57.0668
57.0587
57.0618
57.0698
57.0658
57.0677
57.0682
57.066
57.0635
57.0579
57.0392
57.0397
57.0482
57.033
57.0302
57.032
57.0308
57.0201
57.0225
57.0296
57.0271
57.0252
57.0106
57.0116
57.0139
57.0099
57.0021
56.9945
56.9972
56.9935
57.0027
57.015
57.0121
57.0119
57.0089
57.0091
57.0037
56.9978
56.9948
56.9887
56.9979
57.0107
57.0047
56.9984
57.0067
57.0178
57.0169
57.0164
57.0081
57.0055
56.9945
56.9972
57.0087
57.0031
56.9987
57.0094
57.0187
57.0158
57.0098
57.0035
57.0049
56.996
56.9967
57.0064
56.9986
57.0057
57.0167
57.0148
57.0146
57.0056
57.0128
57.0171
57.0055
55.0555
56.0414
56.6586
56.9458
57.0534
57.0888
57.0894
57.0856
57.0859
57.0842
57.0847
57.0817
57.0795
57.0782
57.0771
57.0704
57.0735
57.0758
57.062
57.0679
57.0745
57.0596
57.0651
57.0768
57.0744
57.0743
57.0712
57.0661
57.0639
57.0614
57.0573
57.0483
57.0416
57.0401
57.0271
57.0309
57.0383
57.0371
57.0366
57.0281
57.0188
57.0229
57.0274
57.0238
57.0121
57.013
57.0165
57.0151
57.0148
56.9999
57.0015
57.0341
57.0691
57.0735
57.0705
57.0712
57.0716
57.0664
57.0645
57.0656
57.0634
57.0635
57.0611
57.0577
57.0464
57.049
57.0524
57.0407
57.047
57.0511
57.046
57.0474
57.0458
57.0471
57.0437
57.0289
57.0308
57.0336
57.0316
57.0324
57.0288
57.0263
57.0186
57.0218
57.0244
57.0204
57.0113
57.0043
57.005
56.9969
55.0555
56.0414
56.6586
56.9457
57.054
57.0838
57.0833
57.0793
57.082
57.0831
57.0811
57.082
57.0777
57.0759
57.069
57.0716
57.0736
57.0597
57.0655
57.0716
57.07
57.0691
57.0658
57.0652
57.0654
57.064
57.0587
57.0544
57.0397
57.0383
57.0449
57.0326
57.0341
57.0422
57.0326
57.0282
57.0308
57.0326
57.0276
57.0332
57.0371
57.0352
57.0346
57.0191
57.0237
57.0277
57.0277
57.0277
57.0255
57.0249
57.0108
57.0186
57.0556
57.0579
57.0567
57.0553
57.0568
57.0579
57.051
57.0507
57.0449
57.0496
57.0525
57.0424
57.047
57.049
57.045
57.0452
57.0438
57.0312
57.0344
57.0387
57.0368
57.0365
57.0299
57.0261
57.0107
57.0121
57.0241
57.0145
57.0207
57.0251
57.0138
57.0199
57.023
57.0196
57.009
57.0088
57.0158
57.0002
55.0555
56.0414
56.6587
56.9448
57.0578
57.0734
57.0689
57.0702
57.0691
57.0661
57.0661
57.0683
57.0616
57.0649
57.0705
57.0678
57.0573
57.06
57.0637
57.0589
57.0585
57.0592
57.0592
57.0462
57.0499
57.054
57.043
57.0511
57.0596
57.0591
57.0589
57.0518
57.0508
57.0511
57.0489
57.0351
57.0285
57.0237
57.0097
57.0139
57.0186
57.0167
57.0159
57.006
57.004
56.9951
57.0023
57.013
57.0122
57.0122
57.003
57.0134
57.0585
57.0623
57.0558
57.0546
57.0571
57.0598
57.0581
57.0561
57.0434
57.0457
57.0559
57.0552
57.0511
57.0347
57.0375
57.0429
57.0276
57.0332
57.0431
57.0408
57.038
57.0217
57.023
57.0335
57.0368
57.034
57.0294
57.029
57.0251
57.0133
57.0136
57.0218
57.0066
57.0064
57.022
57.0235
57.0196
57.0043
55.0551
56.0404
56.6643
56.9448
57.0186
57.0249
57.0216
57.0101
57.0152
57.0339
57.0368
57.034
57.02
57.0255
57.0372
57.0336
57.0355
57.0343
57.0306
57.0321
57.0323
57.0448
57.0624
57.048
57.054
57.0635
57.046
57.0473
57.0587
57.0585
57.0554
57.0372
57.0363
57.043
57.0382
57.0306
57.034
57.0431
57.041
57.0348
57.0359
57.0369
57.0339
57.0322
57.032
57.0325
57.0282
57.0281
57.0284
57.0264
57.0246
57.022
57.0158
56.9979
56.9934
57.0005
57.0015
56.9966
57.0019
57.0151
57.0156
57.0156
57.0011
57.0075
57.0261
57.0255
57.0258
57.025
57.0159
57.0126
57.0278
57.0369
57.0358
57.0372
57.0352
57.0288
57.026
57.0259
57.0239
57.0216
57.0207
57.016
57.0087
57.0205
57.0309
57.0277
57.0157
57.0137
57.0167
57.001
55.0582
56.037
56.6608
56.9506
57.0224
57.0189
57.0283
57.0399
57.0304
57.0309
57.0304
57.0253
57.0207
57.0332
57.0411
57.0378
57.0306
57.0235
57.0283
57.0279
57.0397
57.0515
57.0518
57.0518
57.0368
57.042
57.0541
57.042
57.036
57.0362
57.0356
57.0321
57.0393
57.044
57.0403
57.0283
57.0303
57.0349
57.0333
57.0326
57.0231
57.021
57.0175
57.0116
57.0115
57.0123
57.0092
57.0032
56.9981
57.0024
56.9973
57.005
57.0186
57.017
57.0114
57.012
57.0272
57.0219
57.0307
57.0373
57.035
57.0279
57.0303
57.0339
57.027
57.0271
57.0259
57.0272
57.0271
57.0251
57.0258
57.0273
57.0235
57.0112
57.0128
57.0224
57.0236
57.0237
57.0168
57.0151
57.0014
57.0065
57.0151
57.0143
57.0141
56.9995
57.0049
57.0151
57.0124
57.0026
55.058
56.0375
56.6597
56.9517
57.0245
57.02
57.0286
57.0401
57.0312
57.0326
57.0296
57.0237
57.0194
57.0318
57.0413
57.0398
57.0388
57.0255
57.0354
57.05
57.048
57.0441
57.0388
57.0401
57.0306
57.0298
57.0386
57.0304
57.03
57.0379
57.0286
57.034
57.0432
57.0419
57.0411
57.0271
57.022
57.0254
57.0308
57.0286
57.0266
57.0219
57.0035
56.9977
57.0081
57.0124
57.0091
57.0018
56.9958
57.0166
57.0405
57.0294
57.0353
57.0448
57.0447
57.0447
57.0293
57.0337
57.0439
57.045
57.042
57.0381
57.0374
57.0245
57.0304
57.0356
57.0253
57.0309
57.0342
57.0304
57.0173
57.0175
57.0231
57.0156
57.0205
57.0233
57.0205
57.0169
57.0088
57.0068
57.0033
57.0021
57.0019
57.0021
56.9938
56.9963
57.0161
57.0176
57.0144
56.9995
55.0555
56.0414
56.6585
56.9457
57.0538
57.0835
57.0835
57.0848
57.0845
57.0827
57.0815
57.0768
57.0746
57.075
57.0726
57.07
57.0662
57.0704
57.0722
57.0594
57.065
57.0706
57.0639
57.0656
57.0621
57.0516
57.0475
57.0485
57.0363
57.0351
57.0424
57.0429
57.0364
57.039
57.0411
57.0269
57.0328
57.0423
57.0253
57.0268
57.0361
57.0253
57.0311
57.0399
57.0304
57.0363
57.039
57.0334
57.0351
57.0357
57.0334
57.0156
57.0098
57.0209
57.0191
57.0291
57.0385
57.03
57.0292
57.0286
57.0314
57.0274
57.0261
57.0259
57.0168
57.0216
57.0269
57.0116
57.0146
57.0292
57.0291
57.0294
57.0279
57.0126
57.0123
57.0238
57.0248
57.0222
57.007
57.01
57.0232
57.0145
57.0208
57.024
57.0208
57.0108
57.009
57.0164
57.0166
57.0074
55.0567
56.0411
56.6562
56.9435
57.0521
57.0881
57.0891
57.0854
57.0857
57.0841
57.0812
57.0818
57.0836
57.0812
57.0819
57.081
57.0789
57.0762
57.0731
57.0741
57.0711
57.0615
57.0616
57.0673
57.0671
57.0675
57.0645
57.0643
57.0633
57.055
57.047
57.045
57.0414
57.032
57.0366
57.0462
57.0463
57.0459
57.0277
57.0293
57.0373
57.0351
57.035
57.0267
57.0287
57.0291
57.0193
57.0236
57.0346
57.0331
57.0303
57.0292
57.0204
57.0141
57.0251
57.0339
57.0333
57.0332
57.0216
57.0277
57.0415
57.0303
57.0364
57.0456
57.042
57.0441
57.044
57.0452
57.044
57.0405
57.0262
57.0295
57.0339
57.0339
57.0338
57.0176
57.0144
57.0224
57.0255
57.0219
57.0066
57.0064
57.0158
57.0037
57.0077
57.0191
57.0033
57.0032
57.0121
56.9999
55.0566
56.0418
56.6533
56.9517
57.0441
57.0535
57.0498
57.0355
57.038
57.0465
57.0316
57.0372
57.0435
57.0276
57.0332
57.0407
57.0383
57.0316
57.0334
57.0464
57.0478
57.0482
57.0432
57.0412
57.0274
57.0274
57.0381
57.0281
57.033
57.0442
57.0425
57.0419
57.0299
57.0365
57.0418
57.0389
57.0354
57.0273
57.0214
57.0076
57.0021
57.0058
56.9988
57.0058
57.0155
57.0105
57.011
57.0065
57.0124
57.0201
57.0189
57.0185
57.0062
57.0122
57.0328
57.023
57.0295
57.0404
57.04
57.04
57.0336
57.0327
57.0236
57.0294
57.041
57.0332
57.0331
57.0327
57.0216
57.0209
57.0261
57.0218
57.0246
57.0256
57.0191
57.0237
57.0262
57.0098
57.0145
57.0245
57.0214
57.0216
57.0214
57.0199
57.0037
57.0033
57.0229
57.0253
57.021
57.0052
55.0555
56.0414
56.6586
56.9457
57.0537
57.0832
57.0831
57.0843
57.0847
57.0828
57.0812
57.0762
57.0739
57.0741
57.0737
57.0731
57.073
57.0753
57.0753
57.0676
57.0695
57.0713
57.0679
57.0623
57.0559
57.0517
57.0385
57.0434
57.0526
57.0523
57.0522
57.0478
57.0452
57.0295
57.0217
57.0222
57.0122
57.0139
57.0235
57.0109
57.0128
57.0232
57.0103
57.0142
57.0254
57.0117
57.0163
57.0271
57.0154
57.0223
57.0274
57.0264
57.0261
57.0117
57.0162
57.0274
57.025
57.0187
57.0163
57.0245
57.0257
57.0179
57.0208
57.0271
57.0127
57.0181
57.0268
57.0119
57.0173
57.0306
57.0279
57.0281
57.0265
57.0172
57.0128
57.0191
57.0224
57.0199
57.0062
57.0117
57.0214
57.0208
57.0206
57.0125
57.0113
57.0032
57.0104
57.019
57.0158
57.0043
55.0533
56.0428
56.6662
56.9443
57.0089
57.0102
57.0058
57.0046
57.0173
57.0246
57.0228
57.0226
57.0115
57.0197
57.0509
57.0508
57.0511
57.046
57.0562
57.0637
57.0505
57.0566
57.0697
57.0687
57.0651
57.0576
57.0553
57.0503
57.034
57.0329
57.0428
57.0429
57.0391
57.0371
57.0412
57.0519
57.0499
57.0314
57.0349
57.0428
57.0397
57.0388
57.0236
57.0284
57.0345
57.0325
57.0319
57.0277
57.022
57.0032
57.0007
57.0091
57.0019
57.0097
57.016
57.014
57.0124
57.0056
57.0093
57.0153
57.0122
57.0015
57.0072
57.0178
57.0154
57.0115
57.0011
57.0042
57.0065
57.0121
57.0145
57.0107
57.0075
57.0105
57.0141
57.0122
57.0128
57.0097
57.0029
57.012
57.0245
57.0165
57.0162
57.0128
57.0131
57.0128
57.0033
57.0038
57.012
56.9995
55.0555
56.0414
56.6585
56.9454
57.0557
57.0765
57.07
57.0768
57.0794
57.0743
57.0742
57.0721
57.0733
57.072
57.0683
57.0657
57.0659
57.0652
57.063
57.0628
57.0541
57.0585
57.0619
57.0595
57.0593
57.0538
57.0448
57.0464
57.0499
57.0386
57.0459
57.0524
57.049
57.0462
57.0378
57.0423
57.0478
57.0419
57.0413
57.0408
57.0385
57.0368
57.0289
57.0363
57.042
57.0291
57.035
57.0391
57.0389
57.0387
57.0206
57.0234
57.0267
57.0153
57.0098
57.0087
57.0021
57.0093
57.0221
57.0155
57.0128
57.0107
57.0038
57.0118
57.0266
57.0125
57.0179
57.0238
57.0097
57.0163
57.0241
57.0239
57.0238
57.0079
57.0133
57.0244
57.0248
57.0247
57.0086
57.0135
57.0218
57.0209
57.0207
57.0127
57.0114
57.0033
57.0106
57.0192
57.0159
57.0044
55.0535
56.043
56.662
56.9494
57.0223
57.0231
57.0314
57.0342
57.032
57.0263
57.0374
57.0629
57.0545
57.063
57.0699
57.0668
57.0664
57.055
57.0608
57.0657
57.0508
57.0565
57.0624
57.0608
57.0606
57.0529
57.0519
57.0552
57.0559
57.051
57.0395
57.0326
57.0345
57.0326
57.0279
57.0254
57.0208
57.0295
57.0428
57.0282
57.0337
57.0393
57.0229
57.0276
57.0337
57.0326
57.0324
57.0271
57.0196
57.0174
57.0221
57.0222
57.0197
57.017
57.0133
57.0015
57.0075
57.0134
56.9978
57.0008
57.0123
57.0125
57.0126
57.0043
57.0079
57.0088
56.9982
57.0002
57.0189
57.0224
57.019
57.0099
57.0053
57.0131
57.0163
57.013
57.0064
57.0012
57.0175
57.0277
57.027
57.0266
57.0118
57.0159
57.0225
57.0103
57.0177
57.029
57.0262
57.0158
55.0529
56.0419
56.6686
56.9439
57.0076
57.0089
57.0045
57.0124
57.0488
57.0516
57.0449
57.0511
57.0549
57.05
57.0524
57.0491
57.0475
57.048
57.0487
57.0439
57.0463
57.0481
57.0465
57.0479
57.0436
57.0267
57.0275
57.0404
57.0403
57.0404
57.0365
57.0247
57.0235
57.0321
57.0187
57.0178
57.0247
57.0206
57.0211
57.0207
57.0102
57.0109
57.0172
57.0039
57.0092
57.0184
57.0022
57.005
57.0172
57.0126
57.0069
57.0152
57.0243
57.0239
57.0235
57.0067
57.0101
57.0182
57.0174
57.0172
57.0095
57.0081
56.9986
57.0059
57.0147
56.9985
56.9998
57.0163
57.018
57.0152
57.0081
57.0019
57.0038
57.0025
57.0131
57.0283
57.0169
57.0243
57.0305
57.0271
57.0195
57.015
57.0188
57.0084
57.0131
57.0239
57.0142
57.0134
57.013
57.0026
55.0553
56.0415
56.6611
56.9457
57.0186
57.0142
57.0223
57.0286
57.0153
57.0206
57.035
57.0444
57.0456
57.0407
57.0399
57.0284
57.035
57.0468
57.048
57.045
57.029
57.0351
57.0472
57.0471
57.047
57.0398
57.0376
57.0236
57.027
57.039
57.0394
57.0392
57.0247
57.0304
57.0347
57.0182
57.0227
57.0311
57.0199
57.0139
57.0122
57.0041
57.0075
57.0194
57.0073
57.0059
57.024
57.0296
57.0255
57.0108
57.0098
57.0163
57.0072
57.0039
57.0098
57.0175
57.0144
57.0056
57.0025
57.0138
57.0209
57.0199
57.0197
57.0073
57.0121
57.0213
57.0289
57.04
57.0391
57.0396
57.0379
57.0337
57.0196
57.0219
57.0266
57.0148
57.0212
57.0315
57.0287
57.0183
57.0161
57.0248
57.026
57.0227
57.0085
57.0042
57.0145
57.0182
57.0144
56.9997
55.0557
56.0399
56.6639
56.9436
57.022
57.0293
57.0279
57.0278
57.0226
57.0159
57.0349
57.0628
57.0544
57.0626
57.0691
57.0588
57.0644
57.067
57.0637
57.0654
57.0663
57.065
57.0493
57.0511
57.0553
57.0545
57.0544