/*--------------------------------*- C++ -*----------------------------------*\
  =========                 |
  \\      /  F ield         | OpenFOAM: The Open Source CFD Toolbox
   \\    /   O peration     | Website:  https://openfoam.org
    \\  /    A nd           | Version:  11
     \\/     M anipulation  |
\*---------------------------------------------------------------------------*/
FoamFile
{
    format      ascii;
    class       volScalarField;
    location    "0.044";
    object      p;
}
// * * * * * * * * * * * * * * * * * * * * * * * * * * * * * * * * * * * * * //

dimensions      [0 2 -2 0 0 0 0];

internalField   nonuniform List<scalar> 
287084
(
1.74212
1.46206
1.39626
1.32888
1.26124
1.20969
1.16132
1.11624
1.07188
1.02913
0.987912
0.945966
0.902895
0.858899
0.814215
0.769148
0.723689
0.677891
0.631931
0.586055
0.540461
0.495448
0.451222
0.408316
0.366813
0.327148
0.290171
0.256278
0.226391
0.200896
0.179324
0.1569
0.13546
0.11911
0.106146
0.096167
0.0889554
0.0842178
0.0816665
0.0810401
0.0820585
0.0844165
0.0878717
0.0922115
0.0971557
0.102508
0.108088
0.113689
0.119029
0.124051
0.127277
0.131047
0.13833
0.145346
0.151047
0.155023
0.156594
0.157714
0.157955
0.158165
0.158515
0.158078
0.157106
0.15573
0.153143
0.150486
0.147145
0.143365
0.139777
0.13493
0.127986
0.123989
0.1222
0.117758
0.113844
0.1082
0.0992766
0.0909721
0.0815011
0.0723274
0.0658353
0.0599916
0.0542993
0.0488627
0.0445066
0.038442
0.0279636
0.0167917
0.00673537
0.0013926
1.60765
1.41859
1.36634
1.3104
1.2505
1.20276
1.1567
1.11298
1.06994
1.02774
0.985918
0.943469
0.90026
0.856397
0.81188
0.766744
0.721155
0.675151
0.628984
0.582875
0.537043
0.491797
0.447426
0.40394
0.362526
0.324272
0.287411
0.25326
0.22325
0.195972
0.171109
0.148996
0.129713
0.114001
0.101434
0.0918068
0.0848726
0.0804318
0.0781566
0.0778107
0.0790933
0.0817123
0.0854177
0.0899959
0.0951636
0.100729
0.106521
0.112338
0.118018
0.123428
0.128426
0.133368
0.138915
0.143847
0.148246
0.152358
0.15513
0.156607
0.157389
0.15791
0.158028
0.157793
0.156621
0.154954
0.153253
0.150304
0.146971
0.14445
0.140496
0.135425
0.130345
0.125392
0.121542
0.118005
0.112839
0.105831
0.0981776
0.090019
0.0822449
0.0756981
0.069176
0.0617571
0.0558404
0.0500851
0.0424745
0.0347686
0.0262546
0.0173128
0.00889961
0.00275129
1.58103
1.41113
1.35962
1.30385
1.24631
1.19882
1.15306
1.10943
1.06665
1.02442
0.982342
0.939732
0.896421
0.852343
0.80756
0.762121
0.716122
0.669712
0.623084
0.576479
0.530182
0.484467
0.439693
0.396203
0.354475
0.315071
0.278178
0.243916
0.212625
0.184681
0.160308
0.138679
0.119929
0.104546
0.0923631
0.0831629
0.0767413
0.0727939
0.0710594
0.0712411
0.0730501
0.0761983
0.0804205
0.0854662
0.0910934
0.0970982
0.103296
0.109511
0.115601
0.121458
0.126968
0.132255
0.1375
0.142474
0.14692
0.150478
0.153057
0.15499
0.156149
0.1571
0.157608
0.157127
0.156132
0.154576
0.151966
0.149727
0.14753
0.144194
0.14066
0.136401
0.131883
0.127113
0.122221
0.117311
0.111773
0.105541
0.0984809
0.0910171
0.0838649
0.0766135
0.0696664
0.0630855
0.056262
0.0493075
0.0419425
0.0341933
0.0257873
0.0169058
0.00800968
0.00216404
1.53476
1.37824
1.33248
1.28238
1.23077
1.18683
1.14374
1.10193
1.06032
1.01871
0.976695
0.934044
0.890581
0.846247
0.80113
0.755193
0.708655
0.661608
0.614291
0.566971
0.519904
0.47346
0.427991
0.383881
0.341581
0.30148
0.263979
0.22936
0.197986
0.169684
0.144765
0.123208
0.105021
0.090238
0.0786982
0.0702413
0.0645526
0.0614219
0.0604951
0.0614968
0.0641023
0.0680333
0.073002
0.0787592
0.0850591
0.0916971
0.0984852
0.105261
0.111895
0.118269
0.124322
0.13003
0.135427
0.14038
0.144717
0.148486
0.151577
0.15377
0.155222
0.156192
0.156594
0.156388
0.155584
0.154163
0.152313
0.14996
0.147042
0.143755
0.140172
0.136096
0.131781
0.127094
0.122129
0.116875
0.11123
0.105048
0.0983998
0.0915635
0.0844697
0.077444
0.0705534
0.0634516
0.0563876
0.0492711
0.0416814
0.0339149
0.0257888
0.0171735
0.00841414
0.00249014
1.51169
1.36284
1.31978
1.27114
1.22159
1.17856
1.13619
1.09485
1.05353
1.01198
0.969907
0.927032
0.88323
0.83846
0.792749
0.746149
0.698832
0.650895
0.602672
0.554332
0.506278
0.458826
0.412356
0.367335
0.324124
0.283252
0.245006
0.209832
0.177921
0.149436
0.124603
0.103357
0.0856907
0.071562
0.0608129
0.0532257
0.0485291
0.0464112
0.0465444
0.0486083
0.052277
0.0572455
0.0632124
0.0699114
0.0770991
0.0845685
0.0921334
0.0996255
0.106916
0.113908
0.120509
0.126685
0.1324
0.137607
0.142195
0.146092
0.149265
0.151759
0.153623
0.154869
0.155455
0.155389
0.154741
0.153556
0.15176
0.149491
0.146868
0.143739
0.140139
0.136102
0.131747
0.127032
0.121994
0.116663
0.110986
0.10489
0.0984326
0.0917162
0.0848609
0.0779229
0.0708875
0.0637391
0.0565368
0.0491644
0.0415253
0.0337253
0.0255315
0.0169597
0.00824811
0.00241478
1.48831
1.34179
1.30073
1.25439
1.20753
1.16645
1.12565
1.08543
1.04479
1.00358
0.961509
0.918421
0.874243
0.82888
0.782493
0.735015
0.686724
0.637728
0.5883
0.538753
0.489395
0.44065
0.392942
0.346696
0.302417
0.260509
0.221465
0.185574
0.153232
0.124542
0.0997341
0.078802
0.0617286
0.0484226
0.0386506
0.0322022
0.0287263
0.0279135
0.0293784
0.0327877
0.0377725
0.0440174
0.0512105
0.0590699
0.0673485
0.0758375
0.0843371
0.0926934
0.100783
0.10849
0.115748
0.122494
0.128681
0.134261
0.139173
0.143395
0.146929
0.149723
0.151806
0.153239
0.154037
0.154185
0.153729
0.152678
0.15105
0.148935
0.146347
0.143269
0.139759
0.13583
0.131526
0.126844
0.121825
0.116475
0.110783
0.104752
0.0984134
0.0918366
0.0850545
0.0781382
0.0711044
0.0639189
0.0566332
0.049192
0.041538
0.0337147
0.025558
0.0170324
0.00829137
0.00245578
1.47049
1.32613
1.28666
1.24145
1.19594
1.15577
1.11566
1.07587
1.03552
0.994325
0.952094
0.908625
0.86387
0.817796
0.770481
0.72196
0.672487
0.622135
0.571332
0.520253
0.469379
0.419094
0.369835
0.32217
0.276503
0.23344
0.19336
0.156725
0.123882
0.0950009
0.0703289
0.0498228
0.0334813
0.0211298
0.0125389
0.00742331
0.00539813
0.00612534
0.00916466
0.0141526
0.0207021
0.0284636
0.0371119
0.0463463
0.05591
0.0655893
0.0751914
0.0845606
0.0935651
0.102109
0.110108
0.117512
0.124262
0.130332
0.135691
0.140314
0.144184
0.147306
0.149706
0.151415
0.152437
0.152797
0.152531
0.151653
0.150202
0.148212
0.145727
0.142755
0.139324
0.135466
0.131208
0.12657
0.121582
0.11625
0.110591
0.104611
0.0983526
0.0918474
0.0851288
0.0782402
0.0712026
0.0639979
0.0566685
0.0491889
0.0415122
0.0336672
0.0254838
0.0169385
0.00825933
0.00249626
1.45442
1.3107
1.27204
1.22791
1.1835
1.14422
1.10475
1.06544
1.0253
0.984108
0.941572
0.897618
0.852187
0.805209
0.75686
0.707094
0.656229
0.60438
0.551888
0.499106
0.446412
0.394309
0.343287
0.293905
0.24671
0.20224
0.161043
0.123539
0.0901359
0.0610797
0.0365536
0.0165695
0.00105976
-0.010152
-0.0173631
-0.0209185
-0.0212285
-0.0187147
-0.013839
-0.00701716
0.0013277
0.0108287
0.0211351
0.0319333
0.0429633
0.054
0.0648481
0.0753577
0.0854013
0.0948779
0.103717
0.111861
0.119271
0.125918
0.131783
0.136852
0.141132
0.14463
0.147363
0.14936
0.150646
0.151239
0.151177
0.15049
0.149202
0.147362
0.144999
0.142131
0.138793
0.135013
0.130823
0.12624
0.121292
0.116005
0.110386
0.104461
0.0982561
0.0918006
0.085129
0.0782726
0.0712436
0.0640507
0.056712
0.0492097
0.0415295
0.0336782
0.0254405
0.0168828
0.00829057
0.00257554
1.44025
1.29706
1.25903
1.21554
1.17178
1.133
1.09391
1.05476
1.01467
0.973225
0.930299
0.885702
0.839416
0.791424
0.741799
0.690629
0.63816
0.584538
0.530195
0.475402
0.420686
0.36654
0.313479
0.262193
0.213195
0.167197
0.124702
0.0862484
0.0522869
0.0230255
-0.00124463
-0.0206291
-0.0351342
-0.0450435
-0.0506892
-0.052463
-0.050853
-0.046318
-0.039382
-0.0305021
-0.0201333
-0.00868738
0.00347017
0.0160188
0.0286738
0.0412137
0.0534432
0.0652086
0.0763945
0.0869018
0.0966626
0.105634
0.113773
0.121064
0.127504
0.133085
0.137816
0.141716
0.144805
0.147122
0.148689
0.149534
0.149697
0.149203
0.148099
0.146412
0.144179
0.141425
0.138191
0.134499
0.130379
0.12586
0.120969
0.115728
0.110155
0.104279
0.0981224
0.0917143
0.0850789
0.0782392
0.0712277
0.0640351
0.056689
0.0491913
0.0415147
0.0336612
0.0255215
0.0170348
0.00825107
0.00243165
1.42736
1.28441
1.24676
1.20367
1.16033
1.12188
1.08292
1.04385
1.00364
0.961842
0.918312
0.872938
0.825687
0.776484
0.72549
0.672718
0.618468
0.562921
0.506457
0.449497
0.392488
0.336046
0.280751
0.227299
0.176378
0.128633
0.0847539
0.0452813
0.0106723
-0.0187237
-0.0427505
-0.0613917
-0.0747871
-0.0832238
-0.0870822
-0.0868646
-0.0830882
-0.0763135
-0.0670878
-0.0559435
-0.0433662
-0.0297865
-0.0156067
-0.00116361
0.0132655
0.0274378
0.0411588
0.0542934
0.0667098
0.0783257
0.0890833
0.0989334
0.107861
0.115852
0.122913
0.129041
0.134259
0.138598
0.142078
0.144732
0.146597
0.147707
0.148107
0.147826
0.146901
0.145375
0.143283
0.140654
0.137522
0.133924
0.129886
0.125437
0.120609
0.115422
0.109897
0.104073
0.0979624
0.0915949
0.0849958
0.0781865
0.071191
0.0640216
0.0566838
0.0491772
0.0415009
0.0336581
0.0254145
0.0168705
0.00827933
0.00257091
1.41557
1.27276
1.2353
1.19248
1.14936
1.11103
1.07208
1.03285
0.992384
0.950081
0.905858
0.859605
0.811215
0.760706
0.708135
0.653621
0.597408
0.539704
0.480973
0.421571
0.362102
0.30317
0.24541
0.189664
0.136557
0.0870011
0.0415805
0.00101564
-0.0342086
-0.0637712
-0.0874047
-0.105233
-0.117341
-0.124131
-0.126049
-0.123642
-0.117525
-0.108307
-0.0966154
-0.083013
-0.0680438
-0.0521802
-0.0358313
-0.0193539
-0.00304357
0.0128694
0.028185
0.0427551
0.0564739
0.0692627
0.081075
0.091867
0.101628
0.110366
0.118082
0.124795
0.130529
0.135322
0.139206
0.142219
0.144399
0.145788
0.146436
0.146369
0.14564
0.144279
0.142332
0.139831
0.136815
0.133314
0.129359
0.124988
0.120223
0.115093
0.109622
0.103846
0.0977758
0.0914462
0.0848823
0.078098
0.0711214
0.0639639
0.0566382
0.0491527
0.0414722
0.0336118
0.025422
0.0169059
0.00825974
0.00254063
1.40469
1.26192
1.2246
1.18187
1.13883
1.1005
1.06147
1.02194
0.980937
0.938057
0.893073
0.845778
0.796183
0.744204
0.689971
0.633558
0.575241
0.51526
0.454045
0.392093
0.329926
0.26832
0.207939
0.149665
0.0943282
0.0427535
-0.00422889
-0.0459418
-0.0818196
-0.111453
-0.134704
-0.151571
-0.162295
-0.167286
-0.167065
-0.16229
-0.153634
-0.141808
-0.127473
-0.111279
-0.0937929
-0.07551
-0.0568867
-0.0382819
-0.0199931
-0.00226734
0.0147046
0.0307896
0.0458723
0.0598827
0.0727851
0.0845506
0.0951827
0.104685
0.113084
0.120401
0.126676
0.131941
0.136242
0.139626
0.142133
0.143808
0.144705
0.144863
0.144327
0.143137
0.141342
0.138977
0.136073
0.132671
0.128805
0.124507
0.119814
0.114745
0.109328
0.103596
0.0975708
0.091286
0.0847516
0.0779963
0.0710346
0.0638968
0.056588
0.0490902
0.0414459
0.0336135
0.0254072
0.0168929
0.00825153
0.00253906
1.39463
1.25187
1.21454
1.17188
1.12881
1.09032
1.0511
1.01113
0.969598
0.926022
0.880116
0.831753
0.780801
0.727286
0.671249
0.612829
0.552264
0.489851
0.426047
0.361328
0.296395
0.231935
0.168797
0.107921
0.0501622
-0.00343601
-0.0520958
-0.0949587
-0.131451
-0.161169
-0.183875
-0.199722
-0.208896
-0.211949
-0.209471
-0.202191
-0.190884
-0.176314
-0.15923
-0.140319
-0.120205
-0.0994268
-0.0784452
-0.0576386
-0.0373153
-0.0177241
0.000953073
0.0185748
0.035047
0.0503074
0.0643295
0.077093
0.0886115
0.0989075
0.108003
0.115939
0.122755
0.128505
0.133233
0.136989
0.139826
0.141791
0.142945
0.14333
0.142992
0.141974
0.140334
0.138098
0.13531
0.132013
0.128237
0.124022
0.11939
0.114385
0.109028
0.103342
0.0973594
0.091102
0.0846021
0.0778777
0.070947
0.0638261
0.0565327
0.0490696
0.041415
0.0335673
0.025386
0.0168843
0.00823828
0.00254435
1.38531
1.24253
1.20517
1.16245
1.11924
1.08057
1.04101
1.0006
0.958433
0.91407
0.867214
0.817628
0.765301
0.710135
0.652249
0.591723
0.528858
0.46391
0.397399
0.329874
0.261972
0.194623
0.128592
0.0650032
0.00480827
-0.0509216
-0.101233
-0.145261
-0.18235
-0.212057
-0.234209
-0.248902
-0.256468
-0.257472
-0.252608
-0.242719
-0.228644
-0.211244
-0.191328
-0.169645
-0.146856
-0.12353
-0.100154
-0.0771163
-0.0547391
-0.0332592
-0.0128646
0.00631393
0.0241899
0.0407105
0.0558569
0.0696301
0.0820407
0.0931234
0.102916
0.11147
0.118838
0.125069
0.130217
0.134347
0.137513
0.139776
0.141185
0.141792
0.141649
0.14081
0.13932
0.137218
0.134548
0.131351
0.127663
0.123528
0.11897
0.114021
0.108715
0.103076
0.0971343
0.0909205
0.08445
0.0777471
0.0708389
0.0637306
0.0564463
0.0489835
0.0413483
0.0335423
0.0253468
0.0168416
0.00823531
0.00255518
1.37671
1.23391
1.19647
1.15365
1.11027
1.07128
1.03135
0.990409
0.947605
0.902391
0.854501
0.803695
0.749903
0.693063
0.633245
0.570581
0.505307
0.437802
0.368525
0.298081
0.227257
0.156871
0.0879734
0.0216285
-0.0410527
-0.0988794
-0.150857
-0.196005
-0.233639
-0.263294
-0.284779
-0.298269
-0.304101
-0.30299
-0.295694
-0.283135
-0.266263
-0.246005
-0.223232
-0.198762
-0.17329
-0.147413
-0.121646
-0.0963912
-0.0719665
-0.0486153
-0.0265121
-0.00579036
0.0134706
0.0312383
0.0474966
0.0622578
0.0755505
0.0874175
0.0979022
0.107066
0.114972
0.121684
0.127254
0.131754
0.135248
0.137791
0.139448
0.140276
0.140329
0.139656
0.138316
0.136344
0.133788
0.130695
0.127097
0.123036
0.118541
0.113657
0.108405
0.102811
0.0969132
0.090727
0.0842899
0.0776193
0.070734
0.0636535
0.0563893
0.0489531
0.0413253
0.0335139
0.0253404
0.0168541
0.00822688
0.00253995
1.36881
1.22596
1.18842
1.14547
1.10183
1.06255
1.0222
0.980715
0.937203
0.891119
0.84216
0.790098
0.734838
0.676306
0.614568
0.549741
0.482107
0.411995
0.339959
0.266635
0.192788
0.119472
0.0476305
-0.0214222
-0.0865574
-0.146457
-0.200037
-0.24626
-0.284368
-0.313898
-0.33467
-0.346885
-0.350985
-0.347723
-0.337972
-0.322749
-0.303084
-0.279986
-0.254396
-0.227176
-0.19906
-0.170687
-0.142578
-0.115146
-0.0887195
-0.0635373
-0.0397718
-0.0175485
0.00306646
0.0220458
0.0393895
0.0551151
0.0692659
0.0818933
0.0930526
0.102807
0.111233
0.118401
0.124377
0.129234
0.133039
0.135861
0.137767
0.138808
0.139046
0.138544
0.137343
0.135498
0.133056
0.130057
0.126544
0.122562
0.118134
0.1133
0.108094
0.102546
0.0966883
0.0905388
0.0841286
0.0774829
0.0706193
0.0635473
0.0562958
0.0488637
0.0412555
0.0334569
0.0252927
0.0168197
0.0082125
0.00255472
1.3616
1.21873
1.18107
1.13794
1.09408
1.05442
1.01363
0.97159
0.927384
0.880404
0.830409
0.777088
0.720381
0.660158
0.59652
0.529564
0.459565
0.386929
0.312161
0.235985
0.159254
0.0829804
0.00835271
-0.0633707
-0.130863
-0.192751
-0.247855
-0.295049
-0.333572
-0.362899
-0.382914
-0.393829
-0.396163
-0.390769
-0.378603
-0.360776
-0.338398
-0.312551
-0.284233
-0.25436
-0.223708
-0.192926
-0.162569
-0.133055
-0.104713
-0.0777812
-0.0524256
-0.0287621
-0.00685761
0.0132794
0.0316572
0.0483022
0.0632673
0.0766241
0.0884186
0.0987428
0.10767
0.115276
0.12164
0.126841
0.130947
0.134031
0.136166
0.13741
0.137828
0.137479
0.136416
0.134691
0.132355
0.129449
0.126016
0.122101
0.117735
0.112958
0.1078
0.102298
0.0964779
0.0903596
0.0839799
0.0773549
0.0705137
0.063475
0.0562456
0.0488376
0.0412216
0.033434
0.0252248
0.0167536
0.00823371
0.00258716
1.35513
1.21218
1.17441
1.13113
1.08698
1.04701
1.00573
0.96314
0.918242
0.870406
0.819363
0.764856
0.706722
0.644915
0.579426
0.510443
0.438195
0.363096
0.28573
0.206815
0.127277
0.0482449
-0.0291255
-0.10333
-0.173082
-0.236808
-0.293313
-0.341394
-0.380222
-0.409319
-0.42852
-0.438161
-0.438784
-0.431342
-0.416867
-0.396551
-0.371591
-0.343133
-0.312236
-0.279861
-0.246812
-0.213769
-0.181297
-0.149824
-0.11968
-0.0911054
-0.0642602
-0.0392539
-0.0161338
0.00508903
0.0244344
0.0419436
0.057678
0.0717027
0.0840967
0.0949499
0.104342
0.112357
0.119082
0.1246
0.128986
0.132317
0.134669
0.136103
0.136688
0.136489
0.135552
0.133939
0.131703
0.128883
0.125524
0.121672
0.117363
0.112635
0.107526
0.102057
0.0962688
0.0901801
0.083825
0.0772236
0.0704007
0.0633743
0.0561489
0.0487474
0.0411471
0.0333832
0.0252102
0.0167981
0.00822481
0.00252497
1.3494
1.20639
1.16846
1.12504
1.08067
1.04032
0.998653
0.955504
0.909868
0.861262
0.809269
0.753612
0.694168
0.630812
0.563621
0.492696
0.418323
0.340956
0.261123
0.179667
0.0975327
0.0158668
-0.0639637
-0.14054
-0.212297
-0.277733
-0.335477
-0.3843
-0.423388
-0.452164
-0.470603
-0.478981
-0.477983
-0.4686
-0.451966
-0.429346
-0.402003
-0.371142
-0.337877
-0.303203
-0.267957
-0.232841
-0.19843
-0.165164
-0.133368
-0.103289
-0.0750841
-0.0488384
-0.0246125
-0.00239951
0.0178291
0.0361244
0.0525537
0.0672084
0.0801485
0.0914839
0.101302
0.109693
0.116751
0.122557
0.127202
0.130757
0.133304
0.134912
0.135648
0.135579
0.134762
0.13325
0.131103
0.128361
0.125071
0.121278
0.117023
0.112342
0.107269
0.10184
0.0960856
0.0900274
0.083697
0.0771135
0.070312
0.0633093
0.0561048
0.0487272
0.041127
0.0333659
0.0252028
0.0167304
0.00819418
0.00255833
1.3444
1.20135
1.16333
1.11972
1.0751
1.03447
0.992413
0.948724
0.90248
0.853116
0.800241
0.743545
0.682888
0.618172
0.549404
0.476739
0.400457
0.320964
0.238941
0.155135
0.0706444
-0.0133534
-0.0954792
-0.174089
-0.247721
-0.314599
-0.373435
-0.422895
-0.462122
-0.490606
-0.508266
-0.515492
-0.513014
-0.501885
-0.483305
-0.45861
-0.429128
-0.396109
-0.360725
-0.323992
-0.286781
-0.249816
-0.213681
-0.178812
-0.145549
-0.114131
-0.0847066
-0.057372
-0.0321561
-0.00905139
0.0119719
0.0309665
0.0480143
0.0632057
0.076636
0.0883985
0.0985966
0.107322
0.114671
0.120739
0.12561
0.129366
0.132089
0.13385
0.134722
0.134773
0.134057
0.132639
0.130568
0.127895
0.124664
0.120925
0.11672
0.112079
0.107044
0.10164
0.0959113
0.0898755
0.0835653
0.0770044
0.0702125
0.0632139
0.0560184
0.0486442
0.0410675
0.033319
0.0251758
0.0167325
0.00817578
0.00255163
1.34022
1.1971
1.15895
1.11522
1.07038
1.02947
0.987063
0.942941
0.896137
0.846134
0.79246
0.734858
0.673142
0.607183
0.537054
0.462841
0.384854
0.303569
0.219586
0.133773
0.0472218
-0.0388527
-0.122897
-0.203347
-0.278511
-0.346659
-0.406375
-0.45632
-0.495669
-0.523808
-0.540789
-0.546988
-0.543185
-0.530525
-0.510254
-0.483762
-0.452434
-0.417568
-0.38036
-0.341862
-0.302962
-0.264413
-0.226787
-0.190548
-0.156023
-0.12345
-0.0929844
-0.0647051
-0.0386443
-0.0147842
0.00690935
0.0265114
0.0441015
0.0597705
0.0736152
0.0857502
0.0962714
0.105283
0.112889
0.119179
0.124248
0.128172
0.13105
0.132943
0.133928
0.134079
0.133454
0.132111
0.130115
0.1275
0.124321
0.120627
0.116459
0.111853
0.106845
0.101477
0.0957715
0.089758
0.0834668
0.0769172
0.0701464
0.063164
0.0559864
0.0486356
0.0410496
0.0333117
0.0251704
0.0167175
0.00817804
0.0025548
1.33682
1.19367
1.15542
1.11158
1.06655
1.02537
0.982681
0.938196
0.890964
0.840367
0.786066
0.727681
0.665082
0.59813
0.526843
0.45136
0.371987
0.289138
0.203554
0.116027
0.0277699
-0.0599931
-0.145672
-0.227564
-0.304071
-0.373141
-0.43355
-0.483912
-0.523293
-0.55116
-0.56753
-0.572851
-0.567975
-0.554042
-0.532378
-0.504412
-0.471566
-0.435171
-0.396465
-0.356516
-0.316237
-0.276379
-0.237539
-0.200169
-0.164608
-0.131092
-0.0997642
-0.0707159
-0.0439576
-0.0194777
0.00277713
0.0228778
0.0409052
0.0569539
0.0711448
0.083579
0.0943702
0.103617
0.111428
0.1179
0.123125
0.127194
0.13019
0.132192
0.133271
0.133505
0.132954
0.131677
0.12973
0.127167
0.124034
0.120376
0.116243
0.111664
0.106684
0.10133
0.0956444
0.0896481
0.0833679
0.0768389
0.0700727
0.0630955
0.055928
0.0485694
0.0410007
0.0332623
0.0251269
0.0166859
0.00816328
0.00256607
1.33426
1.19107
1.15274
1.10882
1.06363
1.0223
0.979345
0.934568
0.886976
0.835988
0.781139
0.722188
0.658889
0.591129
0.518962
0.442487
0.362001
0.278017
0.191166
0.102355
0.0127855
-0.0762987
-0.163215
-0.246246
-0.323827
-0.393547
-0.45441
-0.505041
-0.544482
-0.572091
-0.587997
-0.592656
-0.58691
-0.572007
-0.54927
-0.520173
-0.486167
-0.448616
-0.408765
-0.367711
-0.326376
-0.285527
-0.245755
-0.207526
-0.171173
-0.136936
-0.104958
-0.0753142
-0.0480254
-0.0230679
-0.000390724
0.0200912
0.0384521
0.0547993
0.0692487
0.0819165
0.0929077
0.102338
0.110308
0.116918
0.122269
0.126442
0.129536
0.131617
0.132771
0.13307
0.132575
0.131344
0.129444
0.126917
0.123814
0.120188
0.116074
0.11152
0.106557
0.101225
0.0955514
0.08957
0.0833065
0.0767833
0.0700334
0.0630633
0.055907
0.0485655
0.0409979
0.0332755
0.02514
0.0166825
0.0081559
0.00256245
1.33255
1.18932
1.15093
1.10695
1.06168
1.02019
0.977096
0.93212
0.884271
0.832977
0.777827
0.718447
0.654691
0.586422
0.513634
0.436485
0.355271
0.270456
0.18275
0.0930442
0.0025583
-0.0873871
-0.175202
-0.258931
-0.337337
-0.407465
-0.468409
-0.519304
-0.558813
-0.586262
-0.601835
-0.606015
-0.599715
-0.584143
-0.56068
-0.530816
-0.49603
-0.457692
-0.417069
-0.37527
-0.333224
-0.2917
-0.251301
-0.212491
-0.175604
-0.140881
-0.108461
-0.0784182
-0.0507712
-0.0254985
-0.00253519
0.0181967
0.0367843
0.0533334
0.0679691
0.0807952
0.0919293
0.101478
0.109556
0.116257
0.121689
0.125939
0.129093
0.131231
0.132431
0.132771
0.132311
0.131119
0.129244
0.12674
0.123662
0.120052
0.11596
0.111422
0.106472
0.101149
0.0954866
0.0895174
0.0832537
0.0767411
0.0699939
0.0630275
0.0558697
0.0485249
0.0409722
0.033247
0.0251663
0.016758
0.00813211
0.00248035
1.33168
1.18844
1.15003
1.10602
1.06071
1.01915
0.975992
0.930888
0.88288
0.831484
0.776132
0.716563
0.65256
0.583993
0.510913
0.433417
0.35182
0.266625
0.178487
0.0883464
-0.00259251
-0.0929941
-0.181229
-0.265423
-0.344138
-0.414729
-0.475492
-0.52633
-0.566016
-0.593358
-0.608785
-0.612746
-0.606143
-0.590241
-0.566415
-0.53617
-0.500991
-0.46226
-0.421252
-0.379076
-0.336668
-0.294809
-0.254096
-0.21499
-0.177838
-0.142873
-0.110227
-0.0799832
-0.0521553
-0.0267128
-0.00360572
0.017252
0.035948
0.0525984
0.0673218
0.0802241
0.0914256
0.101039
0.109172
0.115921
0.121393
0.125675
0.128862
0.131027
0.132256
0.132619
0.13218
0.130999
0.129144
0.126654
0.123584
0.119987
0.115897
0.111366
0.106424
0.101109
0.0954513
0.0894821
0.0832306
0.0767233
0.0699852
0.0630219
0.0558668
0.04853
0.0409713
0.0332534
0.0251279
0.0166762
0.00814891
0.00254858
1.33167
1.18843
1.15003
1.10601
1.06071
1.01915
0.975984
0.930874
0.88287
0.831463
0.776123
0.716561
0.652548
0.584012
0.510916
0.433426
0.351836
0.266621
0.178486
0.0883416
-0.00259827
-0.0929969
-0.181233
-0.265409
-0.344124
-0.414699
-0.475475
-0.526318
-0.565996
-0.593348
-0.608765
-0.612721
-0.606121
-0.590219
-0.566394
-0.536145
-0.500969
-0.462242
-0.421238
-0.379063
-0.336657
-0.2948
-0.254086
-0.214988
-0.177831
-0.142864
-0.110222
-0.0799774
-0.0521536
-0.0267196
-0.00361507
0.0172418
0.0359418
0.0525907
0.0673167
0.0802193
0.0914239
0.101038
0.109168
0.115915
0.121393
0.125677
0.128861
0.131027
0.132251
0.132612
0.132169
0.130993
0.129135
0.126645
0.123577
0.119981
0.115897
0.111362
0.10642
0.101103
0.0954469
0.0894797
0.0832248
0.0767193
0.0699735
0.0630107
0.0558587
0.0485118
0.0409568
0.033228
0.025105
0.016679
0.00815723
0.00255459
1.33253
1.1893
1.15092
1.10695
1.06168
1.02019
0.977101
0.932106
0.884236
0.832957
0.777806
0.71842
0.654677
0.586378
0.513609
0.436466
0.355238
0.270456
0.182746
0.0930673
0.00257902
-0.0873613
-0.175159
-0.258908
-0.337305
-0.407457
-0.468341
-0.519235
-0.558743
-0.586191
-0.60177
-0.605955
-0.599652
-0.584081
-0.560621
-0.530761
-0.495976
-0.457646
-0.417029
-0.375234
-0.333192
-0.29167
-0.251278
-0.212473
-0.175592
-0.140871
-0.108452
-0.0784127
-0.0507684
-0.0254924
-0.00252608
0.0182059
0.0367861
0.0533289
0.0679587
0.0807797
0.0919118
0.101462
0.10954
0.116242
0.121673
0.12592
0.129072
0.13121
0.132415
0.132753
0.132296
0.131097
0.129225
0.126724
0.123643
0.120038
0.115941
0.111402
0.106452
0.101131
0.0954724
0.089499
0.0832434
0.0767297
0.0699881
0.0630261
0.0558702
0.0485327
0.0409702
0.0332444
0.02511
0.0166496
0.00814897
0.00256443
1.33422
1.19104
1.15271
1.10879
1.06362
1.02227
0.979338
0.934537
0.886913
0.835932
0.781104
0.722158
0.658851
0.591122
0.518949
0.442473
0.362008
0.278003
0.191166
0.102359
0.0127882
-0.076269
-0.163195
-0.246184
-0.323775
-0.393459
-0.454315
-0.504955
-0.544372
-0.571996
-0.587882
-0.592546
-0.586803
-0.571904
-0.549174
-0.52008
-0.486083
-0.448539
-0.408697
-0.36765
-0.326322
-0.28548
-0.245714
-0.207494
-0.171147
-0.136915
-0.104944
-0.0753052
-0.0480231
-0.0230728
-0.000399192
0.0200766
0.0384323
0.0547741
0.0692281
0.0818953
0.0928892
0.102318
0.110288
0.116896
0.122246
0.126422
0.12951
0.131593
0.132747
0.133043
0.132543
0.131313
0.129408
0.126883
0.123785
0.120158
0.116047
0.111488
0.106529
0.101195
0.095525
0.089548
0.0832824
0.0767641
0.0700134
0.0630425
0.0558855
0.0485329
0.0409835
0.0332484
0.0251573
0.0167452
0.00813785
0.00250942
1.33678
1.19363
1.15537
1.11154
1.06652
1.02536
0.982667
0.938142
0.890888
0.840311
0.78602
0.727634
0.665048
0.598087
0.526804
0.451334
0.371937
0.289144
0.203543
0.116053
0.027798
-0.059952
-0.145605
-0.22751
-0.303968
-0.37307
-0.433435
-0.483791
-0.523157
-0.551022
-0.567392
-0.572713
-0.56784
-0.553906
-0.532248
-0.504289
-0.471445
-0.435067
-0.396369
-0.356427
-0.316162
-0.276314
-0.237486
-0.200126
-0.164575
-0.131068
-0.0997464
-0.0707053
-0.0439527
-0.0194798
0.00276577
0.0228639
0.0408834
0.0569258
0.0711156
0.0835497
0.0943399
0.103588
0.111397
0.117865
0.123089
0.127159
0.130154
0.132153
0.133234
0.133465
0.132916
0.131634
0.129687
0.127126
0.123992
0.120337
0.116197
0.111622
0.106647
0.101297
0.0956114
0.0896153
0.0833414
0.0768105
0.0700529
0.0630788
0.055916
0.048566
0.0409954
0.0332734
0.0251401
0.0166893
0.0081469
0.00254613
1.34015
1.19704
1.15889
1.11516
1.07034
1.0294
0.98702
0.942887
0.89607
0.846059
0.792403
0.734802
0.673084
0.607146
0.537018
0.462811
0.384849
0.303544
0.219587
0.133773
0.0472389
-0.0387983
-0.122853
-0.203251
-0.278422
-0.346538
-0.406229
-0.456185
-0.495484
-0.523652
-0.540602
-0.546814
-0.543008
-0.530355
-0.510097
-0.483615
-0.452296
-0.417441
-0.380244
-0.341758
-0.302872
-0.264336
-0.226721
-0.190493
-0.155981
-0.123419
-0.0929638
-0.064694
-0.0386408
-0.0147919
0.00689694
0.0264905
0.0440688
0.05973
0.0735778
0.0857111
0.0962315
0.105247
0.112852
0.119141
0.124203
0.12813
0.131002
0.132898
0.133884
0.13403
0.133402
0.132058
0.130055
0.127445
0.124272
0.120577
0.116407
0.111799
0.106796
0.101422
0.095718
0.0897079
0.0834185
0.076879
0.0701058
0.0631237
0.0559522
0.0485919
0.0410239
0.033281
0.0251648
0.0167406
0.00815756
0.00251654
1.34433
1.20128
1.16324
1.11966
1.07503
1.03441
0.99235
0.948651
0.902393
0.853036
0.800176
0.74348
0.682839
0.618119
0.549353
0.476699
0.400405
0.320956
0.238927
0.155154
0.0706777
-0.0133234
-0.0953885
-0.174035
-0.24758
-0.314494
-0.373272
-0.422731
-0.461944
-0.490411
-0.508077
-0.515289
-0.512824
-0.501688
-0.48312
-0.458434
-0.428954
-0.395955
-0.360583
-0.323866
-0.286676
-0.249727
-0.213604
-0.178749
-0.145501
-0.114096
-0.0846858
-0.0573632
-0.0321565
-0.00906825
0.0119388
0.0309337
0.0479787
0.0631643
0.0765911
0.0883555
0.0985499
0.107275
0.114625
0.120689
0.125556
0.12931
0.132033
0.133792
0.134664
0.134711
0.133998
0.132574
0.130503
0.127831
0.124603
0.120864
0.116651
0.112015
0.106982
0.101587
0.0958559
0.0898237
0.0835154
0.0769573
0.0701739
0.0631826
0.0559945
0.0486257
0.0410378
0.0332935
0.0251301
0.0166684
0.00818034
0.00258447
1.34931
1.2063
1.16836
1.12497
1.08057
1.04024
0.998604
0.9554
0.909785
0.861166
0.809181
0.753539
0.694094
0.630757
0.563576
0.492649
0.41831
0.340922
0.261132
0.179676
0.0975498
0.0159297
-0.0639151
-0.140427
-0.212196
-0.277589
-0.335307
-0.384136
-0.423173
-0.451964
-0.470372
-0.478754
-0.477761
-0.468388
-0.45177
-0.429162
-0.401827
-0.37098
-0.33773
-0.303071
-0.267837
-0.232748
-0.198348
-0.165093
-0.133314
-0.103249
-0.0750598
-0.048833
-0.0246124
-0.00240516
0.0178115
0.0360961
0.0525181
0.067154
0.0800899
0.0914214
0.101234
0.109629
0.116688
0.122495
0.127134
0.13069
0.133236
0.134844
0.135583
0.135511
0.134688
0.133179
0.131027
0.128282
0.124994
0.121204
0.116947
0.112265
0.107196
0.101764
0.0960095
0.0899512
0.0836259
0.0770519
0.0702518
0.0632466
0.05605
0.0486696
0.0410783
0.0333257
0.0251455
0.016672
0.00818222
0.0025912
1.35506
1.21208
1.17427
1.13106
1.0869
1.04692
1.00566
0.963054
0.91811
0.870297
0.81929
0.764766
0.706662
0.644838
0.579369
0.510382
0.438143
0.363061
0.285715
0.206806
0.127314
0.0482609
-0.0290333
-0.103271
-0.17294
-0.236686
-0.293133
-0.341201
-0.380023
-0.409091
-0.428308
-0.437922
-0.438565
-0.431112
-0.416644
-0.396342
-0.371388
-0.342948
-0.312073
-0.279709
-0.246681
-0.21366
-0.181207
-0.149747
-0.119623
-0.0910619
-0.0642366
-0.0392453
-0.0161378
0.00507006
0.0243988
0.0418975
0.057625
0.0716439
0.0840335
0.094883
0.10427
0.112284
0.119008
0.124522
0.128909
0.132238
0.13459
0.136022
0.136609
0.136405
0.135471
0.133853
0.131617
0.128795
0.125434
0.121583
0.11727
0.112546
0.107438
0.101975
0.0961861
0.0901035
0.0837523
0.0771612
0.0703413
0.0633187
0.0561042
0.0487136
0.0411163
0.0333517
0.0252271
0.0167973
0.008184
0.00251263
1.36149
1.21862
1.18095
1.13786
1.09396
1.05434
1.01354
0.971476
0.927265
0.880309
0.830289
0.777011
0.720276
0.660083
0.596454
0.529498
0.459536
0.386892
0.312146
0.235994
0.159261
0.083032
0.00841296
-0.0632842
-0.130743
-0.192623
-0.24768
-0.294871
-0.333358
-0.362682
-0.382677
-0.393579
-0.395928
-0.390536
-0.378381
-0.360565
-0.3382
-0.31237
-0.284071
-0.254214
-0.223575
-0.192824
-0.162479
-0.132981
-0.104652
-0.0777381
-0.0524047
-0.0287564
-0.00686294
0.0132625
0.0316251
0.0482583
0.0632118
0.0765538
0.0883444
0.0986638
0.107582
0.115185
0.121551
0.126751
0.130854
0.133939
0.136078
0.13732
0.137739
0.137389
0.136324
0.134598
0.132258
0.129347
0.125914
0.121998
0.11763
0.112853
0.107694
0.102193
0.0963754
0.0902635
0.0838882
0.0772694
0.070433
0.0633961
0.0561685
0.048764
0.041155
0.033381
0.0252005
0.0167094
0.00819589
0.0025836
1.36869
1.22584
1.1883
1.14534
1.10173
1.06242
1.02206
0.980595
0.937085
0.891014
0.842064
0.790006
0.73475
0.676225
0.614484
0.549678
0.482032
0.411943
0.339935
0.266591
0.192826
0.119465
0.0477077
-0.0213648
-0.0864342
-0.146338
-0.199863
-0.246071
-0.284165
-0.31367
-0.334449
-0.346645
-0.350755
-0.347482
-0.337742
-0.322533
-0.302879
-0.279798
-0.254227
-0.227021
-0.198924
-0.170571
-0.142482
-0.115062
-0.088658
-0.063494
-0.0397531
-0.0175467
0.00305663
0.0220199
0.0393484
0.0550585
0.069199
0.081816
0.0929645
0.102713
0.111137
0.1183
0.124274
0.129128
0.132935
0.135756
0.137662
0.138705
0.138945