/*--------------------------------*- C++ -*----------------------------------*\
  =========                 |
  \\      /  F ield         | OpenFOAM: The Open Source CFD Toolbox
   \\    /   O peration     | Website:  https://openfoam.org
    \\  /    A nd           | Version:  11
     \\/     M anipulation  |
\*---------------------------------------------------------------------------*/
FoamFile
{
    format      ascii;
    class       volScalarField;
    location    "0.03";
    object      k;
}
// * * * * * * * * * * * * * * * * * * * * * * * * * * * * * * * * * * * * * //

dimensions      [0 2 -2 0 0 0 0];

internalField   nonuniform List<scalar> 
287084
(
0.382918
0.394165
0.399208
0.400562
0.400625
0.400575
0.400418
0.400401
0.400612
0.40068
0.400689
0.400642
0.400473
0.40048
0.400671
0.400592
0.400712
0.400857
0.400722
0.40081
0.400849
0.400746
0.400738
0.400729
0.400598
0.400542
0.400685
0.400786
0.400727
0.400494
0.400539
0.400655
0.400395
0.400456
0.400607
0.400581
0.400496
0.400481
0.400568
0.400394
0.40049
0.400582
0.400336
0.400409
0.400553
0.400304
0.400348
0.400571
0.400576
0.400538
0.400519
0.400485
0.400427
0.400432
0.400322
0.400439
0.400527
0.400503
0.400435
0.400472
0.400609
0.400391
0.40047
0.400608
0.400537
0.400527
0.400385
0.400496
0.400587
0.400557
0.400472
0.400441
0.400551
0.400555
0.400603
0.400624
0.400585
0.40044
0.400535
0.400597
0.400588
0.400586
0.400329
0.400329
0.400453
0.400296
0.400398
0.400526
0.400497
0.400409
0.38294
0.394039
0.399181
0.400599
0.400675
0.400646
0.400621
0.400628
0.400644
0.400659
0.400617
0.400458
0.400519
0.40062
0.400364
0.40043
0.400603
0.400531
0.400447
0.400584
0.400862
0.400812
0.400817
0.400846
0.40085
0.400673
0.400761
0.400818
0.4006
0.400669
0.400711
0.400461
0.400533
0.400678
0.400434
0.400462
0.400638
0.40055
0.400634
0.400667
0.40061
0.400426
0.400419
0.400622
0.400636
0.400587
0.400343
0.400384
0.400495
0.400245
0.400261
0.400475
0.400544
0.400503
0.400327
0.400448
0.400573
0.40038
0.400482
0.400579
0.400537
0.400463
0.400497
0.400588
0.400437
0.400512
0.400606
0.400565
0.400434
0.400511
0.400675
0.400654
0.400649
0.400443
0.400524
0.400669
0.400541
0.400578
0.400586
0.400558
0.400554
0.400535
0.400395
0.400412
0.400443
0.400402
0.400285
0.400364
0.400528
0.400281
0.382939
0.394031
0.399173
0.400554
0.400558
0.400706
0.400803
0.400629
0.400709
0.400825
0.400826
0.400825
0.400717
0.400583
0.400622
0.400737
0.40073
0.400729
0.40053
0.40056
0.400746
0.400702
0.400781
0.400854
0.400826
0.400784
0.400662
0.400733
0.400799
0.400577
0.400677
0.400815
0.400585
0.400677
0.400827
0.400613
0.400717
0.400854
0.400707
0.400711
0.400704
0.400667
0.400678
0.400712
0.400675
0.400579
0.400634
0.400676
0.400645
0.400636
0.400454
0.400491
0.400542
0.400408
0.400512
0.400601
0.400355
0.400432
0.400555
0.400533
0.400479
0.400462
0.400598
0.400497
0.400598
0.400646
0.400608
0.400498
0.400547
0.400619
0.400452
0.400443
0.400365
0.400463
0.400535
0.400334
0.400434
0.400644
0.400553
0.400583
0.400532
0.400579
0.400594
0.400419
0.400497
0.400578
0.400345
0.400426
0.400498
0.40026
0.382935
0.394047
0.399108
0.400644
0.40073
0.400862
0.400929
0.400826
0.400821
0.400846
0.400854
0.400814
0.400708
0.400678
0.400815
0.400835
0.400774
0.400567
0.400629
0.400795
0.400649
0.400649
0.400637
0.400654
0.400594
0.400558
0.400453
0.400544
0.400795
0.400775
0.400731
0.400491
0.400548
0.400689
0.400453
0.400502
0.400679
0.400511
0.400603
0.400736
0.400587
0.400574
0.400618
0.400607
0.400615
0.400612
0.400403
0.400407
0.400518
0.400478
0.400476
0.400407
0.400402
0.400322
0.400451
0.400592
0.400391
0.400489
0.400586
0.400501
0.400496
0.400424
0.40059
0.400693
0.400662
0.400638
0.400646
0.400673
0.400638
0.400632
0.400479
0.400545
0.400616
0.400464
0.400558
0.400747
0.400726
0.400684
0.400675
0.400623
0.400401
0.400488
0.400589
0.400575
0.400572
0.400359
0.400446
0.40052
0.400482
0.400367
0.382935
0.394042
0.399109
0.400677
0.400842
0.40081
0.400701
0.400775
0.400854
0.400689
0.40076
0.400784
0.400756
0.400759
0.400642
0.400635
0.400634
0.400519
0.400484
0.400587
0.400576
0.400745
0.400873
0.400739
0.400754
0.400743
0.400593
0.400666
0.400786
0.400538
0.400541
0.400695
0.400604
0.400718
0.400848
0.400692
0.400773
0.400802
0.400785
0.400779
0.400547
0.400593
0.400657
0.400641
0.400636
0.400437
0.400518
0.400582
0.400403
0.400507
0.400607
0.400352
0.4004
0.400566
0.400393
0.400482
0.400629
0.400525
0.400539
0.400531
0.400391
0.400473
0.400621
0.400391
0.400477
0.400593
0.400364
0.400427
0.400596
0.400408
0.400496
0.400644
0.400599
0.400592
0.40045
0.400551
0.400632
0.400481
0.400467
0.400465
0.400364
0.400471
0.400608
0.400429
0.400534
0.400604
0.400422
0.400527
0.400604
0.400333
0.382925
0.394084
0.399068
0.400389
0.40045
0.400312
0.400415
0.400599
0.400598
0.400597
0.400377
0.400467
0.400724
0.400565
0.400679
0.400788
0.400646
0.400639
0.400628
0.400639
0.400632
0.400496
0.400576
0.4007
0.400453
0.400489
0.400722
0.400718
0.400677
0.400531
0.400647
0.400825
0.400707
0.400706
0.400689
0.400512
0.400563
0.400657
0.4004
0.400468
0.400634
0.400407
0.400495
0.40066
0.400442
0.400538
0.400697
0.400566
0.400578
0.400568
0.400428
0.400491
0.400621
0.400616
0.400608
0.400374
0.400336
0.400508
0.40055
0.400497
0.400302
0.400276
0.400522
0.400623
0.400597
0.400597
0.400502
0.400425
0.400503
0.400491
0.400634
0.400711
0.400547
0.40063
0.400669
0.400456
0.400546
0.400647
0.400432
0.400511
0.400628
0.400488
0.400586
0.400638
0.40061
0.400594
0.400606
0.400634
0.400569
0.400356
0.3829
0.394133
0.39906
0.400464
0.40055
0.400373
0.400476
0.400558
0.400431
0.400385
0.400551
0.401146
0.401177
0.401093
0.401106
0.40117
0.401161
0.401091
0.401052
0.401039
0.401061
0.401029
0.400878
0.400911
0.400939
0.400886
0.400724
0.400741
0.400825
0.400809
0.400736
0.400767
0.400838
0.400593
0.400679
0.400822
0.400604
0.400692
0.400819
0.400767
0.400759
0.400604
0.400705
0.400785
0.400682
0.400656
0.400641
0.40067
0.400619
0.400625
0.400521
0.400572
0.400599
0.40035
0.400392
0.400568
0.400581
0.400573
0.400315
0.40033
0.400473
0.400315
0.400425
0.400523
0.400495
0.400478
0.400391
0.400403
0.400308
0.400424
0.40051
0.400296
0.400362
0.400578
0.400577
0.400563
0.400344
0.400435
0.400618
0.400492
0.400572
0.400601
0.400436
0.400515
0.40061
0.400589
0.400542
0.400537
0.400563
0.400318
0.382932
0.394056
0.399051
0.400741
0.40121
0.401322
0.401345
0.401352
0.401347
0.40131
0.401282
0.401297
0.401265
0.401186
0.401144
0.401141
0.401107
0.401053
0.401025
0.401018
0.401033
0.401024
0.400881
0.400906
0.400942
0.400888
0.400718
0.400712
0.400781
0.400586
0.400689
0.400833
0.400601
0.400692
0.400836
0.400618
0.400604
0.400883
0.400948
0.400909
0.400903
0.400762
0.400849
0.40091
0.400784
0.400757
0.400821
0.400898
0.400882
0.400858
0.400828
0.400805
0.400805
0.400752
0.400602
0.40057
0.400583
0.400556
0.400453
0.400393
0.400591
0.400683
0.400637
0.400667
0.40065
0.400444
0.400514
0.400605
0.400442
0.400438
0.400432
0.400433
0.400284
0.40031
0.400613
0.400635
0.400572
0.400444
0.400335
0.400521
0.400665
0.400595
0.400621
0.400579
0.400518
0.400395
0.400475
0.400586
0.400534
0.400352
0.382914
0.394109
0.399068
0.400468
0.400604
0.400589
0.400595
0.400549
0.400426
0.400535
0.401109
0.401164
0.401082
0.40108
0.401101
0.401126
0.401106
0.401045
0.401002
0.400962
0.400959
0.40097
0.400915
0.400915
0.400933
0.400892
0.400696
0.400722
0.400808
0.400596
0.400698
0.400838
0.400604
0.400695
0.400837
0.400617
0.400599
0.400864
0.400967
0.400907
0.4009
0.400901
0.400909
0.400862
0.400813
0.40077
0.400712
0.400481
0.400518
0.400575
0.40033
0.400408
0.400497
0.400259
0.400274
0.400536
0.400567
0.400512
0.400302
0.40028
0.400503
0.400559
0.400509
0.40039
0.400314
0.400507
0.400645
0.400568
0.400608
0.400625
0.40058
0.400389
0.400429
0.400649
0.40064
0.400641
0.400657
0.400676
0.400629
0.400579
0.400478
0.400573
0.400687
0.400604
0.400596
0.400592
0.400409
0.400418
0.400497
0.400279
0.38289
0.394152
0.39908
0.40027
0.400579
0.400556
0.400331
0.400321
0.400638
0.400718
0.400658
0.400504
0.400444
0.400687
0.400764
0.400706
0.400505
0.400489
0.400636
0.400547
0.400658
0.400718
0.400528
0.400535
0.400745
0.400761
0.400652
0.400756
0.400845
0.40059
0.400666
0.400826
0.400804
0.400723
0.40069
0.400697
0.40068
0.400564
0.400581
0.400613
0.400346
0.400408
0.400552
0.400312
0.40039
0.400512
0.40027
0.400323
0.400501
0.400386
0.400395
0.400388
0.400388
0.400236
0.400322
0.400472
0.400234
0.400287
0.400459
0.400479
0.400481
0.40024
0.400293
0.400484
0.400474
0.400416
0.400459
0.400533
0.400416
0.400443
0.400397
0.40026
0.400355
0.400494
0.400254
0.400296
0.400509
0.400525
0.40051
0.400276
0.40033
0.4005
0.400508
0.400509
0.400417
0.40033
0.400441
0.400607
0.400564
0.400407
0.382912
0.39409
0.399114
0.40051
0.400665
0.400616
0.400425
0.400398
0.400651
0.400711
0.400677
0.400631
0.400772
0.400867
0.400695
0.40077
0.400883
0.400887
0.400888
0.40079
0.400672
0.400716
0.400833
0.40078
0.400583
0.400577
0.400718
0.400691
0.400688
0.400565
0.400684
0.400848
0.400747
0.400746
0.400725
0.400536
0.400572
0.400648
0.400385
0.40045
0.400609
0.400382
0.400469
0.400633
0.400415
0.400499
0.400697
0.400664
0.400622
0.400402
0.400476
0.400561
0.400326
0.400389
0.400545
0.40053
0.400535
0.400392
0.400433
0.400464
0.400412
0.400247
0.400316
0.400494
0.400471
0.400465
0.40026
0.400305
0.40057
0.400528
0.400535
0.400514
0.400625
0.400674
0.40049
0.400587
0.400692
0.400563
0.400634
0.40067
0.400558
0.400644
0.400673
0.400418
0.400484
0.400599
0.400463
0.400484
0.400437
0.400286
0.382907
0.39411
0.399071
0.400568
0.400703
0.4007
0.4007
0.400646
0.400539
0.400569
0.401048
0.401197
0.401129
0.401172
0.401185
0.40115
0.401115
0.401101
0.400985
0.401016
0.401036
0.400914
0.401001
0.401049
0.400982
0.400804
0.40074
0.400755
0.400569
0.400655
0.400752
0.400494
0.400563
0.4007
0.40045
0.400518
0.400674
0.400442
0.400525
0.40068
0.400456
0.400548
0.400698
0.400564
0.400574
0.400564
0.40042
0.400491
0.400568
0.400565
0.400564
0.400488
0.400371
0.400412
0.400511
0.400385
0.400436
0.400448
0.400301
0.400356
0.400563
0.400576
0.400542
0.400477
0.40045
0.400443
0.400327
0.40042
0.400583
0.400586
0.400585
0.400324
0.400389
0.400527
0.400493
0.400485
0.400277
0.400384
0.400602
0.40052
0.400509
0.400397
0.400495
0.400546
0.400475
0.400473
0.400382
0.400497
0.400564
0.40031
0.382932
0.394056
0.39905
0.400739
0.401207
0.401321
0.401302
0.401268
0.401214
0.401225
0.401251
0.401221
0.401232
0.40119
0.401151
0.401151
0.401121
0.401099
0.401066
0.401048
0.401018
0.400964
0.400968
0.401033
0.401014
0.40095
0.400747
0.400781
0.400865
0.400634
0.400729
0.400858
0.4007
0.400646
0.400831
0.400917
0.40091
0.400905
0.400707
0.400777
0.400865
0.400786
0.400779
0.400678
0.400761
0.400804
0.400773
0.400778
0.400654
0.400649
0.40066
0.400609
0.400425
0.400494
0.40062
0.400591
0.400585
0.400394
0.40051
0.400662
0.400628
0.400621
0.400437
0.400546
0.400656
0.400431
0.400517
0.40061
0.400445
0.400438
0.400431
0.400432
0.400282
0.400307
0.400611
0.400634
0.400566
0.40039
0.400342
0.400523
0.400566
0.400516
0.400407
0.400331
0.40052
0.400671
0.400604
0.400637
0.400586
0.400346
0.382895
0.394132
0.399108
0.400335
0.400383
0.400314
0.400455
0.400655
0.400552
0.400589
0.400544
0.400408
0.400478
0.40065
0.400617
0.400645
0.400654
0.40057
0.400579
0.400789
0.400696
0.40081
0.400956
0.400843
0.400889
0.400901
0.400864
0.400871
0.40082
0.400648
0.400729
0.40086
0.400704
0.400642
0.400819
0.400917
0.400836
0.400826
0.400843
0.400873
0.400802
0.400765
0.400781
0.400812
0.400774
0.40074
0.400718
0.400563
0.400448
0.40046
0.400397
0.400523
0.400597
0.400573
0.400568
0.400377
0.400439
0.40056
0.40053
0.400525
0.400346
0.400426
0.400595
0.400473
0.400476
0.400389
0.400487
0.400547
0.400486
0.400477
0.400331
0.400411
0.40063
0.400476
0.40057
0.400723
0.400607
0.400687
0.400719
0.400691
0.400694
0.400625
0.400598
0.400444
0.400513
0.400667
0.400639
0.400638
0.400577
0.400384
0.382932
0.394055
0.39905
0.400739
0.401208
0.401319
0.401343
0.401352
0.401342
0.401307
0.401286
0.401301
0.401271
0.401195
0.401154
0.401154
0.401131
0.401064
0.401084
0.401102
0.401018
0.400993
0.401046
0.401062
0.40101
0.400765
0.400758
0.400836
0.400739
0.400765
0.400716
0.400557
0.400629
0.400721
0.400455
0.400518
0.400667
0.400431
0.400512
0.400662
0.400436
0.400529
0.400675
0.400594
0.400582
0.400437
0.400521
0.400645
0.40059
0.400593
0.400578
0.400572
0.40059
0.400619
0.400563
0.400457
0.400346
0.40058
0.400761
0.40067
0.400732
0.400815
0.400786
0.400799
0.400741
0.400484
0.400529
0.400605
0.40044
0.400435
0.400429
0.40043
0.400281
0.400306
0.40061
0.400633
0.400565
0.400389
0.400341
0.400522
0.400564
0.400511
0.400316
0.400339
0.400488
0.400416
0.400485
0.400522
0.400467
0.400274
0.382958
0.393998
0.399094
0.400621
0.400728
0.400621
0.400726
0.400799
0.400699
0.400717
0.400724
0.400733
0.400584
0.400656
0.400765
0.400715
0.400536
0.400509
0.400649
0.400648
0.400671
0.40065
0.400761
0.400802
0.400637
0.400721
0.400836
0.400582
0.400603
0.400814
0.400819
0.400746
0.400813
0.400852
0.400669
0.400652
0.400623
0.400632
0.400579
0.400391
0.400446
0.400543
0.400289
0.400321
0.400499
0.400329
0.400405
0.400622
0.400624
0.400584
0.400557
0.400542
0.400396
0.400521
0.400962
0.401002
0.400986
0.400971
0.400968
0.400949
0.400855
0.400827
0.400889
0.4009
0.400863
0.40087
0.400803
0.400571
0.400605
0.400663
0.400419
0.4005
0.400599
0.400598
0.400598
0.400458
0.400505
0.400517
0.400376
0.400458
0.40065
0.400637
0.400623
0.400418
0.400504
0.400601
0.400524
0.400552
0.400503
0.400324
0.382952
0.394027
0.399009
0.400714
0.401198
0.401317
0.401344
0.401352
0.401355
0.401319
0.401292
0.401256
0.401229
0.401232
0.401212
0.401134
0.401093
0.401026
0.401076
0.401092
0.400881
0.400944
0.401002
0.400967
0.400915
0.400921
0.400932
0.400662
0.400717
0.400818
0.400815
0.400808
0.400524
0.400575
0.400637
0.400631
0.400624
0.400347
0.400404
0.400543
0.400298
0.400368
0.400535
0.400516
0.400509
0.400277
0.400346
0.400537
0.400495
0.400492
0.4005
0.400503
0.40036
0.400567
0.400844
0.400751
0.400833
0.400867
0.400767
0.400832
0.400849
0.400752
0.400754
0.400758
0.40072
0.400715
0.400665
0.400475
0.400536
0.400592
0.400485
0.400467
0.400447
0.400442
0.400266
0.400297
0.400494
0.400504
0.400554
0.40051
0.40038
0.400455
0.400614
0.400507
0.400567
0.400587
0.400489
0.400579
0.400613
0.40034
0.382933
0.394055
0.39905
0.40074
0.40121
0.401322
0.401346
0.401353
0.401358
0.401369
0.401336
0.401305
0.40127
0.401244
0.401249
0.40123
0.401154
0.401112
0.401117
0.401057
0.401082
0.401103
0.401031
0.401036
0.400986
0.40078
0.4008
0.400883
0.400667
0.400752
0.40081
0.400554
0.400623
0.400719
0.400452
0.400513
0.400653
0.400414
0.400493
0.400641
0.400415
0.400494
0.400667
0.400558
0.40056
0.40055
0.40058
0.400526
0.400526
0.400526
0.400493
0.400432
0.400626
0.400858
0.400754
0.400834
0.400869
0.40081
0.400797
0.400813
0.40082
0.400723
0.400719
0.400709
0.400577
0.400624
0.400653
0.400506
0.400569
0.400653
0.400634
0.400621
0.400422
0.400351
0.400531
0.400619
0.400559
0.400339
0.400339
0.400481
0.400424
0.400536
0.400574
0.400519
0.400415
0.400306
0.400478
0.400593
0.400541
0.400356
0.382952
0.394028
0.399008
0.400714
0.401199
0.401318
0.401343
0.401354
0.401317
0.401286
0.401248
0.40122
0.401224
0.401203
0.401126
0.401083
0.401016
0.401068
0.401086
0.400877
0.400946
0.401015
0.400854
0.400838
0.400835
0.400697
0.400765
0.400865
0.400605
0.400672
0.400828
0.400591
0.400646
0.400755
0.400748
0.400746
0.40069
0.400593
0.400518
0.400485
0.400323
0.400425
0.400522
0.400264
0.400332
0.40045
0.400211
0.400287
0.400453
0.400427
0.400421
0.400216
0.400196
0.40056
0.400871
0.400784
0.400841
0.400918
0.400897
0.400894
0.400863
0.400804
0.400799
0.400782
0.400781
0.400641
0.400688
0.400709
0.400609
0.4006
0.40061
0.400567
0.400544
0.40055
0.400525
0.400388
0.400454
0.400642
0.400609
0.400567
0.40035
0.40043
0.400543
0.40037
0.400458
0.400506
0.400311
0.400399
0.400536
0.400282
0.382952
0.394027
0.399005
0.400761
0.400934
0.400885
0.400883
0.400889
0.400853
0.400877
0.400885
0.400671
0.400649
0.400782
0.400874
0.400829
0.400728
0.400625
0.40061
0.400588
0.400734
0.401023
0.401025
0.401013
0.400758
0.400785
0.400877
0.400626
0.400698
0.400803
0.400545
0.400614
0.400738
0.400477
0.400539
0.40068
0.400557
0.400582
0.400532
0.400361
0.400429
0.400522
0.40038
0.400369
0.40037
0.400376
0.400384
0.400333
0.400278
0.400562
0.401038
0.401164
0.401196
0.401205
0.401208
0.401167
0.40113
0.401135
0.401117
0.401034
0.401047
0.401062
0.400952
0.400921
0.400891
0.400863
0.400874
0.400869
0.400796
0.400754
0.400715
0.400605
0.400687
0.400719
0.400675
0.400546
0.400571
0.400627
0.4005
0.400497
0.400408
0.400444
0.400477
0.400332
0.400409
0.400551
0.40045
0.400466
0.400455
0.400302
0.382923
0.394075
0.399082
0.400439
0.400506
0.400466
0.400349
0.400448
0.400587
0.400346
0.400388
0.40059
0.400431
0.400538
0.400664
0.400651
0.400654
0.400596
0.400767
0.40076
0.400923
0.401052
0.400905
0.40089
0.400888
0.400753
0.400827
0.400928
0.400669
0.400728
0.400874
0.40064
0.400719
0.400849
0.400622
0.400709
0.400795
0.400734
0.400722
0.400554
0.400639
0.400688
0.400553
0.400549
0.400549
0.400524
0.400479
0.400441
0.400324
0.400381
0.400416
0.400232
0.400305
0.400467
0.400368
0.400365
0.400336
0.400334
0.40019
0.400289
0.400452
0.400218
0.400296
0.40045
0.400296
0.400246
0.400294
0.400283
0.400452
0.400599
0.400448
0.400441
0.400475
0.400479
0.400298
0.400315
0.400604
0.400632
0.400567
0.400344
0.40034
0.400479
0.40037
0.400458
0.400492
0.400302
0.400374
0.400533
0.400509
0.400428
0.382933
0.394055
0.39905
0.400741
0.401214
0.401282
0.401262
0.401223
0.401191
0.401193
0.401166
0.401136
0.401089
0.401059
0.40099
0.401008
0.401033
0.400967
0.400938
0.400988
0.401021
0.400967
0.400843
0.400752
0.400819
0.400921
0.400868
0.400653
0.400737
0.400858
0.400823
0.40072
0.400733
0.40075
0.400713
0.400701
0.400487
0.400545
0.400568
0.400432
0.400423
0.400416
0.400262
0.400283
0.400445
0.40036
0.40046
0.400502
0.400479
0.40042
0.400453
0.400873
0.401133
0.401189
0.401202
0.401208
0.401214
0.401173
0.401134
0.401104
0.401072
0.401053
0.401065
0.401013
0.400997
0.400917
0.400931
0.400963
0.400928
0.400951
0.400966
0.400964
0.400797
0.400768
0.400777
0.400675
0.400665
0.400657
0.400494
0.400514
0.400599
0.4004
0.400499
0.400615
0.40049
0.40048
0.400363
0.400454
0.400507
0.400278
0.382933
0.394055
0.39905
0.400741
0.401211
0.401323
0.401346
0.401352
0.401362
0.401326
0.401296
0.401262
0.401237
0.401242
0.401224
0.40115
0.401109
0.401047
0.401101
0.401119
0.401093
0.401031
0.401056
0.401083
0.401026
0.400846
0.40084
0.400912
0.40071
0.400797
0.40086
0.400632
0.400727
0.400855
0.400624
0.400684
0.400828
0.400683
0.400691
0.400802
0.400806
0.400778
0.400783
0.400656
0.400685
0.400694
0.400671
0.400667
0.400565
0.400407
0.400459
0.40092
0.40114
0.401188
0.401201
0.401207
0.40121
0.401215
0.401209
0.401171
0.401139
0.401146
0.401101
0.40108
0.40104
0.401055
0.401083
0.401058
0.401047
0.401013
0.400942
0.400928
0.400856
0.400832
0.400811
0.400838
0.400779
0.400758
0.400746
0.400772
0.40072
0.400518
0.40057
0.400644
0.400412
0.400494
0.400635
0.400599
0.400556
0.400324
0.382912
0.394096
0.399113
0.400361
0.400365
0.400542
0.400658
0.40041
0.400482
0.400601
0.400508
0.40042
0.400468
0.401038
0.40117
0.401069
0.401099
0.401157
0.401175
0.401144
0.401005
0.401063
0.401096
0.400855
0.400924
0.401004
0.400856
0.400852
0.400864
0.400844
0.40062
0.400678
0.40076
0.400485
0.400542
0.400673
0.400512
0.400437
0.400633
0.400747
0.40067
0.400665
0.400645
0.400654
0.400643
0.40066
0.400598
0.400565
0.400586
0.40059
0.400424
0.400456
0.400471
0.400325
0.400295
0.400587
0.400764
0.400673
0.400674
0.400651
0.400659
0.40059
0.400654
0.400722
0.400679
0.400692
0.400624
0.400659
0.400699
0.400686
0.400673
0.400471
0.400403
0.400556
0.400639
0.400604
0.400518
0.400644
0.400708
0.400473
0.400547
0.40062
0.400395
0.400467
0.400518
0.400479
0.400367
0.400399
0.400525
0.400281
0.382933
0.394056
0.399046
0.400765
0.401072
0.40101
0.401038
0.401073
0.401042
0.401037
0.401033
0.400995
0.400906
0.400863
0.400877
0.400881
0.40077
0.400819
0.400864
0.400818
0.400676
0.400721
0.400868
0.400862
0.400835
0.400875
0.400929
0.400647
0.4007
0.400814
0.400776
0.400663
0.400678
0.400696
0.400648
0.400628
0.400336
0.400365
0.400506
0.400281
0.400357
0.400468
0.40022
0.400295
0.400424
0.400178
0.400213
0.400395
0.400233
0.400308
0.400419
0.400404
0.400401
0.400208
0.400282
0.400463
0.400453
0.400415
0.400449
0.400503
0.400467
0.400363
0.40033
0.400398
0.400216
0.400298
0.40048
0.400249
0.400327
0.400472
0.40045
0.400372
0.400408
0.400537
0.400421
0.400444
0.400394
0.400352
0.400226
0.400306
0.400531
0.400565
0.400521
0.40027
0.400349
0.40049
0.40025
0.400327
0.400483
0.400243
0.382933
0.394055
0.39905
0.400741
0.401211
0.401323
0.401348
0.401311
0.401278
0.401241
0.401213
0.401216
0.401195
0.401117
0.401076
0.401051
0.40104
0.401026
0.401005
0.401066
0.40115
0.40112
0.401087
0.401051
0.400786
0.400795
0.400888
0.400643
0.400715
0.400821
0.400552
0.400611
0.400705
0.400426
0.400393
0.400617
0.400659
0.400597
0.400367
0.400404
0.400509
0.400464
0.400451
0.400234
0.400308
0.400518
0.400355
0.40046
0.400546
0.4005
0.400352
0.400375
0.400444
0.400192
0.400223
0.400407
0.400268
0.400374
0.400458
0.400241
0.40027
0.400525
0.400539
0.400496
0.400298
0.400344
0.400484
0.400256
0.400329
0.400477
0.400241
0.400296
0.400509
0.400519
0.400513
0.400285
0.40035
0.400489
0.400268
0.400343
0.400515
0.400323
0.400419
0.400502
0.400466
0.400359
0.400383
0.400509
0.400501
0.400444
0.382933
0.394056
0.39905
0.40074
0.40121
0.401323
0.401345
0.401353
0.40136
0.40137
0.401337
0.401309
0.401278
0.401254
0.401259
0.401242
0.401171
0.401131
0.401071
0.401125
0.401152
0.401006
0.401084
0.401132
0.401124
0.40112
0.400938
0.400878
0.400923
0.400938
0.400881
0.400698
0.400775
0.40087
0.40063
0.400712
0.400793
0.400716
0.400702
0.400541
0.400563
0.400678
0.400681
0.400669
0.400469
0.400507
0.400534
0.4005
0.400506
0.400382
0.400607
0.401051
0.401166
0.401193
0.401201
0.401206
0.40121
0.401215
0.401202
0.401163
0.401141
0.401099
0.401061
0.40106
0.40098
0.400995
0.40102
0.401
0.40103
0.400993
0.400932
0.400931
0.400912
0.400881
0.40083
0.400668
0.400701
0.400723
0.400678
0.40055
0.400574
0.400624
0.400574
0.400569
0.400577
0.400572
0.400313
0.400373
0.400525
0.400277
0.382933
0.394055
0.39905
0.400741
0.401212
0.401324
0.401346
0.401354
0.401363
0.401326
0.401298
0.401263
0.401239
0.401243
0.401223
0.40115
0.401109
0.401047
0.401102
0.401123
0.401032
0.400983
0.401029
0.401059
0.401002
0.400817
0.40086
0.400947
0.400694
0.400762
0.400894
0.400653
0.400733
0.400855
0.400624
0.400685
0.400828
0.400682
0.400693
0.400806
0.400807
0.400778
0.400784
0.400657
0.400685
0.400694
0.400671
0.400667
0.400566
0.400408
0.400459
0.400919
0.401141
0.401193
0.401159
0.401122
0.401123
0.401132
0.401105
0.401018
0.400997
0.401059
0.401046
0.40099
0.400992
0.400926
0.400858
0.400861
0.400879
0.400755
0.400795
0.400809
0.400751
0.400566
0.400593
0.400665
0.400451
0.400534
0.400679
0.400577
0.400583
0.400596
0.400589
0.400596
0.400594
0.400539
0.400363
0.400438
0.400521
0.40027
0.382933
0.394055
0.39905
0.40074
0.401213
0.401282
0.401262
0.401224
0.401192
0.401195
0.401167
0.401135
0.401088
0.401061
0.401059
0.401045
0.400985
0.400998
0.401014
0.401
0.401013
0.400944
0.4007
0.400707
0.400857
0.400856
0.400832
0.400894
0.400944
0.400893
0.400887
0.400833
0.400839
0.400801
0.40074
0.400477
0.400514
0.400596
0.400462
0.400514
0.400532
0.400473
0.400273
0.400282
0.400449
0.400343
0.400446
0.400504
0.400486
0.400445
0.400462
0.400874
0.401133
0.401192
0.401161
0.401125
0.401131
0.401099
0.40101
0.400972
0.400938
0.400982
0.401013
0.401001
0.400998
0.400813
0.400843
0.400885
0.40074
0.400813
0.400839
0.400813
0.400806
0.400604
0.400662
0.400753
0.400699
0.400692
0.400598
0.400619
0.400572
0.40043
0.400521
0.400611
0.400377
0.400466
0.400578
0.400575
0.400572
0.400303
0.382924
0.394076
0.399082
0.400436
0.400553
0.400507
0.400403
0.400357
0.400545
0.400694
0.400647
0.40047
0.400449
0.400626
0.400711
0.400676
0.400645
0.400581
0.400611
0.400862
0.400757
0.400891
0.40101
0.40082
0.400922
0.400988
0.400763
0.400835
0.400945
0.400894
0.40088
0.400674
0.400759
0.400865
0.400629
0.400662
0.400837
0.400832
0.40083
0.400831
0.400799
0.400781
0.400725
0.400725
0.400736
0.400686
0.400623
0.400493
0.400441
0.400354
0.400349
0.400297
0.400264
0.400164
0.400276
0.400436
0.400201
0.400192
0.400443
0.400536
0.400481
0.400278
0.400252
0.400546
0.400604
0.400583
0.40058
0.400465
0.400397
0.40055
0.40064
0.400757
0.400795
0.400663
0.400659
0.40065
0.400666
0.400652
0.400487
0.400495
0.400604
0.400452
0.400485
0.40069
0.400698
0.400653
0.400449
0.400491
0.400533
0.400273
0.382958
0.393997
0.399102
0.400584
0.400695
0.400614
0.400716
0.40079
0.400673
0.400684
0.400641
0.400486
0.400552
0.400684
0.400685
0.400687
0.400456
0.400546
0.400779
0.400689
0.400783
0.400832
0.400749
0.400749
0.400674
0.400761
0.400875
0.400617
0.400679
0.40084
0.400605
0.400652
0.400817
0.400824
0.400819
0.400624
0.400695
0.400736
0.400673
0.40047
0.400434
0.400476
0.400479
0.40048
0.400379
0.400366
0.400365
0.400274
0.400353
0.400565
0.400375
0.400478
0.400595
0.400457
0.400409
0.400631
0.400829
0.400752
0.400802
0.400816
0.400788
0.40068
0.400731
0.40075
0.400704
0.400709
0.400679
0.400648
0.400588
0.40059
0.40061
0.400603
0.40042
0.400353
0.400533
0.400619
0.400559
0.400339
0.400335
0.400476
0.400332
0.40042
0.400466
0.400381
0.40038
0.400316
0.400394
0.400476
0.400427
0.400262
0.382958
0.393999
0.399094
0.400619
0.400729
0.400615
0.400713
0.400795
0.400676
0.400709
0.400663
0.40049
0.40055
0.400725
0.400748
0.400705
0.400455
0.400502
0.400822
0.400851
0.400811
0.400616
0.400682
0.400817
0.400574
0.400652
0.400834
0.400598
0.400668
0.400836
0.400608
0.400692
0.400786
0.40076
0.400748
0.40051
0.400566
0.400666
0.400613
0.400493
0.400439
0.400446
0.400254
0.400335
0.400458
0.400443
0.40044
0.400267
0.400362
0.400897
0.400951
0.400832
0.400885
0.400961
0.400934
0.400936
0.400792
0.400831
0.400882
0.400848
0.400845
0.400775
0.400763
0.400712
0.40076
0.400773
0.400747
0.40072
0.400685
0.400677
0.400505
0.400553
0.400612
0.400563
0.400558
0.400568
0.400563
0.400305
0.400334
0.400497
0.400404
0.400428
0.400373
0.400337
0.400234
0.400343
0.400498
0.40049
0.400486
0.400234
0.382933
0.394055
0.39905
0.400741
0.401209
0.401322
0.401346
0.401353
0.401357
0.401368
0.401332
0.401305
0.40127
0.401244
0.401249
0.40123
0.401155
0.401112
0.401118
0.401059
0.401084
0.401103
0.40103
0.401038
0.400987
0.400788
0.400832
0.400917
0.400662
0.400739
0.400885
0.400651
0.400634
0.40075
0.400756
0.400696
0.400784
0.400864
0.400656
0.400739
0.400858
0.400753
0.400808
0.400882
0.400855
0.400831
0.400788
0.400707
0.400696
0.400631
0.400483
0.400371
0.400568
0.40084
0.400722
0.400813
0.400852
0.400776
0.40078
0.400722
0.40072
0.4007
0.400716
0.400709
0.400577
0.400619
0.400643
0.400501
0.400568
0.400653
0.400635
0.400621
0.400422
0.400352
0.400531
0.40062
0.400563
0.400437
0.400332
0.400519
0.400662
0.400593
0.400612
0.40057
0.400514
0.400392
0.400473
0.400585
0.400534
0.400353
0.382952
0.394027
0.399008
0.400716
0.401201
0.401319
0.401345
0.401351
0.401358
0.401368
0.401332
0.401303
0.401268
0.401242
0.401246
0.401226
0.401151
0.401109
0.401083
0.401077
0.401061
0.401029
0.401082
0.401163
0.401128
0.401085
0.401031
0.401003
0.400932
0.400701
0.40076
0.400874
0.400714
0.400636
0.400798
0.400895
0.400883
0.400877
0.400676
0.400749
0.400845
0.400707
0.400711
0.400701
0.40069
0.400669
0.400617
0.400671
0.400701
0.4007
0.400698
0.400526
0.400452
0.400565
0.400602
0.400715
0.400765
0.400575
0.400562
0.40083
0.400919
0.400838
0.400876
0.400949
0.400931
0.40088
0.400789
0.400724
0.400729
0.40075
0.400692
0.400718
0.400735
0.400702
0.400695
0.400485
0.400529
0.400591
0.400588
0.400587
0.400354
0.400445
0.400575
0.400354
0.400447
0.400564
0.400327
0.400403
0.400539
0.400285
0.382952
0.394027
0.399005
0.400761
0.400937
0.400912
0.400907
0.400725
0.400814
0.400885
0.400713
0.400775
0.400798
0.400631
0.400705
0.40074
0.400554
0.400519
0.40074
0.400851
0.4008
0.400619
0.400652
0.400773
0.400539
0.400618
0.400805
0.400575
0.400658
0.40078
0.400749
0.400714
0.400664
0.400754
0.400776
0.400724
0.400465
0.400498
0.40059
0.400334
0.400398
0.40056
0.400352
0.40044
0.400512
0.400487
0.400421
0.400455
0.400562
0.400521
0.400513
0.400328
0.400317
0.400691
0.400854
0.40073
0.400802
0.40089
0.400844
0.400695
0.400719
0.400811
0.40073
0.400798
0.40089
0.40087
0.400888
0.400856
0.400622
0.400662
0.400748
0.400642
0.400671
0.400619
0.400594
0.400604
0.400606
0.400451
0.400537
0.400619
0.400555
0.400478
0.400506
0.400544
0.400337
0.400441
0.400576
0.400577
0.400576
0.400302
0.382932
0.394056
0.39905
0.400739
0.401208
0.40132
0.401343
0.40135
0.401354
0.401365
0.401331
0.401299
0.401263
0.401237
0.401241
0.40122
0.401143
0.401149
0.401176
0.401146
0.401113
0.401085
0.401028
0.400812
0.400853
0.400928
0.40071
0.400796
0.400876
0.400826
0.400671
0.400669
0.400727
0.400478
0.400543
0.400691
0.400454
0.400535
0.400682
0.400455
0.400546
0.400689
0.400474
0.400569
0.400688
0.40052
0.4006
0.400703
0.400624
0.400659
0.400666
0.400621
0.400448
0.400433
0.400615
0.400705
0.400667
0.400505
0.400595
0.400733
0.400699
0.400587
0.40063
0.400701
0.400508
0.400599
0.400659
0.400506
0.400611
0.400683
0.40066
0.400652
0.400458
0.400378
0.400502
0.400607
0.40055
0.400336
0.400298
0.40052
0.400567
0.400514
0.400316
0.400339
0.400487
0.400415
0.400484
0.40052
0.400466
0.400273
0.382906
0.394127
0.399077
0.400364
0.400404
0.400366
0.400277
0.400359
0.400506
0.400477
0.400473
0.40033
0.400357
0.40079
0.401051
0.401026
0.401018
0.40098
0.401041
0.401049
0.400966
0.401007
0.401033
0.401016
0.401008
0.400746
0.400765
0.400856
0.400624
0.400706
0.400861
0.400677
0.400635
0.400712
0.400712
0.400858
0.400919
0.400711
0.4008
0.400871
0.40072
0.400715
0.400669
0.400737
0.400768
0.400705
0.4005
0.400519
0.400566
0.400338
0.400407
0.40055
0.400423
0.400479
0.400496
0.400453
0.400332
0.400389
0.400486