/*--------------------------------*- C++ -*----------------------------------*\
  =========                 |
  \\      /  F ield         | OpenFOAM: The Open Source CFD Toolbox
   \\    /   O peration     | Website:  https://openfoam.org
    \\  /    A nd           | Version:  11
     \\/     M anipulation  |
\*---------------------------------------------------------------------------*/
FoamFile
{
    format      ascii;
    class       volScalarField;
    location    "0.03";
    object      nut;
}
// * * * * * * * * * * * * * * * * * * * * * * * * * * * * * * * * * * * * * //

dimensions      [0 2 -1 0 0 0 0];

internalField   nonuniform List<scalar> 
287084
(
0.00083962
0.000865161
0.000877225
0.000880859
0.000881277
0.00088133
0.000881058
0.000881042
0.000881498
0.000881631
0.000881626
0.000881482
0.000881056
0.000881013
0.000881378
0.000881139
0.000881341
0.000881594
0.000881241
0.000881376
0.00088141
0.000881137
0.000881084
0.000881041
0.000880732
0.000880606
0.000880918
0.000881124
0.000881004
0.000880542
0.000880746
0.000881098
0.000880617
0.000880848
0.000881279
0.000881329
0.000881246
0.000881322
0.000881619
0.000881339
0.000881649
0.000881946
0.000881491
0.000881734
0.000882125
0.000881643
0.000881798
0.000882343
0.000882399
0.000882352
0.000882345
0.000882292
0.000882173
0.00088219
0.000881936
0.000882162
0.000882344
0.0008823
0.000882156
0.000882229
0.000882514
0.000882019
0.00088219
0.000882475
0.000882312
0.000882294
0.000881962
0.000882214
0.000882422
0.000882346
0.000882157
0.00088208
0.000882317
0.000882321
0.000882416
0.000882441
0.000882361
0.000882053
0.000882241
0.000882384
0.000882379
0.000882351
0.000881791
0.000881802
0.000882058
0.000881717
0.000881946
0.000882221
0.000882157
0.000881934
0.00118664
0.00122144
0.00123769
0.00124236
0.00124266
0.00124262
0.00124256
0.00124257
0.0012426
0.00124261
0.00124242
0.00124186
0.00124197
0.0012422
0.00124132
0.00124143
0.00124188
0.00124157
0.00124123
0.00124157
0.00124236
0.00124214
0.0012421
0.00124216
0.00124214
0.0012416
0.00124188
0.00124207
0.00124145
0.00124174
0.00124196
0.00124129
0.00124163
0.00124221
0.00124159
0.00124183
0.00124253
0.00124241
0.00124281
0.00124307
0.00124303
0.00124259
0.00124269
0.00124344
0.00124359
0.00124353
0.00124285
0.00124305
0.00124347
0.00124274
0.00124284
0.00124354
0.00124379
0.00124368
0.00124315
0.00124352
0.00124391
0.00124331
0.00124363
0.00124393
0.00124379
0.00124354
0.00124365
0.00124393
0.00124344
0.00124367
0.00124397
0.00124381
0.0012434
0.00124363
0.00124414
0.00124406
0.00124403
0.00124339
0.00124362
0.00124407
0.00124366
0.00124377
0.0012438
0.00124369
0.00124368
0.00124362
0.00124317
0.00124323
0.00124332
0.00124319
0.00124282
0.00124307
0.00124358
0.0012428
0.00118671
0.00122159
0.00123783
0.00124233
0.00124239
0.00124286
0.00124316
0.00124261
0.00124282
0.00124313
0.00124307
0.001243
0.00124258
0.00124208
0.00124211
0.00124238
0.00124226
0.00124217
0.00124146
0.00124147
0.00124197
0.00124177
0.00124196
0.00124215
0.00124204
0.0012419
0.00124153
0.0012418
0.00124206
0.00124144
0.00124184
0.00124237
0.00124178
0.0012422
0.00124281
0.00124229
0.00124277
0.00124336
0.00124305
0.00124321
0.00124333
0.00124335
0.00124351
0.00124373
0.00124372
0.00124352
0.00124377
0.00124398
0.00124394
0.00124397
0.00124345
0.0012436
0.00124379
0.0012434
0.00124374
0.00124404
0.00124327
0.00124351
0.0012439
0.00124384
0.00124366
0.00124361
0.00124402
0.0012437
0.00124401
0.00124415
0.00124402
0.00124367
0.0012438
0.00124402
0.00124349
0.00124345
0.00124319
0.00124349
0.0012437
0.00124307
0.00124337
0.00124401
0.00124372
0.00124381
0.00124364
0.00124378
0.00124382
0.00124327
0.0012435
0.00124375
0.00124302
0.00124327
0.00124349
0.00124273
0.00118672
0.00122178
0.00123783
0.00124278
0.00124305
0.00124345
0.00124363
0.00124326
0.0012432
0.00124321
0.00124317
0.00124297
0.00124255
0.00124237
0.0012427
0.00124266
0.00124238
0.00124164
0.00124174
0.00124217
0.00124164
0.00124157
0.00124148
0.00124149
0.00124128
0.00124116
0.00124085
0.00124117
0.00124201
0.00124202
0.00124198
0.00124134
0.00124165
0.00124223
0.00124165
0.00124196
0.00124266
0.0012423
0.00124275
0.00124331
0.001243
0.00124309
0.00124336
0.00124344
0.00124357
0.00124365
0.00124309
0.00124317
0.00124358
0.00124351
0.00124355
0.00124337
0.00124338
0.00124315
0.00124357
0.00124402
0.00124341
0.00124372
0.00124402
0.00124375
0.00124373
0.0012435
0.00124401
0.00124432
0.00124421
0.00124413
0.00124414
0.00124422
0.00124409
0.00124406
0.00124357
0.00124377
0.00124398
0.00124349
0.00124377
0.00124435
0.00124428
0.00124414
0.0012441
0.00124393
0.00124323
0.0012435
0.0012438
0.00124376
0.00124374
0.00124307
0.00124333
0.00124357
0.00124344
0.00124306
0.00118674
0.00122182
0.00123792
0.00124296
0.00124348
0.00124335
0.00124296
0.00124314
0.00124333
0.00124274
0.00124288
0.00124287
0.0012427
0.00124261
0.00124215
0.00124202
0.00124192
0.00124146
0.00124126
0.00124149
0.00124137
0.00124182
0.00124216
0.0012417
0.00124172
0.00124168
0.00124123
0.0012415
0.00124193
0.00124125
0.00124136
0.00124196
0.00124181
0.00124231
0.00124288
0.00124256
0.00124297
0.00124323
0.00124334
0.00124348
0.00124291
0.00124319
0.00124352
0.00124359
0.00124368
0.00124315
0.00124348
0.00124376
0.00124326
0.00124363
0.00124399
0.00124323
0.0012434
0.00124394
0.00124342
0.0012437
0.00124417
0.00124385
0.00124389
0.00124386
0.00124342
0.00124367
0.00124412
0.00124339
0.00124365
0.001244
0.00124327
0.00124345
0.00124397
0.00124337
0.00124363
0.00124408
0.00124393
0.00124389
0.00124344
0.00124374
0.00124399
0.00124351
0.00124346
0.00124344
0.00124312
0.00124345
0.00124386
0.0012433
0.00124362
0.00124383
0.00124326
0.00124359
0.00124382
0.00124296
0.00118671
0.00122198
0.00123785
0.00124213
0.00124233
0.00124185
0.00124212
0.00124263
0.00124255
0.00124247
0.0012417
0.00124189
0.00124259
0.00124199
0.00124224
0.00124248
0.00124193
0.0012418
0.00124166
0.0012416
0.00124149
0.00124099
0.00124118
0.00124152
0.00124073
0.00124083
0.00124157
0.0012416
0.00124154
0.00124118
0.00124164
0.00124233
0.0012421
0.00124227
0.00124238
0.00124201
0.00124234
0.00124281
0.00124218
0.00124256
0.00124322
0.00124266
0.00124307
0.0012437
0.00124312
0.00124352
0.00124409
0.00124375
0.00124385
0.00124387
0.00124347
0.0012437
0.00124412
0.00124413
0.00124412
0.0012434
0.00124328
0.00124382
0.00124394
0.00124377
0.00124316
0.00124307
0.00124382
0.00124412
0.00124403
0.00124402
0.00124371
0.00124346
0.00124368
0.00124363
0.00124407
0.00124429
0.00124377
0.00124401
0.00124412
0.00124345
0.00124372
0.00124403
0.00124335
0.00124359
0.00124394
0.0012435
0.0012438
0.00124395
0.00124386
0.0012438
0.00124383
0.00124392
0.00124371
0.00124303
0.00118663
0.00122215
0.00123785
0.00124241
0.00124267
0.00124207
0.00124233
0.00124251
0.00124205
0.00124182
0.00124224
0.00124399
0.00124398
0.00124361
0.00124354
0.00124363
0.00124349
0.00124316
0.00124293
0.00124278
0.00124276
0.00124258
0.00124204
0.0012421
0.00124215
0.00124199
0.0012415
0.0012416
0.00124194
0.00124198
0.00124187
0.00124211
0.00124249
0.00124191
0.00124235
0.00124298
0.0012425
0.00124295
0.00124352
0.00124354
0.00124367
0.00124333
0.00124378
0.00124415
0.00124393
0.00124394
0.00124398
0.00124413
0.00124403
0.00124409
0.00124381
0.00124399
0.0012441
0.00124334
0.00124348
0.00124403
0.00124407
0.00124404
0.00124324
0.00124327
0.00124371
0.00124321
0.00124353
0.00124383
0.00124373
0.00124366
0.00124337
0.00124339
0.00124309
0.00124343
0.00124369
0.00124301
0.0012432
0.00124386
0.00124384
0.00124379
0.0012431
0.00124337
0.00124393
0.00124353
0.00124377
0.00124385
0.00124333
0.00124357
0.00124386
0.00124379
0.00124364
0.00124362
0.00124369
0.00124291
0.00118674
0.00122192
0.00123785
0.00124329
0.00124475
0.00124504
0.00124505
0.00124499
0.0012449
0.00124469
0.00124451
0.00124445
0.00124424
0.00124388
0.00124363
0.0012435
0.00124327
0.00124299
0.00124278
0.00124265
0.0012426
0.00124248
0.00124197
0.00124199
0.00124208
0.0012419
0.0012414
0.00124143
0.00124172
0.00124123
0.00124167
0.00124228
0.00124173
0.0012422
0.00124285
0.00124237
0.00124253
0.00124359
0.00124398
0.00124403
0.00124418
0.00124389
0.0012443
0.00124461
0.00124432
0.00124433
0.0012446
0.00124491
0.00124491
0.00124487
0.00124481
0.00124477
0.00124478
0.00124463
0.00124417
0.00124407
0.00124411
0.00124402
0.00124369
0.00124349
0.0012441
0.00124437
0.00124421
0.00124429
0.00124422
0.00124356
0.00124377
0.00124403
0.00124351
0.00124348
0.00124345
0.00124344
0.00124296
0.00124303
0.00124396
0.00124402
0.00124381
0.0012434
0.00124305
0.00124362
0.00124406
0.00124384
0.00124391
0.00124377
0.00124358
0.00124319
0.00124343
0.00124378
0.00124361
0.00124302
0.00118668
0.00122209
0.00123791
0.00124246
0.00124288
0.00124279
0.00124274
0.00124252
0.00124205
0.00124229
0.00124396
0.00124403
0.00124365
0.00124352
0.00124346
0.00124341
0.00124322
0.0012429
0.00124264
0.00124241
0.00124229
0.00124223
0.00124198
0.00124192
0.00124195
0.00124182
0.00124123
0.00124137
0.00124172
0.00124118
0.00124164
0.00124225
0.00124171
0.0012422
0.00124285
0.00124239
0.00124254
0.00124358
0.0012441
0.0012441
0.00124424
0.0012444
0.00124456
0.00124454
0.00124449
0.00124444
0.00124434
0.00124368
0.00124384
0.00124406
0.00124333
0.00124359
0.00124388
0.00124315
0.0012432
0.00124401
0.00124409
0.00124391
0.00124325
0.00124317
0.00124385
0.001244
0.00124383
0.00124344
0.00124319
0.00124377
0.00124419
0.00124393
0.00124404
0.00124407
0.00124392
0.00124331
0.00124342
0.00124409
0.00124405
0.00124404
0.00124408
0.00124413
0.00124397
0.0012438
0.00124348
0.00124377
0.00124411
0.00124385
0.00124382
0.00124379
0.00124321
0.00124324
0.00124348
0.00124278
0.0011866
0.00122223
0.00123796
0.00124186
0.00124282
0.0012427
0.00124193
0.00124182
0.00124271
0.00124285
0.00124256
0.00124196
0.00124165
0.00124227
0.00124238
0.00124206
0.0012413
0.00124112
0.00124144
0.00124104
0.00124126
0.00124135
0.00124068
0.00124064
0.00124125
0.0012413
0.00124099
0.00124137
0.00124175
0.00124108
0.00124148
0.00124216
0.0012423
0.00124227
0.0012424
0.00124266
0.00124284
0.0012427
0.00124296
0.00124326
0.0012426
0.00124296
0.00124354
0.00124292
0.00124326
0.00124373
0.00124305
0.00124327
0.00124387
0.00124354
0.0012436
0.00124359
0.0012436
0.00124313
0.00124339
0.00124385
0.0012431
0.00124325
0.00124377
0.00124381
0.0012438
0.00124303
0.00124318
0.00124375
0.0012437
0.00124351
0.00124362
0.00124383
0.00124345
0.00124351
0.00124336
0.00124291
0.00124319
0.00124361
0.00124285
0.00124297
0.00124362
0.00124366
0.0012436
0.00124286
0.00124302
0.00124355
0.00124356
0.00124356
0.00124327
0.00124299
0.00124333
0.00124384
0.0012437
0.00124319
0.00118667
0.00122204
0.00123807
0.00124261
0.00124309
0.00124289
0.00124223
0.00124205
0.00124274
0.00124282
0.0012426
0.00124234
0.00124264
0.0012428
0.00124213
0.00124221
0.00124241
0.00124228
0.00124214
0.0012417
0.0012412
0.00124124
0.0012415
0.00124128
0.00124063
0.00124061
0.00124108
0.00124106
0.00124116
0.00124092
0.00124147
0.00124218
0.0012421
0.00124234
0.00124252
0.00124219
0.00124255
0.00124302
0.00124243
0.00124283
0.00124351
0.00124297
0.00124338
0.00124401
0.00124344
0.00124378
0.00124447
0.00124442
0.00124432
0.00124367
0.00124392
0.00124419
0.00124346
0.00124366
0.00124413
0.00124407
0.00124407
0.00124361
0.00124372
0.0012438
0.00124361
0.00124308
0.00124327
0.0012438
0.00124371
0.00124367
0.00124301
0.00124313
0.00124394
0.00124379
0.00124379
0.00124371
0.00124404
0.00124418
0.00124359
0.00124388
0.00124419
0.00124378
0.00124399
0.00124409
0.00124373
0.00124399
0.00124408
0.00124328
0.00124348
0.00124383
0.0012434
0.00124346
0.00124331
0.00124282
0.00118666
0.0012221
0.00123794
0.00124279
0.00124321
0.00124316
0.00124308
0.00124282
0.00124239
0.00124238
0.00124374
0.00124407
0.00124371
0.0012437
0.00124359
0.00124333
0.00124307
0.00124286
0.00124235
0.0012423
0.00124223
0.00124173
0.00124191
0.00124198
0.00124173
0.00124118
0.00124102
0.00124114
0.00124069
0.00124111
0.00124161
0.00124103
0.0012415
0.00124219
0.00124169
0.00124217
0.00124292
0.00124245
0.00124294
0.00124364
0.00124313
0.00124359
0.0012442
0.0012439
0.00124403
0.00124408
0.0012437
0.00124397
0.00124424
0.00124425
0.00124426
0.00124403
0.00124366
0.00124378
0.00124408
0.00124367
0.00124381
0.00124383
0.00124334
0.00124349
0.00124411
0.00124413
0.001244
0.00124377
0.00124366
0.00124362
0.00124324
0.0012435
0.00124399
0.00124398
0.00124396
0.00124313
0.00124331
0.00124373
0.00124361
0.00124357
0.00124291
0.00124323
0.00124389
0.00124363
0.00124359
0.00124323
0.00124353
0.00124368
0.00124345
0.00124343
0.00124314
0.0012435
0.0012437
0.00124289
0.00118674
0.00122194
0.00123787
0.00124332
0.00124478
0.00124509
0.00124495
0.00124475
0.00124448
0.00124439
0.00124434
0.00124411
0.001244
0.00124372
0.00124344
0.00124327
0.00124301
0.00124277
0.00124251
0.00124229
0.00124206
0.00124176
0.00124167
0.0012418
0.0012417
0.0012415
0.00124091
0.0012411
0.0012415
0.00124095
0.00124147
0.00124211
0.0012419
0.00124202
0.00124289
0.00124345
0.00124371
0.00124396
0.0012436
0.00124404
0.00124451
0.00124443
0.00124456
0.00124436
0.00124472
0.00124493
0.00124489
0.00124495
0.00124459
0.0012446
0.00124464
0.00124448
0.00124389
0.0012441
0.00124447
0.00124436
0.00124431
0.0012437
0.00124403
0.00124448
0.00124434
0.00124429
0.00124369
0.00124401
0.00124432
0.0012436
0.00124384
0.00124411
0.00124357
0.00124353
0.00124349
0.00124347
0.00124299
0.00124305
0.00124398
0.00124403
0.00124381
0.00124325
0.00124309
0.00124364
0.00124377
0.0012436
0.00124325
0.00124301
0.00124359
0.00124406
0.00124384
0.00124394
0.00124377
0.001243
0.00118662
0.00122217
0.00123806
0.00124207
0.00124222
0.00124196
0.00124231
0.00124284
0.00124241
0.0012424
0.00124213
0.00124156
0.00124163
0.001242
0.00124173
0.00124164
0.00124149
0.00124105
0.0012409
0.00124139
0.00124094
0.00124116
0.0012415
0.00124107
0.00124117
0.0012412
0.00124114
0.00124125
0.00124125
0.00124091
0.00124139
0.00124207
0.00124189
0.00124201
0.00124288
0.00124349
0.00124355
0.0012438
0.00124411
0.00124444
0.00124442
0.00124448
0.00124467
0.00124489
0.00124487
0.00124484
0.00124482
0.00124438
0.00124404
0.00124409
0.0012439
0.00124428
0.00124449
0.0012444
0.00124436
0.00124374
0.0012439
0.00124425
0.00124413
0.00124408
0.00124349
0.00124371
0.00124421
0.0012438
0.00124378
0.00124348
0.00124376
0.00124392
0.00124371
0.00124366
0.00124318
0.00124341
0.00124408
0.00124358
0.00124386
0.00124432
0.00124394
0.00124418
0.00124427
0.00124417
0.00124416
0.00124394
0.00124385
0.00124336
0.00124357
0.00124404
0.00124395
0.00124395
0.00124375
0.00124313
0.00118674
0.00122194
0.00123787
0.00124332
0.00124478
0.00124507
0.00124506
0.00124499
0.00124485
0.00124461
0.00124441
0.00124431
0.00124405
0.00124365
0.00124334
0.00124315
0.00124289
0.00124249
0.00124237
0.00124224
0.00124182
0.0012416
0.00124164
0.0012416
0.0012414
0.00124064
0.00124067
0.00124102
0.00124088
0.00124118
0.00124128
0.00124108
0.00124163
0.00124226
0.00124177
0.0012423
0.00124309
0.00124265
0.00124318
0.00124388
0.00124339
0.00124386
0.00124446
0.00124432
0.00124438
0.001244
0.00124431
0.00124473
0.00124457
0.00124459
0.00124453
0.0012445
0.00124454
0.0012446
0.0012444
0.00124404
0.00124366
0.00124435
0.00124488
0.00124456
0.00124472
0.00124495
0.00124482
0.00124483
0.00124462
0.00124379
0.0012439
0.00124411
0.00124358
0.00124354
0.0012435
0.00124348
0.001243
0.00124306
0.00124398
0.00124404
0.00124382
0.00124325
0.00124309
0.00124364
0.00124377
0.00124359
0.00124298
0.00124304
0.00124349
0.00124326
0.00124347
0.00124358
0.0012434
0.00124278
0.00118682
0.00122176
0.00123801
0.00124295
0.00124329
0.0012429
0.00124314
0.00124327
0.00124284
0.00124277
0.00124264
0.00124251
0.00124188
0.00124192
0.00124207
0.00124172
0.00124097
0.00124069
0.00124092
0.00124073
0.00124062
0.0012404
0.00124062
0.00124065
0.00124009
0.00124036
0.00124078
0.00124011
0.00124035
0.00124124
0.00124154
0.00124163
0.00124219
0.00124267
0.00124247
0.00124277
0.00124302
0.00124336
0.00124348
0.00124315
0.00124353
0.00124401
0.00124337
0.00124359
0.00124423
0.00124377
0.00124405
0.00124475
0.00124476
0.00124464
0.00124454
0.00124447
0.00124399
0.00124435
0.00124569
0.00124578
0.00124569
0.00124561
0.00124556
0.00124546
0.00124513
0.00124501
0.00124516
0.00124516
0.00124502
0.00124501
0.00124477
0.00124402
0.0012441
0.00124426
0.00124348
0.0012437
0.00124399
0.00124397
0.00124395
0.0012435
0.00124363
0.00124366
0.00124321
0.00124345
0.00124403
0.00124398
0.00124393
0.00124329
0.00124355
0.00124385
0.0012436
0.00124368
0.00124352
0.00124294
0.0011868
0.00122185
0.00123774
0.00124324
0.00124474
0.00124505
0.00124505
0.00124497
0.00124486
0.00124461
0.00124438
0.0012441
0.00124384
0.00124367
0.0012434
0.00124296
0.00124262
0.0012422
0.00124214
0.00124199
0.00124116
0.00124118
0.00124123
0.00124102
0.00124081
0.00124084
0.00124094
0.00124024
0.0012406
0.00124117
0.00124146
0.00124178
0.00124128
0.00124182
0.0012424
0.00124276
0.00124309
0.00124256
0.00124303
0.00124372
0.00124318
0.00124358
0.00124424
0.0012443
0.00124437
0.0012437
0.00124396
0.00124457
0.00124445
0.00124443
0.00124444
0.00124442
0.00124394
0.00124455
0.00124537
0.00124504
0.00124526
0.00124532
0.00124496
0.00124512
0.00124514
0.0012448
0.00124477
0.00124474
0.00124459
0.00124454
0.00124435
0.00124373
0.0012439
0.00124404
0.00124369
0.00124361
0.00124353
0.00124349
0.00124293
0.001243
0.0012436
0.00124362
0.00124376
0.00124361
0.0012432
0.00124342
0.00124391
0.00124357
0.00124374
0.0012438
0.00124349
0.00124377
0.00124386
0.00124299
0.00118674
0.00122193
0.00123787
0.00124332
0.00124478
0.00124506
0.00124505
0.00124496
0.00124485
0.00124475
0.00124449
0.00124423
0.00124394
0.00124366
0.00124347
0.0012432
0.00124274
0.00124238
0.00124218
0.00124178
0.00124166
0.00124155
0.00124119
0.0012411
0.0012409
0.00124027
0.00124041
0.00124081
0.00124036
0.00124089
0.00124139
0.00124097
0.00124157
0.00124228
0.00124186
0.00124245
0.00124326
0.00124285
0.0012434
0.00124412
0.00124364
0.00124407
0.00124476
0.00124453
0.00124462
0.00124465
0.00124478
0.00124462
0.00124462
0.00124461
0.00124448
0.00124426
0.00124483
0.00124551
0.00124514
0.00124534
0.0012454
0.00124517
0.00124509
0.00124509
0.00124507
0.00124473
0.00124467
0.00124461
0.00124416
0.00124427
0.00124433
0.00124384
0.00124401
0.00124424
0.00124416
0.00124409
0.00124345
0.00124321
0.00124375
0.00124401
0.00124381
0.00124311
0.0012431
0.00124353
0.00124334
0.00124368
0.00124379
0.0012436
0.00124326
0.00124292
0.00124345
0.0012438
0.00124363
0.00124303
0.0011868
0.00122185
0.00123774
0.00124324
0.00124474
0.00124505
0.00124503
0.00124495
0.00124471
0.00124447
0.00124419
0.00124393
0.00124376
0.00124349
0.00124304
0.00124268
0.00124224
0.00124217
0.00124199
0.00124112
0.00124113
0.00124116
0.00124052
0.00124036
0.00124031
0.0012399
0.00124019
0.00124065
0.00124007
0.00124057
0.0012414
0.00124105
0.00124164
0.00124241
0.00124282
0.00124322
0.00124343
0.00124348
0.00124356
0.00124373
0.00124345
0.00124395
0.0012444
0.00124371
0.001244
0.00124442
0.00124371
0.00124396
0.00124447
0.00124437
0.00124432
0.00124364
0.00124354
0.00124463
0.00124555
0.00124523
0.00124535
0.00124554
0.00124543
0.00124537
0.00124523
0.001245
0.00124494
0.00124485
0.00124481
0.00124434
0.00124445
0.00124448
0.00124414
0.00124409
0.00124409
0.00124393
0.00124384
0.00124384
0.00124374
0.00124329
0.00124348
0.00124405
0.00124394
0.0012438
0.00124311
0.00124335
0.00124369
0.00124314
0.00124341
0.00124355
0.00124294
0.00124321
0.00124363
0.00124281
0.0011868
0.00122185
0.00123773
0.00124338
0.00124391
0.00124369
0.0012436
0.0012435
0.00124326
0.00124319
0.00124305
0.0012422
0.00124194
0.00124214
0.0012422
0.00124183
0.00124128
0.00124072
0.00124044
0.00124014
0.00124038
0.00124109
0.00124094
0.0012408
0.00123996
0.00124006
0.00124043
0.00123982
0.00124028
0.00124092
0.00124048
0.0012411
0.00124192
0.00124156
0.0012422
0.00124306
0.00124308
0.00124352
0.00124368
0.00124343
0.00124387
0.00124434
0.00124405
0.00124412
0.0012442
0.00124427
0.00124432
0.00124417
0.00124399
0.00124484
0.00124629
0.00124664
0.00124669
0.00124667
0.00124663
0.00124645
0.00124628
0.00124624
0.00124613
0.00124583
0.00124582
0.00124582
0.00124543
0.0012453
0.00124516
0.00124504
0.00124504
0.00124499
0.00124473
0.00124457
0.00124442
0.00124406
0.00124429
0.00124437
0.00124421
0.00124379
0.00124385
0.00124401
0.0012436
0.00124358
0.00124329
0.00124339
0.00124348
0.00124303
0.00124326
0.00124369
0.00124337
0.00124342
0.00124338
0.00124287
0.00118671
0.001222
0.00123796
0.00124238
0.00124258
0.00124239
0.00124193
0.00124213
0.00124242
0.00124153
0.00124149
0.00124193
0.00124124
0.00124135
0.00124152
0.00124124
0.001241
0.00124057
0.00124085
0.00124059
0.00124087
0.00124108
0.00124046
0.00124032
0.00124026
0.00123986
0.00124018
0.00124068
0.00124012
0.00124063
0.00124146
0.00124117
0.00124186
0.00124273
0.00124248
0.0012432
0.00124387
0.00124405
0.00124434
0.0012441
0.00124459
0.00124493
0.00124466
0.00124475
0.00124483
0.0012448
0.00124468
0.00124456
0.00124418
0.00124433
0.00124441
0.00124379
0.00124396
0.00124441
0.00124405
0.00124399
0.00124384
0.00124378
0.00124327
0.00124353
0.00124399
0.00124321
0.00124341
0.00124384
0.00124332
0.00124313
0.00124324
0.00124317
0.00124367
0.00124409
0.0012436
0.00124355
0.00124363
0.00124362
0.00124304
0.00124307
0.00124396
0.00124403
0.00124381
0.00124311
0.00124308
0.0012435
0.00124315
0.00124342
0.00124352
0.00124292
0.00124314
0.00124363
0.00124354
0.00124327
0.00118674
0.00122193
0.00123786
0.00124331
0.00124477
0.00124492
0.00124476
0.00124452
0.00124429
0.00124414
0.00124389
0.0012436
0.00124325
0.00124294
0.00124249
0.0012423
0.00124213
0.00124167
0.00124133
0.00124123
0.0012411
0.00124074
0.00124019
0.00123981
0.00123996
0.0012403
0.00124025
0.00123976
0.00124029
0.00124099
0.00124128
0.0012414
0.00124191
0.00124243
0.00124279
0.0012432
0.00124296
0.00124351
0.00124392
0.00124378
0.00124398
0.00124415
0.00124381
0.00124398
0.00124456
0.00124434
0.00124467
0.0012448
0.00124471
0.00124449
0.00124456
0.00124582
0.00124657
0.00124669
0.00124667
0.00124663
0.00124659
0.0012464
0.00124623
0.00124608
0.00124593
0.00124582
0.00124581
0.0012456
0.00124551
0.00124522
0.00124523
0.00124529
0.00124515
0.00124519
0.00124521
0.00124518
0.00124464
0.00124452
0.00124453
0.0012442
0.00124415
0.00124411
0.00124359
0.00124363
0.00124389
0.00124326
0.00124356
0.00124391
0.00124351
0.00124347
0.0012431
0.00124338
0.00124354
0.0012428
0.00118674
0.00122193
0.00123786
0.00124331
0.00124476
0.00124504
0.00124501
0.00124492
0.00124481
0.00124454
0.00124428
0.00124398
0.0012437
0.00124349
0.00124319
0.00124272
0.00124233
0.00124187
0.00124178
0.00124158
0.00124128
0.00124088
0.00124079
0.00124077
0.00124055
0.00124002
0.0012401
0.00124051
0.00124016
0.00124078
0.00124138
0.00124112
0.00124189
0.00124277
0.00124253
0.00124318
0.00124405
0.00124398
0.00124434
0.00124497
0.00124522
0.00124532
0.00124548
0.00124519
0.00124535
0.00124542
0.00124537
0.00124535
0.00124501
0.00124449
0.00124461
0.00124599
0.00124662
0.00124671
0.00124669
0.00124664
0.00124659
0.00124655
0.00124647
0.0012463
0.00124615
0.00124612
0.00124593
0.00124582
0.00124565
0.00124566
0.0012457
0.00124559
0.00124553
0.00124539
0.00124514
0.00124507
0.00124482
0.00124473
0.00124464
0.00124471
0.0012445
0.00124442
0.00124437
0.00124444
0.00124426
0.00124362
0.00124378
0.001244
0.00124327
0.00124352
0.00124395
0.00124383
0.00124369
0.00124295
0.00118668
0.00122206
0.00123806
0.00124213
0.00124214
0.00124262
0.00124288
0.00124199
0.00124208
0.00124229
0.00124182
0.00124135
0.0012413
0.00124284
0.00124301
0.00124244
0.00124227
0.00124219
0.00124198
0.00124163
0.00124096
0.00124094
0.00124087
0.00124001
0.00124018
0.00124047
0.00124011
0.00124029
0.00124061
0.0012409
0.00124062
0.00124126
0.001242
0.00124164
0.0012423
0.00124317
0.00124309
0.00124324
0.00124419
0.00124483
0.00124483
0.001245
0.00124508
0.00124522
0.00124525
0.00124534
0.00124517
0.00124506
0.0012451
0.00124508
0.00124452
0.00124457
0.00124455
0.00124404
0.00124388
0.00124473
0.00124522
0.00124487
0.00124482
0.00124469
0.00124466
0.00124439
0.00124455
0.00124471
0.00124453
0.00124453
0.00124428
0.00124436
0.00124445
0.00124438
0.00124431
0.00124365
0.00124342
0.00124387
0.00124411
0.00124398
0.0012437
0.00124407
0.00124425
0.00124351
0.00124373
0.00124394
0.00124323
0.00124345
0.0012436
0.00124347
0.00124311
0.00124321
0.00124359
0.00124281
0.00118674
0.00122193
0.00123785
0.00124338
0.00124433
0.00124407
0.00124406
0.00124404
0.00124381
0.00124364
0.00124345
0.00124313
0.00124265
0.00124229
0.00124209
0.00124185
0.00124124
0.00124113
0.001241
0.0012406
0.00123992
0.00123985
0.00124015
0.00124002
0.00123989
0.00124005
0.00124031
0.00123964
0.00124009
0.0012408
0.0012411
0.00124121
0.00124174
0.00124229
0.00124263
0.00124303
0.00124256
0.00124303
0.00124381
0.00124339
0.00124387
0.0012444
0.00124378
0.00124412
0.00124459
0.00124386
0.00124398
0.00124454
0.00124402
0.00124421
0.00124451
0.00124441
0.00124435
0.00124368
0.00124385
0.00124435
0.00124426
0.00124408
0.00124413
0.00124424
0.00124407
0.00124369
0.00124354
0.0012437
0.0012431
0.00124331
0.00124384
0.00124308
0.00124329
0.00124371
0.00124362
0.00124335
0.00124343
0.00124381
0.00124343
0.00124348
0.00124331
0.00124316
0.00124276
0.00124299
0.00124368
0.00124377
0.00124363
0.00124284
0.00124307
0.00124351
0.00124276
0.00124299
0.00124347
0.0012427
0.00118674
0.00122193
0.00123786
0.00124331
0.00124476
0.00124504
0.00124502
0.00124478
0.00124454
0.00124427
0.00124401
0.00124382
0.00124355
0.00124308
0.00124271
0.00124238
0.00124208
0.00124176
0.00124144
0.00124137
0.00124139
0.00124109
0.00124083
0.0012406
0.00123973
0.0012398
0.00124019
0.00123963
0.00124013
0.00124082
0.0012404
0.00124104
0.00124182
0.00124145
0.00124184
0.001243
0.00124356
0.00124375
0.00124338
0.00124378
0.00124434
0.00124439
0.0012445
0.00124392
0.00124422
0.00124492
0.00124443
0.00124474
0.00124499
0.00124481
0.0012443
0.00124432
0.00124448
0.00124363
0.00124367
0.00124418
0.00124368
0.00124395
0.00124415
0.00124342
0.00124346
0.0012442
0.00124419
0.00124401
0.00124335
0.00124345
0.00124385
0.00124311
0.0012433
0.00124373
0.00124297
0.00124311
0.00124375
0.00124376
0.00124372
0.00124299
0.00124317
0.00124359
0.00124289
0.00124311
0.00124363
0.00124302
0.00124331
0.00124356
0.00124344
0.0012431
0.00124317
0.00124356
0.00124352
0.00124332
0.00118674
0.00122193
0.00123786
0.00124331
0.00124476
0.00124504
0.00124501
0.00124492
0.0012448
0.00124467
0.00124439
0.00124411
0.00124381
0.00124351
0.00124328
0.00124298
0.0012425
0.00124211
0.00124166
0.00124157
0.00124142
0.00124076
0.00124083
0.00124087
0.0012408
0.00124082
0.00124037
0.00124037
0.00124079
0.00124119
0.00124143
0.00124131
0.00124204
0.00124283
0.00124257
0.00124328
0.00124396
0.00124411
0.0012444
0.00124419
0.0012445
0.00124504
0.00124519
0.00124526
0.00124471
0.00124487
0.00124497
0.00124486
0.00124485
0.00124443
0.00124509
0.00124642
0.00124672
0.00124674
0.0012467
0.00124665
0.0012466
0.00124656
0.00124646
0.00124628
0.00124616
0.00124598
0.00124581
0.00124576
0.00124547
0.00124548
0.00124552
0.00124542
0.00124548
0.00124533
0.00124511
0.00124508
0.001245
0.00124488
0.0012447
0.00124418
0.00124426
0.00124431
0.00124416
0.00124375
0.00124381
0.00124396
0.00124379
0.00124377
0.00124378
0.00124376
0.00124295
0.00124314
0.0012436
0.0012428
0.00118674
0.00122193
0.00123786
0.00124331
0.00124477
0.00124505
0.00124501
0.00124492
0.00124482
0.00124455
0.00124428
0.00124399
0.0012437
0.00124349
0.00124319
0.00124272
0.00124233
0.00124187
0.00124178
0.0012416
0.00124108
0.00124073
0.00124071
0.00124069
0.00124047
0.00123992
0.00124016
0.00124062
0.00124011
0.00124066
0.00124148
0.00124118
0.00124191
0.00124277
0.00124254
0.00124318
0.00124405
0.00124398
0.00124435
0.00124498
0.00124522
0.00124532
0.00124548
0.00124519
0.00124535
0.00124542
0.00124537
0.00124535
0.00124502
0.00124449
0.00124461
0.00124599
0.00124662
0.00124672
0.00124656
0.00124638
0.00124632
0.00124629
0.00124615
0.00124582
0.00124571
0.00124585
0.00124576
0.00124554
0.0012455
0.00124526
0.00124501
0.00124498
0.00124501
0.00124459
0.00124468
0.0012447
0.0012445
0.0012439
0.00124396
0.00124417
0.00124348
0.00124373
0.00124416
0.00124383
0.00124384
0.00124387
0.00124384
0.00124385
0.00124384
0.00124366
0.0012431
0.00124333
0.00124358
0.00124278
0.00118674
0.00122193
0.00123786
0.00124331
0.00124477
0.00124492
0.00124476
0.00124452
0.00124429
0.00124415
0.00124389
0.0012436
0.00124325
0.00124295
0.00124271
0.00124242
0.00124198
0.00124176
0.00124156
0.00124127
0.00124108
0.00124067
0.00123975
0.00123967
0.00124008
0.0012401
0.00124013
0.00124051
0.00124092
0.0012411
0.00124148
0.00124175
0.00124224
0.00124259
0.00124288
0.00124251
0.00124304
0.00124367
0.00124359
0.00124403
0.00124432
0.00124433
0.00124385
0.00124398
0.00124457
0.00124429
0.00124463
0.00124481
0.00124473
0.00124457
0.00124459
0.00124582
0.00124657
0.0012467
0.00124654
0.00124637
0.00124633
0.00124617
0.00124584
0.00124567
0.00124551
0.0012456
0.00124565
0.00124556
0.00124551
0.0012449
0.00124496
0.00124505
0.00124457
0.00124476
0.00124482
0.00124471
0.00124467
0.00124401
0.00124417
0.00124444
0.00124425
0.00124422
0.00124391
0.00124396
0.00124381
0.00124335
0.00124362
0.0012439
0.00124316
0.00124343
0.00124377
0.00124376
0.00124374
0.00124288
0.00118671
0.001222
0.00123796
0.00124237
0.00124273
0.00124252
0.0012421
0.00124184
0.00124229
0.0012426
0.00124229
0.00124156
0.00124129
0.00124163
0.00124166
0.00124132
0.00124098
0.00124053
0.00124037
0.00124091
0.00124036
0.00124058
0.00124079
0.0012401
0.00124037
0.00124059
0.00123999
0.00124039
0.00124098
0.00124115
0.00124148
0.00124127
0.00124199
0.00124278
0.00124251
0.00124305
0.001244
0.00124435
0.00124467
0.00124495
0.00124509
0.00124522
0.00124519
0.0012453
0.00124541
0.0012453
0.00124513
0.00124472
0.00124455
0.00124425
0.0012442
0.00124399
0.00124384
0.00124347
0.00124376
0.00124421
0.00124342
0.00124333
0.00124406
0.0012443
0.00124408
0.0012434
0.00124327
0.00124414
0.00124428
0.00124418
0.00124413
0.00124374
0.0012435
0.00124394
0.00124419
0.00124453
0.00124463
0.0012442
0.00124416