/*--------------------------------*- C++ -*----------------------------------*\
  =========                 |
  \\      /  F ield         | OpenFOAM: The Open Source CFD Toolbox
   \\    /   O peration     | Website:  https://openfoam.org
    \\  /    A nd           | Version:  11
     \\/     M anipulation  |
\*---------------------------------------------------------------------------*/
FoamFile
{
    format      ascii;
    class       volScalarField;
    location    "0.03";
    object      omega;
}
// * * * * * * * * * * * * * * * * * * * * * * * * * * * * * * * * * * * * * //

dimensions      [0 0 -1 0 0 0 0];

internalField   nonuniform List<scalar> 
287084
(
55.1165
55.8718
56.1831
56.2554
56.257
56.2538
56.2426
56.2437
56.2576
56.2578
56.2579
56.2579
56.2477
56.2493
56.2642
56.2568
56.2647
56.2738
56.2655
56.2707
56.2726
56.2673
56.2676
56.2662
56.2525
56.2503
56.2625
56.2683
56.2644
56.2472
56.2514
56.2593
56.2411
56.2461
56.2564
56.2544
56.2484
56.2492
56.2562
56.2424
56.249
56.2547
56.2378
56.2435
56.2531
56.2357
56.2403
56.2567
56.2561
56.2532
56.2532
56.2471
56.2434
56.2472
56.2383
56.246
56.2511
56.2493
56.2446
56.2484
56.258
56.2422
56.248
56.2571
56.2506
56.2501
56.2421
56.2499
56.2553
56.2532
56.2472
56.2474
56.2564
56.2558
56.2565
56.2576
56.2576
56.2463
56.2524
56.2559
56.2549
56.2546
56.2373
56.2389
56.2485
56.2359
56.2431
56.2511
56.249
56.2428
55.1178
55.8632
56.1823
56.2585
56.2587
56.2595
56.2594
56.2601
56.2583
56.2582
56.2578
56.2464
56.2502
56.2567
56.2389
56.2443
56.2561
56.2487
56.2434
56.2561
56.2745
56.2724
56.2732
56.2723
56.2721
56.2612
56.2671
56.2702
56.2557
56.2603
56.2627
56.2457
56.2513
56.261
56.2439
56.2474
56.2604
56.2539
56.2584
56.2601
56.2561
56.243
56.245
56.2576
56.2581
56.2567
56.2379
56.2414
56.2491
56.2313
56.2341
56.2474
56.2485
56.2486
56.2379
56.2467
56.2544
56.2415
56.2488
56.2547
56.2505
56.2455
56.2491
56.2552
56.2458
56.2506
56.2565
56.2536
56.2442
56.2508
56.2617
56.2592
56.2587
56.2456
56.2516
56.2612
56.2534
56.2544
56.2546
56.2536
56.2502
56.2473
56.2407
56.2426
56.2446
56.2417
56.2335
56.2403
56.2512
56.2338
55.1178
55.8627
56.1816
56.258
56.255
56.2642
56.2697
56.2586
56.264
56.2715
56.2709
56.2707
56.2614
56.253
56.2573
56.2651
56.2639
56.2638
56.251
56.2542
56.2681
56.2646
56.2685
56.2693
56.2704
56.2703
56.2609
56.2649
56.269
56.254
56.2616
56.2706
56.2547
56.2618
56.2716
56.257
56.2649
56.2737
56.2645
56.2662
56.2623
56.2598
56.2611
56.2635
56.2621
56.2553
56.2587
56.2612
56.2585
56.257
56.2462
56.2485
56.2519
56.2441
56.2509
56.2562
56.2392
56.2451
56.2531
56.2521
56.2483
56.2488
56.2597
56.2506
56.2567
56.2592
56.2564
56.2487
56.2527
56.2574
56.2468
56.2476
56.2415
56.2472
56.2514
56.2381
56.2458
56.2597
56.2515
56.2509
56.2505
56.2546
56.2553
56.2443
56.2494
56.2544
56.2385
56.2444
56.2487
56.2324
55.1175
55.8636
56.1775
56.2624
56.2638
56.2741
56.2786
56.2733
56.2738
56.2727
56.2726
56.2704
56.2632
56.2633
56.2713
56.2716
56.2674
56.2524
56.2581
56.2692
56.2599
56.2612
56.2571
56.2547
56.2538
56.2544
56.2462
56.2527
56.2663
56.2669
56.2666
56.2478
56.2523
56.2619
56.2454
56.2499
56.2625
56.2503
56.2568
56.2654
56.2561
56.2563
56.26
56.259
56.2598
56.2593
56.2428
56.2442
56.2528
56.2466
56.2464
56.2442
56.2448
56.2384
56.247
56.2558
56.2422
56.2492
56.2552
56.2511
56.2515
56.2458
56.2571
56.2628
56.2597
56.2582
56.2592
56.261
56.258
56.2538
56.2463
56.2527
56.2571
56.2478
56.2544
56.2635
56.2645
56.2611
56.2573
56.2565
56.2424
56.2489
56.2553
56.2537
56.2534
56.2396
56.2458
56.2503
56.2475
56.2393
55.1175
55.8632
56.1778
56.2654
56.2729
56.2703
56.2626
56.2685
56.2734
56.263
56.2671
56.2681
56.2657
56.2647
56.259
56.2604
56.2602
56.2475
56.2462
56.2578
56.256
56.267
56.2744
56.2663
56.2687
56.2655
56.2543
56.2604
56.2682
56.251
56.2528
56.2648
56.2573
56.2648
56.273
56.2632
56.2681
56.2695
56.268
56.2675
56.2524
56.2556
56.2597
56.2581
56.2578
56.2452
56.2508
56.2547
56.2432
56.2506
56.2567
56.239
56.2434
56.2551
56.2427
56.2489
56.2585
56.2526
56.2548
56.2515
56.2412
56.2482
56.2579
56.242
56.2483
56.2558
56.24
56.2451
56.2567
56.2435
56.2498
56.2595
56.2551
56.2547
56.2466
56.2535
56.2583
56.249
56.2492
56.2492
56.2411
56.2481
56.2568
56.245
56.2522
56.2562
56.2444
56.2518
56.2562
56.2373
55.1169
55.8661
56.1733
56.2432
56.2446
56.2364
56.2437
56.2558
56.2549
56.2547
56.2402
56.2479
56.2654
56.2541
56.262
56.2686
56.2598
56.2606
56.2597
56.2607
56.2574
56.2474
56.2541
56.2621
56.2449
56.2489
56.2626
56.2627
56.2627
56.2514
56.2598
56.2714
56.2643
56.2654
56.2621
56.249
56.2532
56.2595
56.2417
56.2473
56.2584
56.2427
56.2495
56.2605
56.2454
56.2528
56.2632
56.2552
56.2574
56.2541
56.2438
56.2492
56.2578
56.2568
56.2559
56.2371
56.2368
56.2511
56.2524
56.2495
56.235
56.2356
56.2527
56.2578
56.2553
56.2522
56.2449
56.2429
56.2527
56.251
56.2598
56.2639
56.2535
56.2587
56.2607
56.2466
56.2531
56.2595
56.2449
56.2506
56.2582
56.2496
56.2558
56.2586
56.2559
56.2551
56.2563
56.2581
56.2535
56.2381
55.1152
55.8697
56.1729
56.2491
56.2518
56.2404
56.2475
56.2524
56.2416
56.2395
56.2559
56.2942
56.2959
56.2923
56.2926
56.2939
56.2944
56.2886
56.2864
56.287
56.2887
56.2856
56.2746
56.2769
56.2785
56.2747
56.2633
56.2656
56.2716
56.2698
56.2645
56.267
56.2718
56.2551
56.2619
56.2713
56.2564
56.263
56.2712
56.2665
56.2659
56.257
56.2642
56.2689
56.2602
56.2594
56.26
56.2623
56.2566
56.2536
56.2496
56.2544
56.2558
56.2389
56.2431
56.2557
56.2552
56.2538
56.2361
56.2387
56.2494
56.2372
56.2448
56.2507
56.2479
56.2432
56.2404
56.245
56.2373
56.2447
56.2497
56.2353
56.241
56.2562
56.2539
56.251
56.2376
56.2456
56.2578
56.25
56.2545
56.2558
56.2456
56.2508
56.2568
56.2558
56.2525
56.2529
56.255
56.2365
55.1174
55.864
56.1739
56.272
56.2976
56.3035
56.3046
56.305
56.3052
56.3058
56.3032
56.3009
56.2981
56.296
56.2961
56.2944
56.2882
56.2865
56.2877
56.2873
56.2885
56.2852
56.2746
56.2764
56.2787
56.2749
56.2628
56.2641
56.2693
56.2548
56.2624
56.2717
56.2557
56.2627
56.2722
56.2573
56.2582
56.2777
56.2801
56.2767
56.2763
56.2685
56.2742
56.2777
56.2673
56.2666
56.2723
56.2772
56.2754
56.2739
56.2748
56.2701
56.2667
56.2622
56.2552
56.2555
56.2568
56.2531
56.2422
56.2408
56.2575
56.2621
56.2611
56.264
56.2605
56.2449
56.2507
56.2565
56.2462
56.2473
56.2437
56.2412
56.2334
56.2377
56.2575
56.2582
56.2535
56.2407
56.2363
56.2524
56.2609
56.2547
56.2546
56.2541
56.2481
56.2404
56.248
56.2551
56.2513
56.2381
55.1162
55.868
56.1735
56.2496
56.2558
56.2541
56.2511
56.2471
56.2421
56.2543
56.293
56.2952
56.2915
56.292
56.2906
56.2886
56.2867
56.2858
56.2859
56.283
56.2831
56.2817
56.2775
56.2779
56.2792
56.276
56.2615
56.264
56.27
56.2553
56.2629
56.272
56.2559
56.2629
56.2722
56.2572
56.2578
56.2766
56.2817
56.2797
56.2797
56.2768
56.2738
56.2703
56.2668
56.2638
56.2627
56.2479
56.2505
56.2542
56.2375
56.2433
56.2489
56.2326
56.2354
56.2524
56.2536
56.2507
56.2351
56.2358
56.2508
56.2531
56.2503
56.2381
56.2351
56.2516
56.2596
56.2559
56.2567
56.2575
56.2566
56.2418
56.246
56.2622
56.2615
56.2617
56.2599
56.2575
56.2538
56.2536
56.249
56.2551
56.2623
56.2583
56.2584
56.2578
56.2433
56.2446
56.2506
56.2339
55.1145
55.8712
56.1733
56.2354
56.255
56.2548
56.237
56.2382
56.2606
56.2638
56.2594
56.2447
56.2435
56.2637
56.2668
56.2624
56.2478
56.2492
56.2608
56.2531
56.2598
56.263
56.2506
56.2524
56.2654
56.2657
56.2601
56.2666
56.272
56.2545
56.2605
56.2712
56.2684
56.263
56.2631
56.264
56.261
56.2527
56.2542
56.2564
56.238
56.2431
56.2528
56.2361
56.242
56.25
56.2332
56.238
56.2506
56.2427
56.2445
56.2407
56.238
56.2301
56.2376
56.2475
56.2308
56.2355
56.2475
56.2474
56.2473
56.2311
56.236
56.2496
56.2465
56.2424
56.2464
56.2513
56.2417
56.241
56.241
56.2334
56.2398
56.2488
56.232
56.2365
56.252
56.2503
56.2474
56.2328
56.238
56.2498
56.2492
56.249
56.2412
56.236
56.2461
56.2569
56.2537
56.2423
55.1159
55.8668
56.1771
56.2527
56.2603
56.2568
56.2429
56.2435
56.261
56.2611
56.2615
56.2599
56.2689
56.2742
56.2631
56.268
56.2752
56.2749
56.2748
56.2663
56.2588
56.2635
56.2713
56.2674
56.253
56.2548
56.2658
56.2603
56.2599
56.2535
56.2621
56.2728
56.2672
56.2682
56.2645
56.2505
56.2537
56.2589
56.2407
56.2461
56.2568
56.2411
56.2479
56.2587
56.2437
56.2503
56.2601
56.2602
56.2601
56.2429
56.2481
56.2535
56.2374
56.2424
56.2529
56.2508
56.2477
56.2407
56.2445
56.2463
56.2428
56.2309
56.2371
56.2491
56.2463
56.2458
56.2327
56.2375
56.2571
56.2534
56.2544
56.2525
56.2588
56.2611
56.2493
56.2561
56.2627
56.255
56.2589
56.2607
56.2548
56.2597
56.2609
56.2435
56.2485
56.256
56.2446
56.2438
56.2436
56.235
55.1156
55.8681
56.1743
56.2572
56.2629
56.2621
56.262
56.2572
56.2501
56.256
56.2901
56.2979
56.2949
56.2958
56.2963
56.2947
56.2889
56.286
56.2811
56.2843
56.2853
56.2786
56.2837
56.2862
56.2814
56.265
56.2636
56.2684
56.2534
56.2593
56.2655
56.2477
56.2532
56.2624
56.245
56.2505
56.2611
56.245
56.2515
56.2618
56.2464
56.2534
56.2633
56.2551
56.2572
56.2539
56.2433
56.2491
56.2539
56.2533
56.2532
56.2465
56.2391
56.2434
56.25
56.2426
56.2448
56.2451
56.2364
56.2406
56.2521
56.2542
56.251
56.2467
56.2481
56.2456
56.237
56.2446
56.2553
56.2547
56.2545
56.2368
56.2419
56.2512
56.2477
56.247
56.2338
56.2424
56.2568
56.2491
56.249
56.2433
56.2493
56.252
56.246
56.2455
56.2417
56.2497
56.2533
56.2358
55.1174
55.864
56.1739
56.2719
56.2975
56.3033
56.3047
56.3018
56.2983
56.2995
56.3012
56.3008
56.2984
56.2964
56.2966
56.295
56.2893
56.2862
56.2838
56.2827
56.2803
56.2797
56.2805
56.2815
56.2833
56.279
56.2643
56.2676
56.2732
56.2577
56.2649
56.2732
56.2598
56.2576
56.2734
56.2778
56.2769
56.2766
56.2642
56.2691
56.2747
56.268
56.2676
56.263
56.2682
56.2705
56.2678
56.2645
56.2591
56.2595
56.2604
56.2576
56.244
56.2496
56.2579
56.2549
56.2544
56.2425
56.2513
56.261
56.2574
56.2569
56.2455
56.2535
56.2603
56.2448
56.2511
56.2569
56.2464
56.2473
56.2436
56.241
56.2332
56.2376
56.2574
56.2581
56.2535
56.2373
56.2371
56.2521
56.2534
56.2505
56.239
56.2362
56.2525
56.2614
56.2554
56.2549
56.2539
56.2382
55.1148
55.8699
56.1756
56.2389
56.2398
56.2373
56.247
56.2599
56.2508
56.2507
56.2507
56.2432
56.248
56.2598
56.2588
56.2613
56.2586
56.2523
56.2553
56.2713
56.2634
56.2707
56.2799
56.2734
56.2748
56.2753
56.2723
56.2695
56.2684
56.2586
56.2647
56.2734
56.2601
56.2573
56.2725
56.2779
56.2743
56.2744
56.2729
56.2712
56.2696
56.2702
56.2697
56.2684
56.268
56.2687
56.2658
56.2503
56.2446
56.2493
56.2441
56.252
56.256
56.2538
56.2533
56.2413
56.2456
56.2536
56.2506
56.2502
56.2392
56.2451
56.2563
56.2456
56.2446
56.2414
56.249
56.2522
56.247
56.2464
56.238
56.2444
56.2595
56.2486
56.2551
56.2651
56.2582
56.2627
56.2643
56.2618
56.2606
56.2552
56.2522
56.2444
56.2508
56.2611
56.2581
56.2578
56.2537
56.2402
55.1174
55.8639
56.1739
56.2719
56.2975
56.3033
56.3045
56.3049
56.3052
56.306
56.3034
56.3012
56.2985
56.2966
56.2968
56.2951
56.2896
56.287
56.2889
56.2899
56.2829
56.2818
56.2861
56.2867
56.2848
56.266
56.2672
56.2732
56.263
56.2622
56.2618
56.2528
56.2577
56.2636
56.2453
56.2504
56.2606
56.2442
56.2506
56.2606
56.2451
56.2522
56.2618
56.2545
56.2536
56.2456
56.2517
56.2597
56.258
56.2587
56.2542
56.2539
56.2556
56.2575
56.2531
56.242
56.2373
56.2575
56.2682
56.2632
56.2662
56.2715
56.2688
56.2663
56.2646
56.248
56.2515
56.2564
56.2461
56.2471
56.2435
56.241
56.2332
56.2375
56.2573
56.2581
56.2534
56.2373
56.237
56.252
56.2533
56.2504
56.2359
56.2391
56.25
56.2451
56.2483
56.2502
56.2471
56.2328
55.1191
55.8599
56.1767
56.261
56.2645
56.2587
56.2653
56.2695
56.2643
56.2667
56.2638
56.2602
56.253
56.2598
56.2668
56.2632
56.2501
56.2506
56.2619
56.2608
56.2625
56.2605
56.2665
56.2682
56.258
56.2636
56.271
56.2535
56.2565
56.2691
56.2697
56.2672
56.2704
56.2727
56.2613
56.2617
56.2566
56.2539
56.2531
56.2418
56.2457
56.2522
56.2345
56.2383
56.2513
56.2383
56.2443
56.2595
56.2584
56.2554
56.2558
56.2525
56.2417
56.2538
56.2813
56.2821
56.284
56.2821
56.2785
56.2767
56.2735
56.2738
56.2756
56.2772
56.2741
56.2713
56.267
56.2534
56.2567
56.2605
56.2438
56.2498
56.2561
56.2555
56.2555
56.2474
56.2494
56.2498
56.2417
56.2475
56.2605
56.258
56.255
56.2429
56.2501
56.2562
56.2496
56.2491
56.248
56.237
55.1187
55.8616
56.171
56.2703
56.297
56.3032
56.3046
56.305
56.3053
56.3061
56.3035
56.3012
56.3023
56.3003
56.2949
56.292
56.2922
56.2871
56.2885
56.289
56.2752
56.2791
56.2826
56.2791
56.2758
56.2765
56.2773
56.2589
56.2631
56.2699
56.2693
56.2688
56.2495
56.2536
56.2577
56.2571
56.2566
56.2379
56.2428
56.2523
56.2352
56.2408
56.2521
56.2498
56.2492
56.2339
56.2398
56.2529
56.2514
56.2515
56.249
56.247
56.2394
56.2569
56.2746
56.269
56.2734
56.275
56.27
56.273
56.2736
56.2689
56.27
56.2677
56.2616
56.2603
56.2598
56.2481
56.252
56.2554
56.2464
56.2461
56.2478
56.2474
56.2334
56.2366
56.2514
56.2491
56.249
56.249
56.2419
56.2469
56.2576
56.2512
56.2539
56.2548
56.25
56.2551
56.2567
56.2378
55.1174
55.8639
56.1739
56.272
56.2977
56.3035
56.3047
56.3051
56.3054
56.306
56.3069
56.3044
56.3021
56.3033
56.3014
56.2962
56.2933
56.2934
56.2919
56.2872
56.2884
56.2895
56.2836
56.2833
56.2818
56.2672
56.2693
56.2752
56.2598
56.2658
56.2692
56.2519
56.2572
56.2635
56.2451
56.2501
56.2597
56.2432
56.2494
56.2593
56.2437
56.2499
56.2615
56.2552
56.2564
56.2526
56.2512
56.2506
56.2508
56.2508
56.2478
56.2438
56.2608
56.2754
56.2691
56.2735
56.2752
56.2702
56.2698
56.2712
56.2715
56.2669
56.2674
56.2641
56.2543
56.2581
56.2597
56.2509
56.2546
56.2599
56.2579
56.2562
56.2403
56.2377
56.2529
56.2574
56.2531
56.2371
56.2393
56.2502
56.2458
56.2523
56.254
56.2495
56.2386
56.2342
56.2491
56.2556
56.2517
56.2384
55.1187
55.8617
56.1709
56.2703
56.297
56.3032
56.3045
56.305
56.3057
56.3031
56.3006
56.3018
56.2997
56.2943
56.2915
56.2916
56.2864
56.288
56.2886
56.2749
56.2793
56.2835
56.2734
56.2735
56.2732
56.2623
56.2664
56.2729
56.2549
56.2603
56.271
56.2547
56.2588
56.2661
56.2653
56.2651
56.2606
56.2509
56.2494
56.2504
56.2378
56.2449
56.2509
56.233
56.2382
56.246
56.2295
56.2354
56.2465
56.2436
56.243
56.2299
56.2303
56.258
56.2767
56.2714
56.2739
56.2789
56.2775
56.274
56.2739
56.2726
56.2731
56.2686
56.2674
56.2598
56.2626
56.2636
56.2586
56.2588
56.2563
56.2532
56.2533
56.254
56.2509
56.2409
56.2468
56.256
56.2561
56.2561
56.2391
56.2449
56.2521
56.2409
56.2466
56.2491
56.2364
56.2428
56.2517
56.2338
55.1187
55.8616
56.1709
56.2723
56.2794
56.2779
56.2783
56.2754
56.2728
56.2748
56.2751
56.2611
56.2612
56.2691
56.2744
56.2716
56.2605
56.2554
56.2578
56.2561
56.266
56.2851
56.2836
56.2816
56.2651
56.2678
56.2742
56.2564
56.2618
56.2688
56.251
56.2565
56.2648
56.2467
56.2518
56.2614
56.2511
56.2506
56.2497
56.24
56.2448
56.2508
56.2423
56.2427
56.2425
56.2398
56.2372
56.2333
56.2331
56.2584
56.2868
56.2935
56.2952
56.2957
56.2959
56.2963
56.2932
56.2905
56.2888
56.2863
56.2878
56.2887
56.2796
56.2785
56.2794
56.2774
56.2785
56.276
56.267
56.2665
56.2667
56.2582
56.2628
56.2643
56.2611
56.252
56.2541
56.2578
56.2473
56.2445
56.2416
56.2451
56.247
56.2385
56.2434
56.2528
56.2472
56.2495
56.2462
56.2347
55.1168
55.8656
56.1746
56.247
56.2486
56.2458
56.2375
56.2458
56.2547
56.2379
56.2421
56.2568
56.2445
56.2518
56.2597
56.258
56.2545
56.2536
56.2707
56.2684
56.2788
56.2863
56.277
56.2772
56.2769
56.2661
56.2708
56.2773
56.2594
56.2643
56.2743
56.2582
56.2642
56.2729
56.2575
56.2641
56.2695
56.2644
56.2635
56.2537
56.2597
56.2624
56.2546
56.2556
56.255
56.2496
56.2438
56.2421
56.237
56.2413
56.2433
56.2314
56.2367
56.2475
56.2419
56.2425
56.237
56.2351
56.2274
56.2356
56.2462
56.2298
56.2357
56.2459
56.2325
56.2304
56.2377
56.2363
56.2476
56.2563
56.2467
56.2475
56.2472
56.247
56.2357
56.2383
56.2576
56.2581
56.2534
56.2373
56.2394
56.2501
56.2414
56.2466
56.2481
56.2359
56.2411
56.2517
56.2498
56.244
55.1174
55.8639
56.1739
56.2721
56.2977
56.3037
56.3016
56.299
56.2998
56.2975
56.2919
56.289
56.289
56.287
56.2823
56.2836
56.285
56.2794
56.2778
56.282
56.2837
56.2803
56.2676
56.2637
56.27
56.2766
56.2737
56.2577
56.2648
56.2727
56.2703
56.2631
56.2641
56.2654
56.2625
56.2617
56.2483
56.2523
56.2535
56.2458
56.2464
56.2453
56.2334
56.236
56.2482
56.2415
56.2474
56.2495
56.2478
56.2437
56.2488
56.279
56.2921
56.2948
56.2955
56.2958
56.296
56.2964
56.2934
56.2916
56.2923
56.2879
56.2853
56.2849
56.2871
56.2807
56.2812
56.2835
56.2819
56.284
56.2818
56.2774
56.2689
56.2691
56.2701
56.2632
56.2633
56.262
56.2493
56.2512
56.2574
56.2428
56.2499
56.2573
56.2466
56.2454
56.2398
56.2463
56.2492
56.2338
55.1174
55.8639
56.1739
56.272
56.2977
56.3035
56.3047
56.305
56.3055
56.3062
56.3038
56.3016
56.3029
56.301
56.2958
56.2931
56.2932
56.2884
56.2901
56.2907
56.289
56.2845
56.2861
56.2878
56.2837
56.2709
56.2722
56.2779
56.2628
56.2689
56.2728
56.2576
56.265
56.2733
56.2576
56.2624
56.2723
56.2632
56.2643
56.2696
56.2705
56.2684
56.2661
56.2602
56.2625
56.263
56.261
56.2604
56.2515
56.2417
56.2494
56.2817
56.2924
56.2947
56.2954
56.2958
56.296
56.2962
56.2964
56.2969
56.2939
56.2911
56.291
56.2893
56.2868
56.2884
56.2901
56.2882
56.2841
56.2822
56.277
56.2752
56.2735
56.2751
56.2706
56.269
56.2681
56.2698
56.266
56.2643
56.2629
56.2506
56.2544
56.2591
56.2433
56.2496
56.2552
56.2553
56.2553
56.237
55.116
55.8673
56.1763
56.2438
56.2415
56.2531
56.2597
56.2424
56.2479
56.2556
56.247
56.2416
56.2488
56.2896
56.2955
56.2899
56.2901
56.2905
56.2912
56.2922
56.2843
56.2871
56.2887
56.2725
56.2773
56.2824
56.2734
56.2745
56.2729
56.2691
56.2553
56.2607
56.2662
56.2472
56.2519
56.261
56.2472
56.2436
56.2604
56.2668
56.2633
56.2638
56.2623
56.2632
56.2592
56.2569
56.2558
56.2566
56.2555
56.2555
56.2454
56.2463
56.247
56.2351
56.2343
56.2587
56.2685
56.2635
56.2644
56.2626
56.2634
56.2577
56.2607
56.2649
56.2642
56.2657
56.2601
56.2611
56.2636
56.2617
56.2598
56.2438
56.2414
56.2544
56.2553
56.2558
56.2523
56.2603
56.2636
56.2476
56.2529
56.2574
56.2422
56.2471
56.25
56.2473
56.2393
56.2428
56.2517
56.2339
55.1174
55.864
56.1738
56.2731
56.2899
56.2867
56.2867
56.2867
56.2869
56.2886
56.2857
56.2791
56.276
56.2761
56.2743
56.2742
56.2684
56.2703
56.2728
56.2696
56.2593
56.2636
56.2737
56.2717
56.2699
56.2735
56.2769
56.2575
56.2618
56.2695
56.2668
56.259
56.2602
56.2616
56.2577
56.2563
56.2368
56.2405
56.2508
56.2343
56.24
56.2472
56.2301
56.2359
56.2443
56.2272
56.231
56.2442
56.2319
56.2367
56.2439
56.2421
56.2418
56.2296
56.2353
56.2474
56.2465
56.2438
56.2459
56.2494
56.2468
56.2394
56.2395
56.2451
56.2301
56.236
56.2483
56.2319
56.2378
56.2474
56.245
56.2395
56.2434
56.2523
56.242
56.2411
56.2408
56.2408
56.2312
56.2367
56.249
56.2497
56.2498
56.2331
56.2392
56.2485
56.2318
56.2377
56.2481
56.2312
55.1174
55.8639
56.1739
56.272
56.2977
56.3036
56.3046
56.3053
56.3026
56.3002
56.3013
56.2992
56.2937
56.2909
56.291
56.286
56.2854
56.2874
56.2857
56.2878
56.2895
56.2902
56.2884
56.2832
56.266
56.2685
56.2753
56.2575
56.263
56.27
56.2514
56.256
56.2623
56.243
56.2431
56.2586
56.2597
56.2561
56.2393
56.2428
56.2501
56.2459
56.2449
56.2311
56.2374
56.252
56.2405
56.2477
56.2528
56.2494
56.2388
56.241
56.2457
56.228
56.2316
56.2452
56.2344
56.2414
56.2463
56.2317
56.2351
56.2512
56.2516
56.2509
56.2355
56.2393
56.2492
56.2325
56.2379
56.2477
56.2312
56.2364
56.2516
56.2513
56.2502
56.2341
56.2392
56.2484
56.2332
56.2389
56.2504
56.2374
56.2441
56.2491
56.2465
56.2388
56.2419
56.251
56.2498
56.2456
55.1174
55.864
56.1739
56.272
56.2977
56.3035
56.3046
56.3051
56.3055
56.3061
56.307
56.3047
56.3026
56.304
56.3023
56.2971
56.2944
56.2946
56.29
56.2917
56.2929
56.2842
56.2887
56.2913
56.2904
56.2899
56.2752
56.2729
56.277
56.2778
56.2747
56.2616
56.268
56.2743
56.258
56.2642
56.2694
56.263
56.262
56.2529
56.2553
56.2637
56.2618
56.2589
56.2471
56.2501
56.2517
56.2488
56.2456
56.2401
56.2609
56.2875
56.2936
56.295
56.2954
56.2957
56.296
56.2962
56.2964
56.2968
56.2939
56.2911
56.2914
56.2899
56.2838
56.2845
56.2862
56.2841
56.2828
56.2818
56.2773
56.2757
56.2742
56.2719
56.2693
56.2608
56.2632
56.2645
56.2613
56.2522
56.2543
56.2576
56.2565
56.2565
56.254
56.2531
56.2358
56.2408
56.251
56.2336
55.1174
55.8639
56.1739
56.272
56.2978
56.3036
56.3047
56.3051
56.3056
56.3063
56.3039
56.3016
56.303
56.3011
56.2958
56.293
56.2932
56.2884
56.2902
56.291
56.2832
56.2804
56.2844
56.2861
56.2822
56.2689
56.2727
56.2785
56.2612
56.2665
56.2755
56.259
56.2652
56.2734
56.2577
56.2625
56.2723
56.2632
56.2644
56.2698
56.2706
56.2684
56.2661
56.2602
56.2625
56.263
56.2611
56.2604
56.2516
56.2418
56.2494
56.2817
56.2925
56.2949
56.2955
56.2952
56.2924
56.2903
56.2879
56.2852
56.2856
56.2871
56.2874
56.283
56.2813
56.276
56.2737
56.2744
56.2757
56.2688
56.27
56.2706
56.2666
56.2534
56.2558
56.2607
56.2463
56.2524
56.262
56.2562
56.2564
56.2573
56.2568
56.2542
56.2533
56.2498
56.2388
56.2452
56.2504
56.233
55.1174
55.8639
56.1739
56.272
56.2977
56.3037
56.3016
56.2991
56.2999
56.2975
56.2919
56.2889
56.2889
56.2868
56.2836
56.2822
56.2813
56.2826
56.2834
56.2821
56.2806
56.2759
56.2603
56.2631
56.2743
56.2741
56.2722
56.2752
56.2783
56.274
56.2737
56.2697
56.2685
56.2657
56.263
56.2465
56.25
56.2556
56.2478
56.2503
56.2511
56.2477
56.2331
56.2358
56.2485
56.2401
56.2466
56.2497
56.2477
56.245
56.2494
56.2792
56.2922
56.2948
56.2957
56.2929
56.2902
56.2874
56.2846
56.2852
56.2828
56.2836
56.2853
56.2841
56.2838
56.2722
56.2736
56.2762
56.2675
56.2716
56.2728
56.2705
56.2699
56.2571
56.2611
56.2669
56.2621
56.2616
56.2543
56.2534
56.2533
56.2453
56.2513
56.2568
56.2408
56.2475
56.2546
56.2538
56.2535
56.2351
55.1168
55.8656
56.1745
56.247
56.2522
56.2491
56.2382
56.2376
56.2536
56.2623
56.2588
56.2459
56.2467
56.258
56.2592
56.2596
56.2581
56.2535
56.2574
56.2762
56.2671
56.2761
56.2831
56.2705
56.2775
56.2812
56.2662
56.2714
56.2787
56.2741
56.2732
56.2604
56.267
56.274
56.258
56.2617
56.2747
56.2743
56.2712
56.2686
56.2683
56.2669
56.2646
56.265
56.2659
56.2615
56.2535
56.2443
56.2424
56.2361
56.2347
56.2344
56.2351
56.2274
56.2348
56.2452
56.2287
56.2298
56.2471
56.2518
56.248
56.2332
56.234
56.2547
56.2563
56.2544
56.2541
56.2446
56.241
56.254
56.257
56.2654
56.2697
56.2621
56.263
56.2623
56.2636
56.2602
56.2479
56.2501
56.2582
56.2469
56.2499
56.2619
56.2626
56.2616
56.2459
56.2485
56.2511
56.2332
55.1191
55.8599
56.1771
56.2581
56.2622
56.2584
56.2645
56.2688
56.2591
56.259
56.2588
56.2484
56.2526
56.2613
56.2606
56.2606
56.2451
56.2525
56.2682
56.2627
56.2679
56.2703
56.2666
56.2673
56.2613
56.2662
56.2736
56.2557
56.2608
56.272
56.2555
56.2598
56.2717
56.2705
56.2701
56.258
56.2629
56.2653
56.2608
56.2464
56.2466
56.2503
56.2474
56.2471
56.2424
56.2426
56.2412
56.2343
56.2406
56.2551
56.2416
56.249
56.2562
56.2443
56.2422
56.2613
56.2732
56.2692
56.2709
56.2709
56.2718
56.2638
56.2657
56.2665
56.2628
56.2625
56.2605
56.2559
56.2546
56.2582
56.2577
56.2562
56.2404
56.2378
56.2531
56.2574
56.2531
56.2371
56.2391
56.2499
56.2384
56.2439
56.2463
56.2425
56.2431
56.238
56.2421
56.2472
56.2438
56.2319
55.119
55.86
56.1767
56.2608
56.2646
56.2582
56.2643
56.2692
56.2594
56.2592
56.2589
56.2485
56.2526
56.2612
56.2615
56.2617
56.245
56.2501
56.2706
56.2719
56.2715
56.2561
56.2607
56.2696
56.2527
56.2588
56.2711
56.2545
56.2601
56.2715
56.2558
56.262
56.2681
56.2657
56.2648
56.2494
56.2538
56.2605
56.2569
56.245
56.2441
56.2482
56.2328
56.2385
56.2466
56.2448
56.2446
56.2339
56.243
56.2797
56.2812
56.2746
56.2771
56.282
56.2795
56.2765
56.2694
56.2729
56.2762
56.2732
56.2728
56.2671
56.2671
56.2663
56.2677
56.2681
56.2658
56.2641
56.2646
56.2639
56.2503
56.2531
56.2568
56.2558
56.2558
56.2535
56.2525
56.2353
56.2388
56.2507
56.2409
56.2399
56.2392
56.2399
56.2319
56.2391
56.2491
56.2477
56.2473
56.2303
55.1174
55.8639
56.1739
56.272
56.2976
56.3034
56.3047
56.3051
56.3054
56.3059
56.3067
56.3044
56.3021
56.3034
56.3014
56.2962
56.2934
56.2934
56.2919
56.2873
56.2885
56.2896
56.2835
56.2833
56.2818
56.2678
56.2709
56.2766
56.2591
56.2652
56.275
56.259
56.2596
56.2691
56.269
56.2643
56.2694
56.2745
56.2607
56.2669
56.2746
56.2689
56.2716
56.2763
56.2741
56.2691
56.2686
56.2624
56.2592
56.2546
56.2436
56.2393
56.2569
56.2743
56.2667
56.2722
56.2741
56.2677
56.2675
56.2662
56.2675
56.266
56.2674
56.2641
56.2544
56.2576
56.2589
56.2506
56.2545
56.2599
56.2579
56.2562
56.2403
56.2377
56.2529
56.2575
56.2531
56.2404
56.2361
56.2523
56.2607
56.2545
56.2544
56.2539
56.248
56.2403
56.2478
56.2551
56.2513
56.2382
55.1187
55.8616
56.171
56.2704
56.2971
56.3033
56.3046
56.305
56.3054
56.3059
56.3067
56.3043
56.302
56.3032
56.3013
56.296
56.2931
56.2932
56.2882
56.2879
56.2897
56.2872
56.2888
56.2904
56.2909
56.2881
56.281
56.2794
56.275
56.2609
56.2666
56.2743
56.2607
56.2568
56.2708
56.2764
56.2751
56.2747
56.2621
56.2673
56.2736
56.2653
56.267
56.2629
56.2623
56.2639
56.2599
56.2617
56.2634
56.2631
56.2628
56.2487
56.2452
56.2547
56.2557
56.2646
56.2679
56.2556
56.2562
56.2749
56.2789
56.2751
56.2761
56.2775
56.2792
56.2763
56.2663
56.2642
56.2651
56.2665
56.2649
56.2652
56.2663
56.2626
56.2619
56.2485
56.2513
56.2553
56.2548
56.2546
56.2392
56.2461
56.2544
56.2393
56.2462
56.2536
56.2372
56.243
56.2519
56.234
55.1187
55.8616
56.1709
56.2723
56.2797
56.2769
56.2764
56.2652
56.2714
56.2756
56.2645
56.2679
56.2689
56.2586
56.2629
56.2646
56.2492
56.2484
56.2668
56.2724
56.2686
56.2554
56.2589
56.2672
56.2504
56.2566
56.2692
56.2532
56.2594
56.2674
56.2653
56.2595
56.2588
56.2666
56.2674
56.2658
56.246
56.249
56.2554
56.2375
56.2428
56.2538
56.2395
56.2457
56.25
56.2483
56.2437
56.2469
56.2543
56.25
56.2493
56.2379
56.2389
56.2664
56.2748
56.2672
56.2713
56.2769
56.2737
56.263
56.2656
56.272
56.2675
56.2709
56.2768
56.2763
56.2744
56.2728
56.2579
56.2609
56.2666
56.2578
56.2572
56.2567
56.2582
56.2561
56.2559
56.2467
56.2523
56.2574
56.2514
56.2466
56.2494
56.2518
56.2382
56.2459
56.2545
56.2544
56.2543
56.2351
55.1174
55.864
56.1739
56.2719
56.2975
56.3033
56.3045
56.3049
56.3052
56.3058
56.3066
56.304
56.3017
56.3029
56.3009
56.2955
56.2926
56.2935
56.2953
56.2925
56.2868
56.2846
56.2829
56.2696
56.2725
56.2774
56.2628
56.2689
56.2739
56.2703
56.2594
56.2607
56.2652
56.2469
56.252
56.2621
56.2457
56.2521
56.2619
56.2463
56.2533
56.2627
56.248
56.2551
56.2627
56.2519
56.2572
56.2638
56.2601
56.2605
56.2607
56.2594
56.2463
56.2469
56.2587
56.2603
56.2605
56.2508
56.257
56.266
56.2635
56.2554
56.2587
56.2633
56.2507
56.2568
56.2602
56.2508
56.2578
56.2619
56.2597
56.259
56.2431
56.2395
56.2504
56.2567
56.2525
56.237
56.237
56.2522
56.2535
56.2506
56.2359
56.2391
56.25
56.245
56.2482
56.2501
56.247
56.2327
55.1156
55.8693
56.1737
56.2412
56.2412
56.2412
56.2345
56.2394
56.249
56.2459
56.2456
56.2374
56.2408
56.2725
56.2879
56.2845
56.2841
56.2842
56.2893
56.2878
56.2813
56.2834
56.2848
56.2832
56.2822
56.2648
56.2671
56.2736
56.2568
56.2631
56.2735
56.2578
56.2567
56.2665
56.266
56.2749
56.278
56.2643
56.2708
56.275
56.2658
56.267
56.2634
56.2663
56.2679
56.2634
56.2487
56.2505
56.2537
56.2384
56.2436
56.2531
56.2454
56.248
56.2486
56.2456
56.2371
56.2419
56.2483
56.2453
56.2359
56.2378
56.2468
56.2481
56.2483
56.2315
56.2366
56.2486
56.2465
56.2462
56.2447
56.2388
56.2432
56.2601
56.2551
56.2572
56.2529
56.2505
56.2445
56.2526
56.258
56.2503
56.2495
56.2481
56.2504
56.2498
56.2392
56.2432
56.2516
56.2338
55.1174
55.8639
56.1739
56.272
56.2976
56.3033
56.3046
56.305
56.3041
56.3016
56.3003
56.2977
56.2956
56.2958
56.2939
56.2918
56.2885
56.2864
56.2864
56.2849
56.2803
56.2814
56.2821
56.2803
56.2786
56.2616
56.2641
56.274
56.2739
56.2715
56.2735
56.2753
56.2606
56.2582
56.2645
56.2645
56.272
56.2738
56.27
56.2674
56.2732
56.2782
56.272
56.2743
56.2751
56.2734
56.2747
56.272
56.2663
56.2633
56.2552
56.2583
56.2593
56.2423
56.2472
56.2583
56.2441
56.2509
56.2578
56.2423
56.2451
56.2548
56.2472
56.2563
56.2623
56.2513
56.2541
56.2556
56.2499
56.2544
56.2561
56.2522
56.2393
56.2382
56.254
56.2578
56.2534
56.2373
56.2371
56.252
56.2534
56.2504
56.236
56.2392
56.2501
56.2451
56.2483
56.2502
56.2471
56.2328
55.1156
55.8681
56.1742
56.2571
56.2629
56.262
56.262
56.2572
56.2502
56.2561
56.2902
56.2979
56.2948
56.2958
56.2963
56.2945
56.2889
56.2861
56.2875
56.2887
56.2818
56.283
56.2841
56.2822
56.2817
56.273
56.2698
56.2667
56.261
56.2576
56.2506
56.2608
56.2711
56.2552
56.2592
56.2711
56.2607
56.2683
56.2753
56.2653
56.2693
56.2705
56.2605
56.2644
56.2664
56.2625
56.2507
56.2518
56.2544
56.2535
56.2534
56.2466
56.239
56.2433
56.2499
56.2426
56.2448
56.2451
56.2364
56.2411
56.2496
56.2462
56.2458
56.2459
56.2474
56.2449
56.2369
56.2446
56.2553
56.2547
56.2545
56.2368
56.2419
56.2511
56.2477
56.2471
56.2337
56.2419
56.2597
56.2592
56.258
56.2413
56.2421
56.2527
56.2534
56.2522
56.2575
56.2621
56.2582
56.2454
55.1148
55.8699
56.1757
56.2389
56.2398
56.2373
56.2387
56.2666
56.2834
56.2802
56.2796
56.2803
56.2809
56.2781
56.2759
56.2766
56.2772
56.2743
56.2685
56.2685
56.2702
56.2669
56.2553
56.2557
56.2639
56.2514
56.2583
56.2685
56.259
56.2592
56.2586
56.2496
56.2554
56.2639
56.248
56.253
56.2614
56.2559
56.2561
56.2529
56.2428
56.247
56.2528
56.2406
56.2472
56.2514
56.2386
56.2465
56.2554
56.239
56.2432
56.2567
56.2575
56.2566
56.2376
56.2358
56.2491
56.2515
56.2487
56.2343
56.2376
56.2486
56.2401
56.2453
56.2469
56.2348
56.2413
56.2507
56.2472
56.2466
56.2333
56.2395
56.2581
56.2482
56.2564
56.2633
56.2588
56.2613
56.2615
56.2581
56.2457
56.2529
56.2606
56.2446
56.251
56.2577
56.2461
56.245
56.2447
56.2359
55.1174
55.8649
56.1721
56.2521
56.2593
56.252
56.2535
56.2547
56.2517
56.2552
56.2552
56.2666
56.2733
56.2668
56.2678
56.2631
56.2664
56.2688
56.2649
56.2567
56.2535
56.2671
56.2718
56.2675
56.2528
56.2564
56.2664
56.2499
56.256
56.2644
56.2632
56.2639
56.2571
56.2585
56.2587
56.2503
56.2553
56.2597
56.2412
56.2464
56.2573
56.2415
56.2483
56.2592
56.2442
56.2509
56.2604
56.2604
56.2602
56.2431
56.2483
56.2538
56.2377
56.2427
56.2532
56.2511
56.248
56.2411
56.2443
56.2511
56.2491
56.2473
56.2384
56.2398
56.2599
56.2556
56.2644
56.2688
56.2663
56.266
56.2589
56.2559
56.2555
56.2573
56.2608
56.2575
56.2598
56.2655
56.262
56.2491
56.2526
56.2556
56.2545
56.2541
56.2367
56.242
56.2501
56.2482
56.2477
56.2307
55.1173
55.8644
56.1744
56.2481
56.2515
56.2554
56.2523
56.2497
56.2463
56.255
56.2911
56.2978
56.2946
56.2955
56.296
56.2943
56.2883
56.287
56.2883
56.2878
56.2895
56.286
56.2738
56.2753