/*--------------------------------*- C++ -*----------------------------------*\
  =========                 |
  \\      /  F ield         | OpenFOAM: The Open Source CFD Toolbox
   \\    /   O peration     | Website:  https://openfoam.org
    \\  /    A nd           | Version:  11
     \\/     M anipulation  |
\*---------------------------------------------------------------------------*/
FoamFile
{
    format      ascii;
    class       volScalarField;
    location    "0.03";
    object      p;
}
// * * * * * * * * * * * * * * * * * * * * * * * * * * * * * * * * * * * * * //

dimensions      [0 2 -2 0 0 0 0];

internalField   nonuniform List<scalar> 
287084
(
1.76192
1.49078
1.41979
1.35246
1.28611
1.23552
1.18836
1.14292
1.10035
1.06003
1.01872
0.976059
0.933169
0.889833
0.845969
0.801482
0.756486
0.711078
0.665372
0.619674
0.574124
0.529013
0.48471
0.441221
0.398947
0.357977
0.319391
0.286522
0.258541
0.231995
0.205414
0.179905
0.158639
0.140928
0.126502
0.114995
0.106273
0.100033
0.0960217
0.0939989
0.0936667
0.0947648
0.0970455
0.100276
0.104183
0.108595
0.113336
0.118193
0.122982
0.127603
0.13183
0.135443
0.139349
0.142692
0.144751
0.14693
0.150366
0.154538
0.156922
0.158031
0.156139
0.152491
0.151101
0.150525
0.15016
0.149062
0.14912
0.146847
0.140012
0.135819
0.132206
0.126759
0.12209
0.115878
0.107066
0.101246
0.0980719
0.0909777
0.0857387
0.0809483
0.0701339
0.0630903
0.0582489
0.0472979
0.0405914
0.0353624
0.0249033
0.0160944
0.00842866
0.00249626
1.63026
1.44634
1.39093
1.33627
1.27673
1.22941
1.18436
1.14076
1.09879
1.05758
1.01595
0.973804
0.931094
0.887816
0.843848
0.799222
0.754084
0.708433
0.662559
0.616602
0.570811
0.525511
0.480981
0.437447
0.395238
0.354612
0.316514
0.284109
0.254217
0.224837
0.197567
0.173691
0.153241
0.135976
0.121843
0.11063
0.102135
0.096204
0.0924339
0.0906835
0.0906119
0.0919656
0.094494
0.0979626
0.102094
0.10672
0.11166
0.116713
0.121721
0.126565
0.13116
0.135248
0.139024
0.141876
0.14415
0.147845
0.151185
0.153912
0.156789
0.157318
0.155095
0.153484
0.152993
0.151804
0.151469
0.150362
0.146858
0.144082
0.141055
0.136555
0.131595
0.126522
0.1211
0.114645
0.108532
0.103263
0.0984653
0.0923883
0.0847207
0.0786974
0.0718307
0.0632146
0.0566599
0.0496108
0.0415404
0.0343825
0.0261261
0.0174392
0.008864
0.00244153
1.60256
1.43685
1.38331
1.32809
1.27115
1.2244
1.17989
1.13688
1.09515
1.05386
1.0123
0.970142
0.927388
0.88391
0.839714
0.794789
0.749238
0.703207
0.656843
0.610453
0.564199
0.518404
0.473458
0.429552
0.387203
0.34671
0.308618
0.274273
0.242703
0.213594
0.187091
0.163587
0.143374
0.126475
0.112688
0.101912
0.0939123
0.0884007
0.08518
0.0839448
0.0844112
0.0862899
0.0893286
0.0932659
0.097867
0.102926
0.10826
0.113685
0.119049
0.124234
0.129123
0.133589
0.137724
0.141444
0.144412
0.146757
0.149187
0.152841
0.156316
0.156387
0.155152
0.154352
0.153641
0.153088
0.151636
0.149532
0.14713
0.144037
0.140094
0.135802
0.131362
0.126319
0.120923
0.115315
0.109579
0.103777
0.0979328
0.0915836
0.0849646
0.0783649
0.0711032
0.0636355
0.0565359
0.0489819
0.0412465
0.0336381
0.0255166
0.0170419
0.00830726
0.00207139
1.55829
1.4062
1.35853
1.30852
1.25743
1.21395
1.17174
1.13022
1.08926
1.0483
1.00684
0.964768
0.921857
0.87814
0.833576
0.788148
0.742101
0.695428
0.648408
0.601287
0.554255
0.507769
0.462083
0.417577
0.374706
0.333787
0.295332
0.259901
0.227636
0.198064
0.171587
0.148374
0.128621
0.112193
0.0989951
0.0888855
0.0815555
0.0768683
0.074417
0.07398
0.0752247
0.0778832
0.0816604
0.0863109
0.0915881
0.0972825
0.103206
0.109192
0.115085
0.120772
0.126155
0.131146
0.135719
0.13973
0.143124
0.146224
0.149149
0.151783
0.153872
0.154619
0.154636
0.154266
0.153607
0.152519
0.150959
0.148985
0.146331
0.14322
0.139668
0.135581
0.131061
0.126201
0.121079
0.115557
0.109816
0.103928
0.0978989
0.091561
0.0848684
0.0781071
0.0710671
0.063752
0.0564596
0.0489569
0.0412766
0.0335015
0.0254193
0.0169578
0.00829086
0.00221186
1.53456
1.38946
1.34446
1.29588
1.24699
1.20475
1.16352
1.12279
1.08231
1.04152
1.00014
0.957915
0.914754
0.870642
0.825512
0.779471
0.732636
0.685105
0.637227
0.589083
0.541138
0.493619
0.446928
0.401505
0.357721
0.316089
0.27694
0.240768
0.207788
0.177978
0.151585
0.128644
0.109297
0.093457
0.0809871
0.0716999
0.0653232
0.0615799
0.0601655
0.0607784
0.0630794
0.066768
0.0715458
0.0771452
0.0833173
0.0898543
0.096559
0.103265
0.109829
0.116143
0.12209
0.127607
0.132635
0.137134
0.141104
0.144622
0.147662
0.150217
0.152153
0.153244
0.153639
0.153528
0.152937
0.151878
0.150344
0.148279
0.14569
0.142654
0.139129
0.135135
0.130737
0.125974
0.120889
0.115466
0.1098
0.103907
0.0978194
0.0914378
0.0848099
0.0780182
0.0709915
0.0637522
0.0564244
0.0489237
0.0412641
0.0334333
0.0253223
0.0168735
0.00823227
0.00217187
1.51197
1.36977
1.32704
1.28058
1.23423
1.1937
1.15381
1.11397
1.07399
1.03346
0.992063
0.94965
0.906133
0.861437
0.815675
0.768767
0.721036
0.672451
0.623398
0.574076
0.524814
0.476031
0.428117
0.381485
0.336618
0.293936
0.253942
0.216933
0.183378
0.153242
0.126869
0.104204
0.0853792
0.0702756
0.058693
0.0504882
0.0452732
0.0428066
0.0426951
0.044609
0.0481971
0.0531481
0.0591392
0.0659019
0.0731745
0.0807457
0.0884055
0.0959923
0.103374
0.110424
0.117066
0.123213
0.128823
0.13386
0.138306
0.142172
0.145477
0.148198
0.150269
0.151621
0.152305
0.152413
0.151978
0.151011
0.149533
0.147539
0.145026
0.142041
0.138592
0.134686
0.130374
0.125689
0.120667
0.115321
0.109693
0.103813
0.0976908
0.0913195
0.0847127
0.0779169
0.0709145
0.0637235
0.0564002
0.0488952
0.0412561
0.0334598
0.0254057
0.0169704
0.00824796
0.00215347
1.49401
1.35369
1.31245
1.26716
1.22225
1.1828
1.14371
1.10451
1.06488
1.02442
0.982938
0.940172
0.896153
0.850778
0.80412
0.756224
0.707333
0.657438
0.607066
0.556215
0.505522
0.455188
0.405714
0.357654
0.311382
0.267533
0.226425
0.188647
0.154435
0.124026
0.0976805
0.0753508
0.0571617
0.0429038
0.0324314
0.0254796
0.0216542
0.0206795
0.0220904
0.0255651
0.0307028
0.0371534
0.0445948
0.0527277
0.0612844
0.0700585
0.0788424
0.0874683
0.095796
0.103718
0.111142
0.118013
0.124265
0.129881
0.134847
0.139159
0.142815
0.145813
0.148127
0.149754
0.150705
0.15104
0.150783
0.149953
0.148586
0.146681
0.144268
0.141363
0.137992
0.134179
0.129945
0.125337
0.120381
0.115095
0.10951
0.103649
0.0975461
0.0911855
0.0846006
0.0778086
0.0708189
0.0636426
0.0563256
0.0488453
0.0412039
0.0333766
0.0253047
0.0168592
0.008216
0.00221476
1.47822
1.33876
1.29845
1.2542
1.21031
1.17159
1.13314
1.09454
1.05506
1.01458
0.972768
0.929591
0.884899
0.838677
0.791055
0.741941
0.691725
0.640365
0.588343
0.53585
0.483314
0.431208
0.379984
0.330227
0.282382
0.237075
0.194813
0.156031
0.121152
0.0904529
0.0641302
0.0422182
0.0247465
0.0115424
0.00236517
-0.00310734
-0.00527798
-0.00453601
-0.00133443
0.0039281
0.010831
0.0190087
0.0280995
0.0377981
0.0478326
0.0579802
0.0680244
0.0778151
0.0872159
0.0961105
0.104422
0.112084
0.11906
0.125319
0.130854
0.135654
0.139735
0.143093
0.145727
0.147651
0.148878
0.149445
0.14939
0.148733
0.147503
0.14573
0.143425
0.140621
0.137342
0.133613
0.129467
0.12493
0.120038
0.114812
0.109269
0.103449
0.0973594
0.091026
0.0844722
0.0777052
0.0707465
0.0636126
0.0563077
0.048831
0.0412261
0.033412
0.0253482
0.0169178
0.00823705
0.0022168
1.46423
1.32527
1.28557
1.24194
1.19876
1.16067
1.12258
1.0841
1.0447
1.00405
0.961932
0.91811
0.872642
0.825441
0.776563
0.726137
0.674326
0.621287
0.567442
0.512986
0.458495
0.40436
0.35109
0.299405
0.249744
0.202847
0.159209
0.119392
0.0838383
0.0527931
0.0266087
0.00516445
-0.0114095
-0.023449
-0.031188
-0.0349842
-0.0353182
-0.0326189
-0.0273994
-0.020112
-0.0112085
-0.00109991
0.00984524
0.021302
0.0329765
0.0446492
0.0560975
0.0671749
0.0777517
0.0877189
0.0970005
0.105544
0.113301
0.12026
0.12642
0.131764
0.136312
0.140078
0.143073
0.145325
0.146845
0.147673
0.147839
0.147374
0.146318
0.144682
0.142507
0.139813
0.136638
0.133001
0.128937
0.124479
0.119654
0.114484
0.108991
0.10321
0.0971533
0.0908512
0.084308
0.0775622
0.0706075
0.0634617
0.0562113
0.0487335
0.0411144
0.033396
0.0253863
0.0169821
0.008217
0.00209812
1.45157
1.31285
1.27359
1.2304
1.18765
1.14989
1.11198
1.07355
1.03402
0.993069
0.950352
0.905851
0.85944
0.811086
0.760928
0.708925
0.655425
0.600507
0.544593
0.488034
0.431243
0.374851
0.319364
0.265505
0.213893
0.165187
0.120093
0.0791263
0.0427829
0.0114716
-0.0146431
-0.0354734
-0.0511033
-0.0617869
-0.0678288
-0.0697564
-0.068014
-0.0631501
-0.0557013
-0.046194
-0.0350971
-0.0228624
-0.00989451
0.00346884
0.016941
0.0302638
0.0432407
0.0557228
0.0675633
0.0786795
0.0890047
0.0984804
0.107081
0.11479
0.121613
0.127539
0.132605
0.136828
0.140222
0.142822
0.14465
0.145753
0.146165
0.14591
0.145026
0.143553
0.141517
0.138949
0.135878
0.132345
0.12837
0.123988
0.119232
0.11412
0.108678
0.102949
0.0969291
0.0906567
0.0841517
0.0774316
0.07052
0.0634266
0.0561526
0.0487006
0.0411356
0.0333634
0.0252642
0.0168541
0.00824884
0.00224849
1.44001
1.30147
1.26239
1.21947
1.17696
1.13934
1.10153
1.06299
1.02319
0.981736
0.93841
0.893042
0.845539
0.795957
0.744251
0.690583
0.635174
0.57817
0.520065
0.461094
0.401934
0.343065
0.285116
0.228948
0.175086
0.124528
0.0777508
0.0356035
-0.00151678
-0.033137
-0.0590214
-0.0792015
-0.0936807
-0.102893
-0.107158
-0.107003
-0.103013
-0.0957726
-0.0859076
-0.0739665
-0.0605054
-0.0459925
-0.0308424
-0.0154295
-5.43629e-05
0.0150427
0.0296441
0.0436002
0.056789
0.0691241
0.0805471
0.0910128
0.100501
0.109002
0.116522
0.123072
0.12868
0.133383
0.137198
0.140174
0.142334
0.143726
0.144393
0.144354
0.14367
0.14236
0.140475
0.138041
0.135092
0.131654
0.127772
0.123472
0.118782
0.113735
0.108349
0.102662
0.0966827
0.090447
0.0839716
0.0772763
0.0703787
0.063296
0.0560435
0.0486407
0.041067
0.033272
0.025224
0.0168379
0.00823216
0.00224525
1.42938
1.29089
1.25198
1.20916
1.16673
1.12902
1.09113
1.05253
1.01228
0.970222
0.926119
0.879745
0.831125
0.780104
0.726821
0.671347
0.613891
0.554682
0.494154
0.432695
0.370847
0.309352
0.248772
0.190078
0.133951
0.0812738
0.0328808
-0.0105933
-0.0485141
-0.0804039
-0.106097
-0.12547
-0.138779
-0.146308
-0.148549
-0.146158
-0.139729
-0.129969
-0.117517
-0.103026
-0.0870591
-0.0701256
-0.0526948
-0.0351272
-0.0177417
-0.000798086
0.0155031
0.0310157
0.0456114
0.0592155
0.0717772
0.0832595
0.0936731
0.102989
0.111236
0.118429
0.124611
0.129808
0.134067
0.137427
0.139927
0.14162
0.142544
0.14274
0.142257
0.141126
0.139398
0.137099
0.134264
0.130939
0.127147
0.12293
0.118319
0.113333
0.108002
0.102359
0.0964255
0.0902308
0.0837866
0.0771174
0.0702394
0.0631847
0.0559017
0.0484905
0.0410894
0.0333494
0.0252376
0.0168521
0.00821288
0.00222114
1.41959
1.28111
1.24219
1.19947
1.157
1.11915
1.08109
1.04208
1.0014
0.95865
0.913681
0.866314
0.816354
0.763889
0.708853
0.651421
0.591808
0.530263
0.467195
0.403046
0.338504
0.27415
0.210873
0.149504
0.0909148
0.036143
-0.0140878
-0.0588372
-0.0975697
-0.129714
-0.155039
-0.173584
-0.185488
-0.191289
-0.191447
-0.186665
-0.177689
-0.165251
-0.150099
-0.132919
-0.114338
-0.0949081
-0.0750959
-0.0553003
-0.0358496
-0.0169974
0.00105225
0.0181476
0.0341859
0.0490893
0.0628208
0.0753515
0.0866939
0.0968513
0.105838
0.11369
0.120448
0.126163
0.13087
0.134627
0.137476
0.139472
0.140665
0.141099
0.140819
0.139867
0.138298
0.136135
0.133426
0.130208
0.126513
0.122381
0.117836
0.112922
0.10765
0.102053
0.0961611
0.0899979
0.0835965
0.0769604
0.0701152
0.0630829
0.0558775
0.0485138
0.0409975
0.0332188
0.0251985
0.0168605
0.00819193
0.00220767
1.41052
1.27203
1.23309
1.19031
1.14768
1.10967
1.07133
1.032
0.990639
0.947173
0.901294
0.852733
0.801494
0.747434
0.69063
0.631193
0.569366
0.505315
0.439664
0.372723
0.305251
0.238074
0.171857
0.107799
0.0467118
-0.0102737
-0.0622902
-0.108395
-0.147892
-0.180237
-0.205195
-0.222792
-0.233303
-0.237186
-0.235103
-0.227842
-0.216199
-0.201012
-0.183082
-0.163158
-0.141909
-0.119923
-0.0976956
-0.0756382
-0.0540909
-0.0333026
-0.0134905
0.00521719
0.0227145
0.038928
0.0538359
0.0674227
0.0796979
0.090687
0.100418
0.108932
0.116276
0.122502
0.127657
0.13181
0.135008
0.137318
0.138778
0.139445
0.139374
0.13861
0.137197
0.135175
0.132587
0.129477
0.125878
0.121832
0.117362
0.112503
0.107289
0.101743
0.0958941
0.089775
0.0833998
0.0767896
0.0699746
0.0629537
0.0557702
0.0484028
0.0408987
0.0331829
0.0251469
0.016808
0.00820983
0.00223528
1.40216
1.26366
1.22465
1.18176
1.139
1.10064
1.06195
1.02215
0.98023
0.935936
0.889096
0.83938
0.786735
0.731051
0.672412
0.610895
0.54673
0.480257
0.41184
0.34211
0.271759
0.201539
0.132508
0.0656197
0.00200761
-0.0572059
-0.111023
-0.158434
-0.198658
-0.231131
-0.255618
-0.272208
-0.281162
-0.283143
-0.278777
-0.26897
-0.25463
-0.236654
-0.215912
-0.19323
-0.1693
-0.144753
-0.120112
-0.0957976
-0.0721576
-0.0494483
-0.0278717
-0.00756947
0.0113609
0.0288765
0.0449482
0.0595756
0.072781
0.0845958
0.0950625
0.10423
0.112152
0.118889
0.124494
0.129038
0.132584
0.135189
0.136915
0.137817
0.137949
0.137359
0.136107
0.134222
0.131756
0.128755
0.125249
0.121281
0.116884
0.112095
0.106935
0.101436
0.0956299
0.0895421
0.0832084
0.0766312
0.0698405
0.062857
0.0556982
0.0483725
0.0408782
0.0331544
0.025169
0.0168474
0.00816939
0.0021667
1.39451
1.25595
1.21683
1.17384
1.13086
1.09237
1.05321
1.01269
0.970118
0.925075
0.877233
0.826338
0.772288
0.714994
0.654514
0.590928
0.524486
0.455455
0.384384
0.311798
0.238469
0.165379
0.0933609
0.0237814
-0.0423658
-0.103776
-0.159365
-0.208
-0.248889
-0.281437
-0.305409
-0.320951
-0.328367
-0.328348
-0.32168
-0.309337
-0.292295
-0.271548
-0.248032
-0.222615
-0.196045
-0.168986
-0.141971
-0.115443
-0.0897553
-0.065166
-0.0418714
-0.0200109
0.000334231
0.0191134
0.0363186
0.0519607
0.0660723
0.0786897
0.0898695
0.0996666
0.108144
0.115372
0.121411
0.126337
0.130219
0.133121
0.13511
0.136236
0.136566
0.136158
0.135051
0.133304
0.130958
0.128054
0.124639
0.120755
0.116423
0.11169
0.106583
0.101134
0.0953726
0.0893238
0.0830145
0.0764671
0.0696976
0.0627196
0.0555724
0.0482493
0.0407775
0.0330816
0.0251727
0.0168751
0.00814148
0.00215007
1.38754
1.24895
1.2097
1.16658
1.12337
1.08456
1.04493
1.00387
0.960647
0.914784
0.865965
0.813852
0.75844
0.699516
0.637216
0.571562
0.502842
0.431382
0.357623
0.282287
0.206098
0.130062
0.0552796
-0.0170349
-0.085616
-0.149117
-0.20639
-0.256179
-0.297652
-0.330189
-0.353617
-0.368031
-0.373863
-0.3719
-0.362949
-0.348124
-0.328461
-0.305028
-0.278825
-0.250776
-0.221668
-0.192178
-0.16289
-0.134235
-0.106584
-0.0801896
-0.0552472
-0.0318935
-0.0102076
0.00978665
0.0280787
0.0446871
0.0596624
0.0730521
0.0849026
0.0953126
0.104322
0.112022
0.118479
0.123771
0.127971
0.131152
0.133384
0.134731
0.135251
0.135005
0.134044
0.132424
0.130191
0.127388
0.124057
0.120243
0.115983
0.111309
0.106253
0.100854
0.0951279
0.0891132
0.0828366
0.0763134
0.0695817
0.0626457
0.0555317
0.0482324
0.0407451
0.0330764
0.0251515
0.0168607
0.00813904
0.00210749
1.38128
1.2426
1.20327
1.15997
1.11649
1.07739
1.03735
0.995742
0.951851
0.905185
0.855366
0.802147
0.745355
0.684924
0.620833
0.553274
0.482327
0.408501
0.33221
0.254159
0.175242
0.0964403
0.0189265
-0.0558751
-0.126857
-0.192306
-0.251145
-0.301965
-0.343914
-0.376409
-0.399192
-0.412564
-0.416852
-0.412997
-0.401878
-0.384665
-0.362505
-0.336517
-0.307768
-0.277227
-0.245716
-0.213945
-0.182507
-0.151858
-0.122355
-0.0942681
-0.0677831
-0.0430293
-0.0200666
0.0010597
0.0203701
0.0378925
0.0536755
0.067776
0.0802648
0.0912322
0.100747
0.108886
0.11573
0.121366
0.125864
0.12931
0.131775
0.13332
0.134021
0.133935
0.133109
0.131609
0.129478
0.126765
0.123516
0.11977
0.115568
0.11095
0.105944
0.100579
0.0948925
0.0889081
0.0826588
0.0761578
0.0694325
0.0624726
0.0553542
0.0481304
0.0406928
0.0330122
0.0250839
0.0168621
0.00815299
0.00208366
1.37574
1.23699
1.1975
1.15408
1.11037
1.07089
1.0305
0.988428
0.943862
0.896447
0.845695
0.791378
0.733327
0.67141
0.605696
0.536234
0.463273
0.387234
0.308529
0.228025
0.146502
0.0650945
-0.0148739
-0.0921235
-0.165145
-0.232495
-0.292652
-0.344381
-0.38675
-0.419102
-0.441334
-0.453574
-0.456418
-0.45075
-0.437604
-0.41819
-0.393722
-0.365385
-0.334299
-0.301469
-0.267753
-0.23389
-0.200481
-0.167997
-0.136795
-0.107155
-0.0792556
-0.0532108
-0.0290989
-0.0069263
0.0133135
0.0316648
0.0481894
0.0629529
0.0760167
0.0875052
0.0974754
0.106019
0.113222
0.119167
0.123946
0.127626
0.130303
0.132036
0.132897
0.13295
0.132251
0.130858
0.128826
0.126193
0.123018
0.119337
0.115195
0.110623
0.105659
0.100337
0.0946851
0.0887336
0.0825079
0.0760311
0.0693429
0.0624455
0.0553622
0.0480919
0.040618
0.0329637
0.0249729
0.0166867
0.00815044
0.00220601
1.37091
1.23212
1.19253
1.14897
1.10498
1.06523
1.02445
0.981947
0.936793
0.888624
0.837045
0.781733
0.722546
0.659326
0.592092
0.520967
0.446137
0.368025
0.287193
0.204363
0.120549
0.0367941
-0.0454487
-0.124815
-0.199813
-0.268648
-0.330096
-0.382561
-0.42523
-0.457432
-0.479032
-0.490306
-0.49182
-0.484535
-0.469541
-0.44814
-0.421596
-0.391143
-0.357966
-0.323086
-0.287399
-0.251665
-0.216501
-0.182375
-0.149666
-0.118641
-0.0894765
-0.0622893
-0.0371329
-0.0140285
0.0070442
0.0261324
0.0433105
0.0586524
0.0722457
0.0841824
0.0945663
0.103468
0.110987
0.117213
0.122231
0.12613
0.128995
0.13089
0.131898
0.132078
0.131488
0.130194
0.128241
0.125689
0.122577
0.118953
0.114859
0.11033
0.105404
0.100112
0.0944959
0.0885611
0.082358
0.0759067
0.0692193
0.0623241
0.0552376
0.0479684
0.040543
0.0328912
0.0249056
0.0166626
0.00814117
0.00222266
1.36687
1.22802
1.18835
1.14461
1.10048
1.06046
1.01932
0.976356
0.930682
0.881949
0.829593
0.77343
0.713203
0.648789
0.580265
0.507625
0.431171
0.351336
0.268579
0.183789
0.0978979
0.0121041
-0.0720652
-0.153359
-0.229922
-0.300184
-0.36257
-0.415637
-0.458548
-0.490556
-0.51165
-0.522013
-0.522311
-0.513607
-0.497017
-0.4739
-0.44557
-0.413308
-0.378325
-0.341681
-0.304302
-0.266966
-0.230278
-0.194751
-0.160741
-0.128519
-0.098268
-0.0700948
-0.0440564
-0.0201542
0.0016331
0.0213643
0.0391118
0.0549579
0.0689958
0.0813322
0.0920589
0.101274
0.109065
0.115532
0.120765
0.124841
0.127874
0.12991
0.131036
0.131328
0.130835
0.129624
0.12775
0.125254
0.122197
0.118622
0.114572
0.11008
0.10519
0.0999317
0.0943332
0.0884292
0.0822423
0.0758067
0.0691516
0.062277
0.0552182
0.047972
0.0405298
0.0328914
0.0248982
0.0166344
0.00812472
0.00222007
1.3636
1.22472
1.18495
1.14113
1.09681
1.05661
1.01514
0.971756
0.925708
0.876402
0.823485
0.766557
0.705509
0.640158
0.570498
0.496661
0.418852
0.337448
0.253155
0.16667
0.079099
-0.00839556
-0.0941949
-0.17701
-0.254945
-0.326228
-0.389405
-0.442963
-0.486
-0.517855
-0.538446
-0.548065
-0.547414
-0.537507
-0.519599
-0.495058
-0.465252
-0.431494
-0.395032
-0.356948
-0.318178
-0.279516
-0.241596
-0.204902
-0.169825
-0.13663
-0.105485
-0.0765072
-0.0497348
-0.0251774
-0.0027921
0.0174591
0.0356704
0.0519289
0.0663377
0.0789931
0.0900086
0.0994773
0.10749
0.114152
0.119552
0.123788
0.126944
0.129101
0.130332
0.13071
0.130293
0.129151
0.12733
0.124894
0.121884
0.118348
0.114335
0.109873
0.105009
0.0997703
0.094199
0.0883063
0.0821384
0.0757222
0.0690609
0.0621959
0.0551364
0.0478759
0.0404562
0.0328114
0.0248506
0.0166174
0.00810171
0.00222361
1.36115
1.22222
1.18238
1.13849
1.09398
1.05365
1.01202
0.968336
0.921918
0.872249
0.818768
0.761337
0.699577
0.633448
0.562966
0.488138
0.409265
0.326809
0.241227
0.153527
0.0646153
-0.0241994
-0.11123
-0.195297
-0.274293
-0.34631
-0.409988
-0.463865
-0.50706
-0.538767
-0.55902
-0.568039
-0.566559
-0.555777
-0.536851
-0.51123
-0.480298
-0.445405
-0.407806
-0.368616
-0.328787
-0.289123
-0.250244
-0.212677
-0.176782
-0.142832
-0.111005
-0.081407
-0.0540767
-0.0290148
-0.0061853
0.0144725
0.0330334
0.04961
0.0642934
0.077203
0.088432
0.0981
0.106283
0.113096
0.118633
0.12298
0.126244
0.128484
0.129794
0.130239
0.129886
0.128792
0.127022
0.124622
0.121644
0.118144
0.114151
0.109719
0.104872
0.0996531
0.0940932
0.088225
0.0820688
0.0756594
0.0690197
0.0621603
0.0551235
0.0478802
0.0404678
0.0328387
0.0248626
0.0166148
0.00810086
0.00222139
1.35951
1.22054
1.18065
1.13668
1.09215
1.05161
1.00979
0.966047
0.919379
0.869371
0.815632
0.757747
0.695607
0.628968
0.557876
0.482418
0.402822
0.319514
0.23312
0.144524
0.0546984
-0.0349615
-0.122905
-0.207759
-0.287646
-0.359895
-0.423755
-0.477968
-0.521294
-0.552917
-0.57288
-0.581513
-0.57955
-0.568121
-0.548514
-0.522152
-0.490459
-0.454792
-0.416435
-0.376502
-0.335954
-0.295605
-0.256092
-0.217925
-0.181477
-0.147026
-0.114742
-0.0847233
-0.0570132
-0.0316141
-0.00848387
0.0124417
0.0312488
0.0480427
0.0629219
0.0759972
0.08738
0.0971714
0.105474
0.112383
0.118011
0.122439
0.125765
0.12807
0.129429
0.129921
0.129606
0.128548
0.126807
0.124435
0.121484
0.118001
0.114035
0.109613
0.104779
0.0995762
0.0940251
0.0881657
0.0820109
0.0756131
0.0689684
0.0621196
0.0550674
0.0478208
0.0404185
0.0327728
0.0248436
0.0166572
0.0080941
0.00214527
1.35868
1.2197
1.1798
1.13578
1.09117
1.05055
1.00874
0.964951
0.918122
0.867984
0.814008
0.755974
0.693544
0.626645
0.555272
0.479459
0.399528
0.315859
0.229042
0.140013
0.0497312
-0.0404068
-0.128844
-0.214197
-0.294733
-0.367143
-0.430491
-0.484705
-0.528373
-0.559993
-0.579881
-0.588309
-0.586059
-0.57433
-0.554387
-0.527653
-0.495574
-0.459523
-0.420783
-0.380471
-0.339563
-0.298875
-0.259038
-0.220571
-0.183848
-0.149144
-0.116635
-0.0864027
-0.0584787
-0.0329
-0.00963351
0.0114267
0.0303499
0.04725
0.0622245
0.0753806
0.086836
0.0966992
0.105059
0.112022
0.117693
0.12216
0.125523
0.127855
0.129245
0.129759
0.129467
0.128423
0.126704
0.124344
0.121401
0.117933
0.113967
0.109558
0.10473
0.09953
0.0939876
0.0881318
0.081992
0.0755974
0.0689652
0.0621157
0.055079
0.047839
0.0404311
0.0328019
0.0248213
0.0165866
0.00810894
0.00222344
1.35869
1.2197
1.1798
1.13577
1.09118
1.05052
1.00874
0.964962
0.918142
0.867979
0.814033
0.755985
0.693552
0.62669
0.555285
0.479491
0.399553
0.315846
0.229043
0.14001
0.0497262
-0.0404032
-0.128829
-0.214162
-0.29467
-0.367084
-0.430516
-0.484725
-0.528385
-0.559987
-0.57985
-0.588287
-0.586046
-0.574316
-0.554374
-0.527637
-0.495564
-0.459515
-0.420779
-0.380463
-0.339556
-0.298866
-0.25903
-0.220567
-0.183838
-0.149134
-0.116619
-0.0863906
-0.0584915
-0.0329231
-0.0096433
0.0114213
0.0303471
0.0472459
0.0622241
0.0753763
0.0868345
0.0966966
0.105056
0.112018
0.117695
0.12216
0.125519
0.127851
0.129236
0.129755
0.129457
0.128419
0.126695
0.124338
0.121399
0.117931
0.113969
0.109553
0.104729
0.0995287
0.0939892
0.0881305
0.0819884
0.0755946
0.0689542
0.0621061
0.0550621
0.0478121
0.0404068
0.0327644
0.0248179
0.016604
0.00809085
0.00220756
1.35954
1.22057
1.18068
1.13671
1.09215
1.05162
1.00982
0.966095
0.919417
0.869412
0.815654
0.757767
0.695629
0.628939
0.557893
0.482409
0.402824
0.319571
0.233166
0.144585
0.0547525
-0.0349113
-0.122859
-0.207728
-0.287609
-0.359897
-0.423713
-0.477961
-0.52125
-0.552876
-0.572859
-0.581476
-0.579511
-0.568082
-0.548478
-0.522115
-0.490419
-0.454764
-0.416408
-0.376473
-0.335932
-0.295583
-0.256077
-0.217912
-0.181468
-0.147017
-0.114731
-0.0847151
-0.0570074
-0.0316081
-0.00847545
0.0124502
0.0312496
0.0480391
0.0629138
0.0759836
0.0873672
0.0971617
0.105464
0.112374
0.118
0.122429
0.125752
0.128057
0.129421
0.12991
0.129598
0.128536
0.1268
0.124429
0.121476
0.117998
0.114022
0.109605
0.104772
0.099566
0.0940203
0.0881569
0.0820132
0.0756129
0.0689823
0.0621317
0.0550925
0.0478583
0.0404427
0.0328096
0.0248359
0.0165645
0.00809875
0.00223882
1.36119
1.22227
1.18243
1.13852
1.09403
1.0537
1.01202
0.96838
0.921964
0.872276
0.818832
0.761375
0.699616
0.633526
0.563001
0.488184
0.40934
0.326805
0.241271
0.153553
0.0646347
-0.0241518
-0.111203
-0.195214
-0.274251
-0.346219
-0.409916
-0.463816
-0.507006
-0.53873
-0.55893
-0.567971
-0.566495
-0.555717
-0.536803
-0.511174
-0.480246
-0.445355
-0.407768
-0.368577
-0.32875
-0.289087
-0.250213
-0.212652
-0.176758
-0.142813
-0.110994
-0.0813961
-0.0540743
-0.0290109
-0.00618038
0.0144717
0.033033
0.0496073
0.0642935
0.0771965
0.0884287
0.0980929
0.106279
0.113089
0.118627
0.122976
0.126233
0.128475
0.129782
0.130226
0.129871
0.128779
0.127007
0.124611
0.121638
0.118134
0.114143
0.109705
0.104865
0.0996438
0.0940866
0.0882183
0.0820655
0.075657
0.0690113
0.062154
0.055103
0.0478482
0.0404434
0.0327986
0.0249114
0.0166993
0.00804979
0.00211955
1.36368
1.22479
1.18501
1.14121
1.09687
1.05669
1.01522
0.971832
0.925802
0.876487
0.823564
0.766634
0.705595
0.640196
0.570563
0.496715
0.418885
0.337558
0.253213
0.166768
0.0791614
-0.00831406
-0.0941196
-0.176945
-0.254852
-0.32617
-0.389308
-0.442909
-0.485926
-0.517797
-0.538375
-0.547985
-0.547336
-0.537423
-0.519524
-0.49498
-0.465171
-0.431429
-0.394969
-0.356887
-0.318127
-0.279471
-0.241556
-0.204866
-0.169796
-0.136605
-0.105461
-0.0764902
-0.0497185
-0.0251665
-0.00278772
0.0174669
0.0356706
0.0519269
0.0663354
0.0789869
0.0900026
0.0994712
0.107483
0.114143
0.119545
0.123781
0.126935
0.129091
0.13032
0.130695
0.130282
0.129134
0.127319
0.124883
0.121873
0.118339
0.114321
0.109863
0.105001
0.099763
0.0941878
0.0883017
0.0821388
0.0757178
0.0690685
0.0622024
0.0551557
0.0479045
0.0404852
0.0328594
0.024915
0.0166764
0.00809472
0.00217386
1.36696
1.22812
1.18842
1.14472
1.10056
1.06054
1.01942
0.976483
0.930817
0.882024
0.82971
0.77352
0.713298
0.64891
0.580364
0.507727
0.431286
0.351398
0.268673
0.183866
0.0979941
0.0121997
-0.0719782
-0.153238
-0.229834
-0.30005
-0.362459
-0.415561
-0.458424
-0.490482
-0.511514
-0.521901
-0.522198
-0.513508
-0.496934
-0.473807
-0.445479
-0.413225
-0.378248
-0.341612
-0.304238
-0.266909
-0.230226
-0.194706
-0.160702
-0.128488
-0.0982463
-0.0700776
-0.0440422
-0.0201463
0.00164232
0.0213664
0.0391077
0.0549537
0.0689946
0.0813255
0.0920531
0.101269
0.109061
0.115524
0.120749
0.124837
0.127861
0.1299
0.131025
0.131307
0.130813
0.129602
0.127727
0.125238
0.122185
0.11861
0.114557
0.110064
0.105175
0.0999117
0.0943166
0.0884138
0.0822364
0.0758074
0.0691367
0.0622687
0.0552005
0.0479396
0.0405132
0.0328557
0.0249008
0.0166639
0.00809696
0.00216787
1.37104
1.23224
1.19264
1.14909
1.1051
1.06535
1.02457
0.982075
0.936948
0.888762
0.837183
0.781864
0.722674
0.659445
0.592193
0.521066
0.44624
0.368158
0.287309
0.204499
0.120647
0.0369075
-0.0453158
-0.124726
-0.199639
-0.26859
-0.329928
-0.382452
-0.425097
-0.457305
-0.478925
-0.490162
-0.491711
-0.484386
-0.469414
-0.448011
-0.421466
-0.391038
-0.357866
-0.322997
-0.287318
-0.251595
-0.216438
-0.182319
-0.14962
-0.118602
-0.0894437
-0.0622662
-0.0371178
-0.0140258
0.00703959
0.026134
0.0433056
0.0586439
0.0722436
0.0841818
0.0945601
0.103463
0.110975
0.117202
0.122218
0.126116
0.12898
0.130876
0.13188
0.132057
0.131467
0.130168
0.128222
0.125668
0.122557
0.118932
0.114838
0.110317
0.105392
0.100105
0.0944775
0.0885569
0.0823578
0.0759081
0.0692244
0.062338
0.0552588
0.0479862
0.0405436
0.0328871
0.0248944
0.01661
0.0081259
0.00225062
1.37588
1.23714
1.19763
1.15423
1.11048
1.07103
1.03065
0.988578
0.944069
0.896567
0.845856
0.791521
0.733467
0.67157
0.605856
0.536381
0.463447
0.387343
0.308703
0.228134
0.146647
0.0652478
-0.0147693
-0.0919405
-0.165048
-0.232313
-0.292507
-0.344254
-0.386571
-0.418947
-0.441149
-0.453412
-0.456264
-0.450614
-0.437484
-0.418071
-0.393601
-0.365276
-0.334199
-0.301374
-0.267663
-0.233817
-0.200408
-0.167932
-0.136743
-0.107112
-0.079222
-0.0531863
-0.0290712
-0.00690573
0.0133278
0.0316702
0.0481861
0.0629388
0.0760077
0.0874923
0.0974641
0.106008
0.11321
0.119155
0.123926
0.127616
0.130288
0.13202
0.132879
0.132926
0.132224
0.130836
0.128798
0.126169
0.122994
0.119316
0.115173
0.110602
0.105639
0.100313
0.0946644
0.0887115
0.0825004
0.0760285
0.0693269
0.0624303
0.0553414
0.0480605
0.0406117
0.0329359
0.0249583
0.0166849
0.00812698
0.00220513
1.38148
1.24276
1.20341
1.16016
1.11668
1.07756
1.03748
0.995932
0.952059
0.905366
0.855564
0.802295
0.745555
0.685083
0.621011
0.553403
0.482494
0.408645
0.332376
0.254316
0.175408
0.0965771
0.0191019
-0.0557382
-0.126648
-0.192181
-0.25093
-0.301807
-0.343753
-0.376235
-0.399057
-0.412374
-0.416705
-0.412808
-0.401707
-0.384503
-0.362338
-0.336374
-0.307641
-0.277108
-0.24561
-0.213853
-0.18243
-0.151781
-0.122296
-0.0942157
-0.0677452
-0.0429975
-0.0200472
0.00107194
0.0203724
0.0378923
0.0536706
0.0677679
0.0802564
0.0912235
0.100737
0.108873
0.115717
0.12135
0.12585
0.129289
0.131756
0.133298
0.133998
0.133905
0.133082
0.131575
0.12945
0.126737
0.123486
0.119742
0.11554
0.110929
0.105923
0.100563
0.0948767
0.0889006
0.0826564
0.0761646
0.069443
0.0625213
0.0554066
0.0481118
0.0406409
0.0329719
0.0250337
0.0167918
0.00812949
0.00211968
1.38774
1.24914
1.20988
1.16679
1.12352
1.08475
1.04517
1.0041
0.960882
0.914997
0.866137
0.814079
0.758595
0.699736
0.637413
0.571756
0.503067
0.431551
0.35783
0.282472
0.206263
0.130266
0.0554494
-0.0168428
-0.0854198
-0.148958
-0.206189
-0.256001
-0.297444
-0.329987
-0.353394
-0.367823
-0.373688
-0.371712
-0.362792
-0.34797
-0.328313
-0.304893
-0.278702
-0.250659
-0.221557
-0.19209
-0.162802
-0.134162
-0.106516
-0.0801368
-0.0552106
-0.0318622
-0.0101822
0.00980757
0.0280881
0.0446943
0.0596628
0.0730431
0.0848944
0.0953005
0.104307
0.112004
0.118463
0.123753
0.127951
0.131134
0.133366
0.134706
0.135228
0.134974
0.134013
0.132395
0.130156
0.127353
0.124026
0.120211
0.115951
0.11128
0.106223
0.100828
0.0951065
0.089097
0.0828261
0.0763084
0.0695673
0.0626309
0.0555086
0.0481947
0.0407217
0.0330235
0.0250098
0.0167217
0.00816653
0.0022222
1.39474
1.25618
1.21707
1.17406
1.13111
1.09247
1.05338
1.01301
0.970408
0.925326
0.877458
0.826561
0.772518
0.715219
0.65471
0.591135
0.524649
0.455672
0.384588
0.311985
0.238712
0.165529
0.0935984
0.0239519
-0.0421319
-0.103602
-0.159112
-0.207808
-0.248678
-0.281218
-0.30523
-0.320732
-0.32817
-0.328144
-0.321491
-0.30916
-0.29212
-0.271386
-0.247886
-0.22248
-0.195925
-0.168877
-0.141878
-0.115358
-0.089686
-0.0651053
-0.0418278
-0.0199725
0.000359729
0.0191287
0.0363274
0.0519607
0.0660709
0.0786814
0.0898576
0.0996543
0.108132
0.115355
0.121393
0.126319
0.1302
0.133097
0.135083
0.136209
0.136538
0.136121
0.135016
0.13326