/*--------------------------------*- C++ -*----------------------------------*\
  =========                 |
  \\      /  F ield         | OpenFOAM: The Open Source CFD Toolbox
   \\    /   O peration     | Website:  https://openfoam.org
    \\  /    A nd           | Version:  11
     \\/     M anipulation  |
\*---------------------------------------------------------------------------*/
FoamFile
{
    format      ascii;
    class       volScalarField;
    location    "0.082";
    object      k;
}
// * * * * * * * * * * * * * * * * * * * * * * * * * * * * * * * * * * * * * //

dimensions      [0 2 -2 0 0 0 0];

internalField   nonuniform List<scalar> 
287084
(
0.381453
0.394034
0.407442
0.419956
0.429491
0.43525
0.437618
0.437981
0.437956
0.437961
0.437955
0.43786
0.437929
0.438116
0.438071
0.43809
0.438147
0.438132
0.438076
0.438047
0.438013
0.437937
0.438011
0.438314
0.438316
0.438284
0.438244
0.438122
0.438138
0.438219
0.438295
0.438297
0.438158
0.438212
0.438226
0.438191
0.438166
0.438113
0.438065
0.438006
0.437876
0.437825
0.437725
0.437684
0.437607
0.437571
0.437531
0.437471
0.437455
0.437375
0.437249
0.437333
0.437562
0.43752
0.437521
0.437474
0.437471
0.437446
0.437285
0.437244
0.437376
0.437443
0.437406
0.437277
0.437388
0.437666
0.437671
0.437625
0.437453
0.437505
0.437592
0.437584
0.437583
0.437422
0.437492
0.437651
0.437552
0.437629
0.437667
0.437659
0.437656
0.437463
0.437461
0.4377
0.437791
0.437777
0.43777
0.437734
0.437662
0.437413
0.381477
0.394024
0.407252
0.419711
0.429315
0.435259
0.437784
0.438159
0.438077
0.438234
0.438474
0.438352
0.438436
0.438493
0.438485
0.438482
0.43837
0.438245
0.438264
0.43829
0.438181
0.438153
0.43842
0.438711
0.438644
0.438712
0.43874
0.438685
0.438683
0.438665
0.438623
0.438354
0.438331
0.438395
0.438241
0.438298
0.438326
0.438283
0.43822
0.438089
0.438158
0.438205
0.438174
0.438151
0.438061
0.438013
0.437874
0.437932
0.438083
0.438085
0.438083
0.437987
0.437984
0.437946
0.437878
0.437798
0.437692
0.437689
0.437692
0.43766
0.437567
0.437545
0.437779
0.437878
0.43785
0.437811
0.437706
0.437834
0.43795
0.437917
0.437802
0.437791
0.43795
0.43794
0.437976
0.438032
0.438005
0.437984
0.437968
0.437795
0.437845
0.437919
0.4379
0.437907
0.437839
0.437857
0.43784
0.437874
0.437836
0.437672
0.381481
0.394017
0.407218
0.419736
0.429233
0.435118
0.437894
0.438482
0.438468
0.438502
0.438462
0.438319
0.438371
0.438433
0.438362
0.438361
0.438288
0.438431
0.438571
0.43857
0.438569
0.438462
0.438411
0.438616
0.438747
0.438709
0.438688
0.438693
0.4387
0.438607
0.438604
0.4386
0.438611
0.438597
0.43861
0.438564
0.438531
0.438491
0.438338
0.43825
0.438184
0.437981
0.438021
0.438112
0.438104
0.438099
0.437965
0.437883
0.438006
0.438107
0.43805
0.438051
0.43806
0.438059
0.437971
0.437936
0.437886
0.437726
0.437724
0.43773
0.437595
0.437682
0.437798
0.437751
0.437746
0.437658
0.437833
0.438033
0.437954
0.437985
0.437993
0.437973
0.43797
0.437944
0.437908
0.437843
0.437803
0.437684
0.437727
0.437773
0.437704
0.437633
0.437698
0.437867
0.437748
0.437844
0.437923
0.437913
0.437909
0.437666
0.381461
0.394008
0.407264
0.419685
0.429147
0.435073
0.437908
0.438533
0.438535
0.438461
0.438472
0.438623
0.438639
0.438601
0.438472
0.438401
0.438423
0.438376
0.438489
0.438612
0.438503
0.438496
0.438485
0.438362
0.438415
0.438497
0.438489
0.438485
0.438269
0.438254
0.438529
0.43861
0.438525
0.438579
0.438595
0.43858
0.438578
0.438541
0.438527
0.438435
0.438389
0.438342
0.438301
0.438248
0.438177
0.437952
0.437969
0.438027
0.438002
0.437986
0.43782
0.437859
0.437916
0.437881
0.43789
0.437864
0.437846
0.437805
0.437684
0.437773
0.437954
0.437898
0.437905
0.4379
0.437854
0.437732
0.437711
0.437685
0.437676
0.437853
0.438004
0.437943
0.437927
0.437895
0.437888
0.437768
0.437809
0.438022
0.437952
0.438013
0.438082
0.438041
0.437901
0.437933
0.438014
0.43799
0.437972
0.437902
0.437849
0.43767
0.381456
0.39401
0.40728
0.4196
0.429196
0.435143
0.437647
0.438498
0.438535
0.438513
0.438507
0.438371
0.438452
0.438508
0.438436
0.438436
0.438429
0.438274
0.438314
0.438403
0.438387
0.438385
0.438251
0.438389
0.438552
0.438478
0.438463
0.438436
0.43839
0.438468
0.438547
0.438443
0.438481
0.43851
0.438486
0.438459
0.438301
0.438211
0.438336
0.438398
0.438342
0.43834
0.438339
0.438337
0.438346
0.438314
0.438297
0.438265
0.438258
0.438202
0.438072
0.438005
0.437962
0.437873
0.437826
0.437785
0.437728
0.437541
0.437579
0.437721
0.437723
0.437723
0.437609
0.43761
0.437601
0.437604
0.437494
0.437567
0.437738
0.437702
0.437699
0.437602
0.43775
0.438029
0.437931
0.438027
0.438089
0.437957
0.437997
0.438058
0.437999
0.438028
0.438033
0.437981
0.437799
0.437751
0.437875
0.437902
0.437858
0.437686
0.381461
0.394004
0.407228
0.419664
0.429287
0.435
0.437431
0.438067
0.438487
0.438489
0.438368
0.438406
0.438425
0.438387
0.43833
0.438195
0.438232
0.438425
0.438425
0.438447
0.438452
0.43841
0.438255
0.438257
0.438379
0.438382
0.438309
0.438349
0.438571
0.438581
0.438537
0.438568
0.438579
0.438534
0.438469
0.438379
0.438314
0.438121
0.438159
0.438259
0.438133
0.438171
0.43822
0.438166
0.438165
0.438141
0.438032
0.437854
0.437863
0.437939
0.437938
0.437937
0.437848
0.437795
0.437867
0.437944
0.437932
0.43793
0.437843
0.437798
0.437802
0.437798
0.437819
0.437828
0.437808
0.437667
0.437744
0.437965
0.437876
0.437964
0.438014
0.437999
0.437995
0.437881
0.437862
0.43775
0.437817
0.437985
0.437884
0.437952
0.43798
0.437932
0.437816
0.437772
0.437852
0.437841
0.437929
0.437966
0.437915
0.437745
0.381447
0.393996
0.407244
0.419642
0.429327
0.434886
0.437585
0.438299
0.43831
0.438293
0.438274
0.438168
0.438127
0.438372
0.43845
0.438423
0.438656
0.43891
0.438853
0.43884
0.438927
0.438964
0.438911
0.438776
0.43871
0.438747
0.438745
0.438757
0.438762
0.438751
0.438685
0.43868
0.43865
0.438447
0.43846
0.438503
0.438486
0.438474
0.438227
0.438245
0.438329
0.438317
0.438303
0.438139
0.438109
0.438102
0.438083
0.438084
0.438076
0.438078
0.438015
0.437797
0.437807
0.437871
0.437855
0.437854
0.437807
0.437796
0.437661
0.437757
0.437877
0.437852
0.43785
0.437816
0.437807
0.437638
0.437699
0.437822
0.437782
0.43778
0.437678
0.437728
0.437812
0.437788
0.437718
0.437781
0.437916
0.437842
0.437835
0.437833
0.437717
0.437703
0.437897
0.437946
0.437922
0.437917
0.437783
0.437835
0.437896
0.437731
0.381466
0.393959
0.407321
0.419671
0.429007
0.43497
0.437947
0.438963
0.439076
0.439036
0.438891
0.43895
0.439046
0.43899
0.439002
0.438961
0.439005
0.439024
0.43898
0.438809
0.438814
0.438923
0.438825
0.438895
0.438976
0.43894
0.438958
0.438965
0.438946
0.438933
0.438873
0.438849
0.438843
0.438807
0.438773
0.438767
0.438726
0.438583
0.438331
0.438377
0.438455
0.438406
0.438401
0.43838
0.43836
0.438171
0.438139
0.438168
0.438138
0.438167
0.438126
0.437992
0.437914
0.438045
0.438116
0.438074
0.437931
0.437974
0.438083
0.438001
0.438059
0.438122
0.438109
0.438083
0.438055
0.438029
0.437931
0.437773
0.437746
0.437666
0.437727
0.43797
0.437979
0.437988
0.437952
0.437814
0.437887
0.438067
0.438058
0.438056
0.43803
0.438023
0.437816
0.437835
0.437976
0.437954
0.437952
0.437969
0.437955
0.437716
0.381458
0.393988
0.407236
0.419702
0.429162
0.43498
0.437683
0.43833
0.438344
0.438306
0.438204
0.438131
0.43839
0.438691
0.438567
0.438651
0.438713
0.438564
0.438642
0.43891
0.438816
0.438915
0.438989
0.43879
0.438842
0.438981
0.438853
0.438921
0.439003
0.43892
0.438971
0.438988
0.438957
0.438933
0.438832
0.438762
0.438667
0.438616
0.438538
0.438372
0.438198
0.438144
0.438113
0.43804
0.438131
0.438227
0.438066
0.438143
0.438257
0.438227
0.438194
0.438149
0.438162
0.438146
0.438113
0.43802
0.437757
0.437751
0.43785
0.437863
0.437863
0.437688
0.437779
0.437921
0.43787
0.437871
0.437881
0.437872
0.437677
0.437693
0.438026
0.438086
0.438012
0.438011
0.438014
0.437997
0.437813
0.437848
0.438072
0.437984
0.438084
0.438161
0.438148
0.438145
0.43805
0.438035
0.437964
0.437948
0.437887
0.437687
0.381509
0.393888
0.407276
0.419725
0.429159
0.434985
0.437592
0.438096
0.438048
0.438016
0.438205
0.438442
0.438453
0.438452
0.438279
0.438321
0.438375
0.438457
0.438579
0.438565
0.438568
0.438453
0.438427
0.43839
0.438511
0.438585
0.43856
0.438486
0.438501
0.438656
0.438606
0.438628
0.438592
0.438554
0.438554
0.438514
0.438432
0.438326
0.438324
0.438334
0.438224
0.438269
0.438278
0.438256
0.438247
0.43815
0.43797
0.437882
0.437844
0.437788
0.437607
0.437593
0.437661
0.43766
0.437657
0.437513
0.437535
0.43755
0.437408
0.437428
0.437761
0.437873
0.437846
0.437856
0.437829
0.437799
0.437659
0.437568
0.43771
0.437841
0.437853
0.437816
0.437747
0.437656
0.437673
0.437698
0.437561
0.437594
0.437908
0.437956
0.437931
0.437921
0.437765
0.437862
0.438045
0.437971
0.438004
0.43802
0.437976
0.437764
0.381477
0.393967
0.407259
0.419652
0.429165
0.435053
0.437673
0.438176
0.438064
0.438144
0.438319
0.438316
0.438321
0.438245
0.438275
0.438269
0.438256
0.438377
0.43847
0.438527
0.438872
0.438907
0.438856
0.438721
0.43867
0.438715
0.438575
0.438619
0.438766
0.438744
0.438706
0.438509
0.438534
0.438656
0.438547
0.438614
0.438633
0.43853
0.438562
0.438614
0.438589
0.438567
0.438442
0.438344
0.438259
0.438109
0.437761
0.437714
0.437827
0.437833
0.437736
0.437776
0.437862
0.437841
0.437825
0.437778
0.437729
0.437696
0.437658
0.437582
0.437715
0.437812
0.437774
0.437639
0.437624
0.437791
0.437823
0.437788
0.437642
0.437602
0.43772
0.437747
0.43764
0.437709
0.437869
0.437875
0.437874
0.437786
0.437693
0.437782
0.437878
0.437743
0.437814
0.438003
0.438013
0.438015
0.437949
0.437943
0.437895
0.437739
0.381446
0.394003
0.407245
0.419662
0.429188
0.434948
0.437732
0.438514
0.438529
0.438501
0.438495
0.438371
0.438364
0.438717
0.438802
0.438711
0.438758
0.438775
0.438751
0.438684
0.438726
0.438941
0.438942
0.438899
0.438772
0.438806
0.438989
0.43898
0.438963
0.438968
0.438991
0.438906
0.4389
0.438908
0.438913
0.438886
0.438856
0.438819
0.438763
0.438646
0.438518
0.43841
0.438305
0.438079
0.437879
0.437773
0.437758
0.437756
0.437746
0.437735
0.437578
0.437573
0.437767
0.437757
0.437862
0.437909
0.437819
0.437866
0.437933
0.437908
0.437917
0.437872
0.437756
0.437585
0.437712
0.437935
0.437931
0.437917
0.43772
0.437718
0.437948
0.437987
0.437943
0.437777
0.437784
0.437924
0.437932
0.437918
0.437718
0.437715
0.437895
0.437947
0.437911
0.437794
0.437886
0.438018
0.438007
0.438006
0.437945
0.43773
0.381474
0.393939
0.407353
0.419632
0.429005
0.43501
0.437958
0.43864
0.438538
0.438558
0.438699
0.438697
0.438712
0.438713
0.438645
0.438611
0.438863
0.439035
0.439026
0.439023
0.438884
0.438964
0.43904
0.438909
0.438989
0.439166
0.438997
0.439074
0.439157
0.439042
0.439082
0.439112
0.439079
0.439075
0.438993
0.438774
0.438668
0.438621
0.438581
0.438521
0.43839
0.438333
0.438295
0.438253
0.438176
0.438045
0.438002
0.437891
0.437966
0.43806
0.438013
0.437998
0.438002
0.438005
0.437961
0.437836
0.437837
0.437853
0.437814
0.437697
0.437696
0.437853
0.437791
0.437893
0.437966
0.43795
0.437948
0.437864
0.437841
0.437683
0.4377
0.437924
0.43795
0.43792
0.437866
0.43775
0.437861
0.438025
0.438022
0.438019
0.437849
0.437854
0.437944
0.437964
0.437965
0.437843
0.437812
0.437819
0.437817
0.437728
0.381475
0.393975
0.407206
0.419685
0.429311
0.434883
0.437547
0.438147
0.437998
0.438026
0.438153
0.438003
0.438073
0.43822
0.43817
0.438106
0.43816
0.4383
0.438381
0.438544
0.438553
0.438582
0.43852
0.438632
0.438957
0.438994
0.438795
0.438856
0.438976
0.438891
0.438919
0.438974
0.438941
0.43891
0.438887
0.438793
0.438688
0.43845
0.438327
0.438273
0.438132
0.438135
0.438202
0.438164
0.43816
0.438153
0.438048
0.437969
0.438063
0.438113
0.438097
0.438095
0.438034
0.437821
0.4378
0.437812
0.437799
0.437763
0.437692
0.437816
0.437863
0.437817
0.43765
0.437648
0.437741
0.437751
0.437753
0.437647
0.437647
0.437606
0.437715
0.437958
0.437932
0.437929
0.437937
0.437921
0.437794
0.437679
0.437704
0.437691
0.43771
0.437962
0.438187
0.438184
0.438189
0.438128
0.437991
0.438006
0.438027
0.437853
0.381467
0.393961
0.407311
0.419686
0.428981
0.434953
0.43802
0.43879
0.438703
0.438743
0.43889
0.43875
0.438767
0.438894
0.438824
0.438831
0.438836
0.438825
0.438815
0.438845
0.438783
0.438837
0.439054
0.439053
0.439035
0.439151
0.439227
0.439063
0.439133
0.439164
0.439029
0.439079
0.439085
0.43903
0.439054
0.439022
0.438984
0.438937
0.438799
0.438661
0.438562
0.438428
0.438117
0.437914
0.437829
0.437833
0.437837
0.437826
0.437834
0.437816
0.437812
0.437762
0.437595
0.437611
0.437782
0.437714
0.437785
0.437869
0.437868
0.437868
0.437693
0.437693
0.437888
0.437954
0.43793
0.437843
0.437955
0.438043
0.438023
0.438008
0.437824
0.43786
0.437916
0.437891
0.43788
0.437731
0.437863
0.438017
0.438005
0.437992
0.437867
0.437854
0.437778
0.437874
0.437965
0.437934
0.437885
0.437799
0.437773
0.43764
0.381453
0.394043
0.407245
0.419581
0.429258
0.434889
0.437706
0.438481
0.438541
0.4385
0.438359
0.438398
0.438476
0.438444
0.43834
0.43841
0.438641
0.438638
0.438625
0.438569
0.438577
0.438601
0.438589
0.438701
0.438811
0.438662
0.438751
0.438924
0.438876
0.438869
0.438823
0.438793
0.438584
0.438596
0.438619
0.438548
0.438568
0.438526
0.438498
0.438484
0.438485
0.438412
0.438373
0.438323
0.438291
0.438287
0.438248
0.438062
0.437971
0.437786
0.43759
0.43769
0.437795
0.437754
0.437648
0.437595
0.437705
0.437696
0.437828
0.438292
0.438318
0.438267
0.438097
0.438112
0.438167
0.437983
0.438057
0.438191
0.438139
0.438151
0.438161
0.438144
0.43805
0.438024
0.437993
0.437946
0.437796
0.43784
0.437899
0.437866
0.437811
0.43776
0.437981
0.438053
0.438012
0.437856
0.437886
0.437944
0.437904
0.437778
0.38146
0.393982
0.407301
0.419708
0.428978
0.434843
0.438025
0.439079
0.43914
0.439097
0.438951
0.438983
0.439119
0.439025
0.439046
0.439142
0.439131
0.439101
0.439074
0.438977
0.439035
0.439141
0.439105
0.43901
0.438954
0.439024
0.439024
0.439073
0.439124
0.439101
0.439112
0.439114
0.439074
0.43903
0.43899
0.438984
0.438944
0.438872
0.438793
0.438726
0.438662
0.438548
0.438282
0.438088
0.437968
0.437909
0.437863
0.43783
0.437765
0.43762
0.43745
0.437522
0.437623
0.437596
0.437552
0.437498
0.437774
0.437968
0.437963
0.437963
0.437921
0.437853
0.437762
0.437871
0.437928
0.437844
0.437869
0.437957
0.437975
0.437949
0.43794
0.437844
0.437764
0.437909
0.438022
0.438005
0.438004
0.437952
0.437909
0.437777
0.437834
0.438038
0.438029
0.437992
0.437933
0.437898
0.437901
0.437917
0.437863
0.437679
0.381461
0.393982
0.40727
0.419746
0.428952
0.434886
0.438088
0.438968
0.438907
0.439008
0.439129
0.439127
0.439126
0.438906
0.438896
0.439003
0.438987
0.438945
0.43901
0.439092
0.438982
0.439077
0.439254
0.439095
0.439164
0.439343
0.439344
0.43935
0.43929
0.439275
0.43926
0.439262
0.439193
0.439174
0.439138
0.439095
0.439034
0.438948
0.438788
0.438607
0.438497
0.438386
0.438235
0.438137
0.438066
0.437993
0.437856
0.437559
0.437568
0.437781
0.437781
0.437787
0.437794
0.437783
0.437643
0.437747
0.437926
0.43774
0.437743
0.437886
0.437791
0.437852
0.438095
0.43812
0.438091
0.438049
0.438035
0.438019
0.437981
0.437784
0.437774
0.438049
0.438186
0.43818
0.438154
0.438126
0.438132
0.438136
0.438059
0.43803
0.437984
0.437892
0.43778
0.437893
0.437994
0.437964
0.437918
0.437835
0.437787
0.437644
0.381464
0.393966
0.407332
0.419669
0.428981
0.434938
0.437941
0.438929
0.438972
0.438831
0.438819
0.438895
0.438881
0.438894
0.438955
0.438964
0.438913
0.43891
0.438873
0.439016
0.439165
0.439137
0.439022
0.439021
0.439135
0.439104
0.439118
0.439057
0.43906
0.439064
0.43904
0.439047
0.43902
0.43896
0.438881
0.438695
0.438405
0.438308
0.438334
0.438375
0.438336
0.438303
0.438312
0.438283
0.438266
0.438228
0.43819
0.438083
0.437828
0.437528
0.437576
0.43768
0.437672
0.437671
0.437554
0.437499
0.437735
0.43793
0.437776
0.437802
0.437943
0.437825
0.437868
0.438132
0.438147
0.438093
0.437909
0.437928
0.437995
0.437796
0.437829
0.437957
0.437774
0.437759
0.437971
0.438015
0.437972
0.437884
0.437813
0.43796
0.438073
0.438007
0.438001
0.437999
0.437969
0.437804
0.437792
0.437823
0.437786
0.437631
0.381416
0.394058
0.407275
0.419636
0.429061
0.43501
0.43787
0.438561
0.438568
0.438477
0.43849
0.438577
0.438555
0.438558
0.438571
0.438574
0.438441
0.438534
0.438795
0.438747
0.438745
0.438693
0.438793
0.439218
0.439345
0.439245
0.439318
0.43934
0.439252
0.439265
0.439241
0.439192
0.439151
0.439113
0.439071
0.439041
0.438951
0.43886
0.438761
0.438673
0.438526
0.438424
0.438314
0.438165
0.438058
0.437834
0.437687
0.437575
0.437538
0.437496
0.437338
0.437329
0.4378
0.438115
0.437997
0.438007
0.43828
0.438382
0.438383
0.438384
0.438289
0.438279
0.438256
0.438083
0.43812
0.438213
0.438185
0.438182
0.438134
0.438129
0.43803
0.438121
0.438204
0.438171
0.438119
0.438029
0.437999
0.437939
0.437919
0.437933
0.437918
0.437947
0.437957
0.437869
0.437893
0.437859
0.437815
0.43782
0.437765
0.437579
0.381468
0.393988
0.407248
0.419648
0.4292
0.435067
0.437508
0.437894
0.437861
0.438042
0.43839
0.43838
0.438346
0.438263
0.438178
0.438314
0.438498
0.438493
0.438502
0.438439
0.438687
0.439215
0.439134
0.43925
0.439386
0.439338
0.439338
0.439317
0.439323
0.43927
0.43925
0.439257
0.439256
0.439194
0.439107
0.438914
0.438643
0.438522
0.43845
0.438388
0.438336
0.438294
0.438251
0.438203
0.438106
0.437873
0.437736
0.437684
0.437537
0.437596
0.437698
0.437619
0.437652
0.437674
0.437638
0.437537
0.437452
0.437488
0.43757
0.437533
0.437406
0.437472
0.43756
0.43755
0.437549
0.437405
0.437503
0.43759
0.43757
0.437554
0.437616
0.437808
0.437913
0.438061
0.438038
0.438005
0.437953
0.437903
0.437871
0.437781
0.437874
0.437991
0.437972
0.437957
0.437906
0.437844
0.437679
0.43762
0.437669
0.437584
0.381476
0.393932
0.407364
0.419621
0.429013
0.435015
0.437973
0.438764
0.438781
0.438749
0.438705
0.438629
0.43871
0.438891
0.43893
0.438905
0.438916
0.438927
0.438908
0.43881
0.438812
0.43906
0.439086
0.439181
0.439349
0.439274
0.439301
0.439256
0.439285
0.439287
0.43925
0.439216
0.439148
0.43903
0.438942
0.438878
0.438756
0.438676
0.438603
0.438548
0.438464
0.438401
0.438322
0.438263
0.438218
0.438138
0.437971
0.437705
0.437535
0.437555
0.437569
0.437533
0.437429
0.43756
0.438012
0.438022
0.437974
0.437998
0.438157
0.438125
0.438202
0.438227
0.438077
0.438144
0.438301
0.438295
0.438296
0.438272
0.438266
0.438164
0.438131
0.437986
0.43795
0.43806
0.43802
0.43814
0.438299
0.43813
0.438194
0.438375
0.438373
0.43838
0.43836
0.438289
0.438227
0.438177
0.43807
0.438036
0.437964
0.437718
0.381465
0.393969
0.407296
0.419717
0.428945
0.434997
0.438005
0.438759
0.438974
0.439034
0.438844
0.438906
0.438988
0.438975
0.438976
0.438863
0.43898
0.439081
0.438967
0.43904
0.439246
0.439242
0.439225
0.439311
0.439515
0.439364
0.439443
0.439501
0.439385
0.439372
0.439391
0.43939
0.439354
0.439336
0.439249
0.43906
0.438894
0.438773
0.438617
0.438265
0.438077
0.438021
0.437893
0.43789
0.437897
0.437859
0.437809
0.437641
0.437692
0.437792
0.437786
0.437783
0.437586
0.437627
0.438047
0.438354
0.438336
0.438209
0.438296
0.438402
0.438381
0.438369
0.438246
0.438215
0.438186
0.43822
0.438228
0.438199
0.438167
0.438149
0.438047
0.438139
0.438306
0.43813
0.438184
0.438389
0.438381
0.438344
0.438133
0.438157
0.438229
0.438044
0.43811
0.438201
0.438193
0.438192
0.438057
0.438043
0.43798
0.437766
0.38148
0.393985
0.407185
0.419761
0.429145
0.43498
0.437646
0.438245
0.438244
0.438139
0.438184
0.438293
0.438275
0.43825
0.438211
0.438431
0.4385
0.438565
0.438992
0.439186
0.439274
0.439304
0.439259
0.439261
0.439267
0.439258
0.439119
0.439175
0.43926
0.43919
0.439195
0.439159
0.439116
0.439015
0.438981
0.438981
0.43897
0.438867
0.438623
0.438375
0.438241
0.437967
0.437831
0.437792
0.437755
0.437714
0.437599
0.437653
0.437686
0.437619
0.437639
0.437634
0.437523
0.43755
0.437571
0.437478
0.437432
0.437436
0.43742
0.437556
0.437669
0.437658
0.437662
0.437625
0.437836
0.437951
0.438005
0.437993
0.437945
0.437788
0.437763
0.437865
0.437864
0.437891
0.437978
0.437969
0.437942
0.437938
0.437812
0.437892
0.437952
0.437949
0.437947
0.437813
0.437744
0.437858
0.43799
0.43799
0.437984
0.437769
0.381438
0.39401
0.407306
0.419597
0.42913
0.434982
0.437882
0.438643
0.438695
0.438665
0.438618
0.438604
0.438572
0.438706
0.438806
0.438769
0.438766
0.438636
0.438719
0.438939
0.438887
0.438896
0.438857
0.439001
0.439118
0.438976
0.439059
0.439328
0.439363
0.439322
0.439287
0.439264
0.439114
0.439035
0.438945
0.438854
0.438776
0.438695
0.438626
0.438561
0.43843
0.438318
0.438238
0.438164
0.438014
0.437845
0.437689
0.437619
0.43758
0.437518
0.437312
0.43734
0.437634
0.43767
0.437643
0.437629
0.437594
0.43753
0.437348
0.437351
0.437499
0.437625
0.437675
0.437505
0.437549
0.43778
0.437819
0.437794
0.437777
0.437607
0.437606
0.43771
0.437563
0.437629
0.437796
0.43774
0.437647
0.437705
0.437849
0.43782
0.437766
0.437674
0.437729
0.437736
0.437756
0.437929
0.438009
0.438008
0.438
0.437712
0.381471
0.393945
0.407343
0.419647
0.428997
0.435023
0.437976
0.438661
0.438575
0.438628
0.438828
0.438771
0.438747
0.438925
0.439049
0.438932
0.439038
0.439182
0.439023
0.439115
0.439234
0.439062
0.439078
0.439265
0.439234
0.439351
0.439474
0.439368
0.439409
0.439467
0.439437
0.43943
0.439379
0.439306
0.4392
0.438974
0.438767
0.438646
0.438518
0.438416
0.438339
0.43827
0.438228
0.438193
0.438159
0.438114
0.438019
0.437811
0.437515
0.437454
0.437508
0.437512
0.437471
0.437411
0.437567
0.437649
0.437606
0.43751
0.43741
0.437491
0.437592
0.43757
0.437498
0.437503
0.437503
0.437653
0.437817
0.437783
0.437786
0.437777
0.437806
0.437762
0.437621
0.43758
0.43784
0.437965
0.43793
0.437801
0.437844
0.437973
0.437947
0.437914
0.437782
0.437704
0.437824
0.4379
0.437831
0.43783
0.437819
0.437646
0.381461
0.393982
0.407269
0.419749
0.42895
0.434903
0.438065
0.439061
0.439106
0.43908
0.439073
0.439025
0.438861
0.4389
0.439085
0.439012
0.438962
0.43906
0.43916
0.43905
0.439152
0.439325
0.43916
0.439192
0.439386
0.439335
0.439413
0.439437
0.439381
0.439403
0.439373
0.439344
0.439328
0.439289
0.439227
0.439104
0.438954
0.43879
0.438673
0.438584
0.438511
0.438452
0.438378
0.438333
0.438258
0.438085
0.438008
0.437847
0.437784
0.43776
0.437717
0.437625
0.437514
0.437777
0.438141
0.438265
0.438418
0.438403
0.438408
0.438413
0.438364
0.438194
0.438264
0.438354
0.438233
0.438259
0.438306
0.438277
0.438233
0.438236
0.438178
0.438141
0.438027
0.438058
0.43808
0.438016
0.438017
0.437995
0.43793
0.438016
0.438104
0.438101
0.438099
0.437899
0.437948
0.438078
0.438067
0.438069
0.43802
0.437812
0.381465
0.393969
0.407296
0.419717
0.428944
0.434997
0.438006
0.438762
0.438977
0.439038
0.438838
0.438878
0.439012
0.438989
0.438988
0.438886
0.438971
0.439087
0.439013
0.439019
0.438981
0.439063
0.439317
0.439211
0.439264
0.439536
0.439558
0.439527
0.439536
0.439484
0.439443
0.439394
0.439302
0.439243
0.439161
0.439004
0.438878
0.438775
0.438625
0.438273
0.438085
0.437971
0.437977
0.437984
0.437955
0.437929
0.437799
0.437639
0.437702
0.437792
0.437779
0.437773
0.437588
0.437697
0.438038
0.437926
0.437935
0.438224
0.438315
0.438305
0.438305
0.43826
0.438236
0.43807
0.437979
0.43804
0.438049
0.43811
0.438153
0.43811
0.437964
0.437951
0.43808
0.437996
0.438098
0.438206
0.438069
0.43813
0.438158
0.438106
0.438105
0.438079
0.437965
0.437837
0.437791
0.437718
0.43784
0.437982
0.437941
0.437779
0.381477
0.39393
0.407367
0.419617
0.429013
0.435042
0.437896
0.438796
0.438826
0.438707
0.438773
0.438862
0.438814
0.438738
0.438786
0.438993
0.438928
0.438981
0.439003
0.438887
0.438923
0.439203
0.439292
0.439274
0.439264
0.43924
0.439203
0.439153
0.439059
0.439133
0.439163
0.439131
0.439131
0.439102
0.439088
0.439055
0.439014
0.43898
0.438896
0.4387
0.438481
0.438355
0.438254
0.438176
0.43813
0.438051
0.437895
0.437544
0.437517
0.437628
0.43766
0.437664
0.437496
0.437638
0.438087
0.438131
0.438102
0.438023
0.438181
0.438349
0.438351
0.438349
0.438152
0.438199
0.438292
0.438261
0.438271
0.438255
0.438237
0.438193
0.438068
0.438124
0.438232
0.438213
0.438208
0.438177
0.43817
0.43806
0.437957
0.438063
0.438223
0.438194
0.438209
0.438216
0.438232
0.438181
0.438055
0.438024
0.437959
0.437745
0.381475
0.393977
0.407251
0.419666
0.429177
0.435006
0.437639
0.438159
0.438158
0.438119
0.438194
0.43842
0.438374
0.43838
0.438381
0.438318
0.438306
0.438516
0.438593
0.438509
0.438548
0.438961
0.4392
0.439178
0.439076
0.439123
0.439203
0.438989
0.439034
0.439133
0.439115
0.43912
0.439056
0.439036
0.439029
0.438999
0.438839
0.438785
0.438677
0.438433
0.438246
0.438168
0.438097
0.437882
0.437852
0.437872
0.437692
0.437744
0.437826
0.437659
0.437628
0.43773
0.437786
0.437756
0.437718
0.437801
0.437831
0.437795
0.437754
0.437529
0.437589
0.437806
0.437831
0.437796
0.437607
0.437685
0.437899
0.437809
0.437897
0.437937
0.437918
0.437914
0.437745
0.437778
0.437984
0.437865
0.437921
0.438065
0.437883
0.437909
0.43808
0.438135
0.438103
0.438041
0.43792
0.437949
0.438087
0.438094
0.438091
0.437844
0.381461
0.394035
0.407238
0.419592
0.429266
0.434885
0.437689
0.438474
0.438491
0.43843
0.4385
0.438525
0.438481
0.438395
0.438335
0.438477
0.438484
0.438621
0.438732
0.438711
0.438687
0.43865
0.438987
0.439217
0.439201
0.4392
0.43918
0.439165
0.438966
0.43899
0.438999
0.438962
0.438954
0.4389
0.43888
0.438817
0.438682
0.438597
0.438528
0.438451
0.438353
0.438286
0.438221
0.438171
0.438131
0.438063
0.437884
0.43784
0.43782
0.437843
0.437847
0.437767
0.437614
0.437553
0.437545
0.437543
0.437507
0.437509
0.437845
0.438044
0.438025
0.437992
0.437821
0.437872
0.43797
0.437929
0.437927
0.437857
0.437814
0.437788
0.437759
0.437874
0.438048
0.438068
0.438032
0.437829
0.437869
0.438017
0.438019
0.438018
0.437991
0.437986
0.43781
0.437858
0.437948
0.437922
0.437886
0.437808
0.437757
0.437595
0.381453
0.394042
0.407245
0.419582
0.42926
0.434893
0.437715
0.438419
0.438368
0.438319
0.438369
0.438454
0.438409
0.438285
0.438235
0.438547
0.438771
0.438764
0.438762
0.438645
0.438784
0.438901
0.438878
0.438859
0.438967
0.439125
0.439076
0.439123
0.439127
0.439088
0.439063
0.438957
0.438831
0.438756
0.438611
0.438511
0.438437
0.438412
0.438443
0.438429
0.438406
0.43841
0.438371
0.43829
0.438105
0.437927
0.437837
0.437799
0.437718
0.437485
0.437421
0.437538
0.437496
0.437572
0.437993
0.43813
0.438121
0.438137
0.438109
0.438063
0.437914
0.43797
0.438063
0.438015
0.438039
0.438057
0.438045
0.437863
0.437863
0.438048
0.438063
0.438026
0.438047
0.438008
0.437906
0.437851
0.437865
0.437843
0.437934
0.437967
0.437889
0.437895
0.437856
0.437895
0.43791
0.437865
0.437702
0.437737
0.437834
0.437643
0.381463
0.393973
0.407289
0.41972
0.428958
0.434935
0.43804
0.438934
0.438962
0.438939
0.438885
0.438867
0.438805
0.43891
0.439099
0.439055
0.439052
0.439015
0.439022
0.43899
0.439052
0.439075
0.438957
0.439047
0.439262
0.439088
0.439157
0.439264
0.439119
0.439177
0.439186
0.439138
0.439079
0.438968
0.438867
0.438771
0.438708
0.438588
0.43852
0.438459
0.438402
0.438356
0.438284
0.43819
0.437988
0.437758
0.437759
0.437765
0.437688
0.437813
0.437997
0.437906
0.437962
0.437981
0.437945
0.437891
0.437758
0.437753
0.437874
0.437877
0.437839
0.43783
0.43791
0.437921
0.437889
0.437761
0.437756
0.437849
0.437856
0.437803
0.43781
0.438014
0.438043
0.438121
0.438152
0.438133
0.438129
0.438026
0.438032
0.437971
0.437946
0.437943
0.437773
0.437836
0.438007
0.43799
0.437988
0.437975
0.437954
0.437716
0.381456
0.393991
0.407281
0.419748
0.428912
0.434912
0.438014
0.438952
0.439101
0.439061
0.438896
0.438893
0.439016
0.438981
0.438991
0.438986
0.438982
0.438951
0.43908
0.439335
0.439292
0.439338
0.439348
0.439183
0.439225
0.439328
0.439253
0.439254
0.439256
0.439252
0.439217
0.439155
0.439119
0.439102
0.439034
0.43898
0.438884
0.438807
0.438733
0.438579
0.438499
0.438454
0.438382
0.438221
0.438134
0.438084
0.438005
0.437962
0.437874
0.437828
0.437695
0.437755
0.437907
0.437911
0.437912
0.437769
0.437844
0.437989
0.437941
0.437947
0.437949
0.437945
0.437891
0.437871
0.437781
0.437823
0.438022
0.437936
0.438046
0.438247
0.43824
0.43819
0.438033
0.438
0.438186
0.438247
0.438173
0.438199
0.438204
0.438175
0.438178
0.438141
0.438101
0.438073
0.438021
0.43781
0.43779
0.437834
0.437819
0.437677
0.381427
0.394028
0.407316
0.419604
0.429043
0.435071
0.437822
0.438501
0.438563
0.438558
0.438507
0.438347
0.438379
0.43842
0.438247
0.438293
0.438598
0.438655
0.438624
0.438523
0.438608
0.438836
0.43898
0.439009
0.438848
0.438929
0.438983
0.438951
0.438927
0.438734
0.43876
0.438792
0.438729
0.438561
0.438511
0.438481
0.438378
0.438365
0.438388
0.438392
0.438353
0.438342
0.438284
0.438135
0.437974
0.437811
0.437753
0.437687
0.437476
0.437451
0.437661
0.437693
0.437768
0.437804
0.43779
0.437787
0.437596
0.437606
0.437872
0.437847
0.437965
0.43808
0.43799
0.438014
0.437977
0.437837
0.437838
0.437942
0.43789
0.437898
0.437896
0.437812
0.437793
0.437854
0.437868
0.437812
0.437871
0.438002
0.437969
0.437848
0.437865
0.437991
0.437862
0.437938
0.437987
0.437955
0.43786
0.43788
0.437928
0.437722
0.381466
0.393964
0.407309
0.419681
0.429005
0.434917
0.437995
0.438991
0.439099
0.439056
0.438889
0.43894
0.439066
0.438966
0.438935
0.438898
0.438782
0.438817
0.438999
0.438952
0.438932
0.438962
0.438937
0.439063
0.439284
0.43928
0.43929
0.439275
0.439258
0.439184
0.439004
0.438922
0.438887
0.438807
0.43878
0.438777
0.438778
0.43874
0.438699
0.438632
0.438541
0.438456
0.438368
0.438184
0.438048
0.437989
0.437895
0.43784
0.437758
0.437541
0.437618
0.437896
0.437887
0.437892
0.437859
0.437751
0.437789
0.437847
0.43775
0.437759
0.437754
0.43776
0.437664
0.437729
0.437809
0.437636
0.437705
0.437817
0.437751
0.437688
0.437786
0.438066
0.438021
0.438074
0.438087
0.438028
0.438033
0.438044
0.438055
0.438003
0.437825
0.437853
0.43798
0.437905
0.437913
0.437908
0.437752
0.437772
0.437851
0.437656
0.381468
0.393974
0.407232
0.419693
0.429204
0.435024
0.437535
0.438004
0.437908
0.437959
0.43832
0.438368
0.438346
0.438343
0.4382
0.438314
0.438574
0.438535
0.438503
0.438646
0.438866
0.438722
0.438751
0.43898
0.438949
0.439061
0.439308
0.439304
0.439308
0.439275
0.439233
0.43918
0.439165
0.439084
0.438901
0.438781
0.438712
0.438644
0.438523
0.438452
0.438409
0.438364
0.438288
0.438255
0.438241
0.438127
0.437912
0.437943
0.438021
0.437896
0.437955
0.437979
0.437941
0.4379
0.437695
0.437709
0.437806
0.437769
0.437653