/*--------------------------------*- C++ -*----------------------------------*\
  =========                 |
  \\      /  F ield         | OpenFOAM: The Open Source CFD Toolbox
   \\    /   O peration     | Website:  https://openfoam.org
    \\  /    A nd           | Version:  11
     \\/     M anipulation  |
\*---------------------------------------------------------------------------*/
FoamFile
{
    format      ascii;
    class       volScalarField;
    location    "0.082";
    object      nut;
}
// * * * * * * * * * * * * * * * * * * * * * * * * * * * * * * * * * * * * * //

dimensions      [0 2 -1 0 0 0 0];

internalField   nonuniform List<scalar> 
287084
(
0.000836265
0.000864605
0.0008954
0.000924692
0.000947522
0.000961881
0.000968319
0.00096991
0.000970337
0.000970617
0.000970724
0.000970535
0.000970669
0.000971059
0.000970923
0.000970914
0.000970973
0.000970862
0.00097066
0.00097052
0.000970378
0.000970152
0.000970276
0.000970909
0.000970907
0.000970836
0.000970759
0.000970503
0.000970564
0.000970796
0.000971056
0.00097119
0.000971093
0.00097147
0.000971749
0.000971904
0.000972072
0.000972168
0.000972271
0.000972343
0.000972246
0.000972315
0.000972263
0.000972328
0.000972299
0.000972347
0.000972373
0.000972335
0.000972383
0.000972276
0.000972062
0.000972274
0.000972791
0.000972708
0.000972707
0.0009726
0.000972577
0.000972502
0.000972118
0.000972006
0.000972284
0.000972411
0.000972303
0.000971994
0.000972211
0.000972799
0.000972787
0.000972646
0.000972221
0.000972305
0.000972481
0.000972427
0.000972382
0.000972002
0.000972136
0.000972476
0.000972239
0.000972388
0.000972457
0.000972423
0.000972396
0.000971955
0.000971932
0.000972445
0.000972634
0.000972578
0.000972532
0.000972426
0.000972252
0.000971642
0.00118206
0.00122093
0.00126232
0.00130139
0.00133175
0.00135079
0.00135907
0.00136054
0.00136047
0.00136106
0.00136185
0.00136146
0.00136168
0.00136179
0.00136168
0.00136156
0.00136109
0.00136059
0.00136054
0.00136051
0.00136007
0.0013599
0.00136067
0.00136153
0.00136132
0.00136154
0.00136165
0.00136155
0.00136168
0.00136177
0.0013618
0.00136118
0.00136134
0.0013618
0.00136159
0.00136205
0.00136242
0.00136258
0.00136267
0.00136255
0.00136303
0.00136344
0.00136358
0.00136373
0.00136365
0.00136368
0.00136341
0.00136373
0.00136431
0.00136442
0.00136449
0.00136426
0.0013643
0.00136422
0.00136404
0.00136379
0.00136346
0.00136344
0.00136342
0.00136329
0.00136297
0.00136288
0.00136357
0.00136385
0.00136373
0.00136356
0.00136319
0.00136355
0.00136388
0.00136374
0.00136335
0.00136329
0.00136375
0.00136369
0.00136378
0.00136393
0.00136382
0.00136373
0.00136365
0.00136309
0.00136322
0.00136343
0.00136334
0.00136333
0.0013631
0.00136313
0.00136307
0.00136316
0.00136304
0.00136252
0.00118211
0.00122111
0.00126244
0.00130174
0.00133178
0.00135059
0.00135959
0.00136166
0.00136175
0.00136193
0.00136182
0.00136136
0.00136146
0.00136158
0.00136125
0.00136114
0.00136079
0.00136111
0.00136142
0.0013613
0.0013612
0.00136078
0.00136055
0.00136115
0.00136154
0.00136144
0.00136143
0.00136154
0.00136168
0.00136154
0.00136172
0.00136191
0.00136218
0.00136239
0.0013627
0.00136284
0.00136303
0.00136321
0.00136303
0.00136304
0.00136311
0.00136274
0.0013631
0.00136361
0.00136379
0.00136395
0.00136369
0.00136357
0.00136407
0.00136449
0.00136439
0.00136445
0.00136453
0.00136456
0.00136431
0.00136421
0.00136406
0.00136357
0.00136354
0.00136353
0.00136308
0.00136332
0.00136366
0.00136347
0.00136343
0.00136312
0.00136362
0.00136421
0.00136393
0.00136399
0.00136398
0.0013639
0.00136386
0.00136375
0.00136361
0.00136338
0.00136323
0.00136283
0.00136294
0.00136306
0.00136282
0.00136258
0.00136276
0.00136327
0.00136288
0.00136317
0.0013634
0.00136336
0.00136334
0.00136255
0.00118207
0.0012212
0.00126281
0.00130192
0.00133195
0.0013509
0.00136005
0.00136216
0.00136223
0.00136199
0.00136198
0.00136238
0.00136235
0.00136212
0.0013616
0.00136125
0.00136118
0.0013609
0.00136112
0.00136138
0.00136094
0.00136082
0.00136072
0.00136029
0.00136044
0.00136071
0.00136074
0.00136082
0.00136027
0.00136038
0.00136143
0.0013619
0.00136188
0.00136231
0.00136265
0.0013629
0.0013632
0.0013634
0.00136365
0.00136366
0.0013638
0.00136392
0.00136404
0.0013641
0.00136408
0.00136356
0.00136377
0.00136409
0.00136412
0.00136417
0.00136373
0.00136391
0.00136413
0.00136406
0.0013641
0.00136403
0.00136398
0.00136384
0.00136345
0.0013637
0.00136424
0.00136404
0.00136403
0.00136398
0.0013638
0.00136338
0.00136328
0.00136317
0.0013631
0.00136362
0.00136405
0.00136383
0.00136374
0.00136361
0.00136356
0.00136315
0.00136325
0.00136389
0.00136364
0.00136381
0.00136401
0.00136386
0.0013634
0.00136348
0.00136372
0.00136364
0.00136357
0.00136334
0.00136317
0.00136256
0.00118207
0.00122131
0.00126299
0.00130182
0.00133228
0.0013513
0.0013594
0.00136219
0.00136233
0.00136223
0.00136215
0.00136163
0.00136178
0.00136183
0.00136147
0.00136133
0.00136116
0.00136054
0.00136052
0.00136066
0.0013605
0.00136039
0.0013599
0.00136028
0.00136077
0.00136055
0.00136056
0.00136057
0.00136055
0.00136097
0.00136141
0.00136132
0.0013617
0.00136208
0.00136231
0.00136254
0.00136237
0.00136242
0.00136312
0.00136362
0.00136374
0.001364
0.00136425
0.00136447
0.0013647
0.00136478
0.00136488
0.00136492
0.00136501
0.00136492
0.00136459
0.00136444
0.00136434
0.00136409
0.00136396
0.00136383
0.00136365
0.00136306
0.00136316
0.00136358
0.00136355
0.00136352
0.00136313
0.0013631
0.00136303
0.001363
0.00136262
0.00136281
0.0013633
0.00136316
0.00136311
0.00136277
0.0013632
0.00136404
0.0013637
0.00136397
0.00136413
0.00136369
0.00136379
0.00136395
0.00136375
0.00136382
0.00136381
0.00136364
0.00136305
0.00136289
0.00136327
0.00136334
0.00136319
0.00136261
0.00118209
0.00122131
0.00126286
0.0013021
0.0013327
0.00135102
0.0013589
0.00136101
0.00136232
0.00136227
0.00136179
0.00136179
0.00136172
0.00136145
0.00136112
0.00136054
0.0013605
0.00136094
0.00136079
0.00136071
0.0013606
0.00136036
0.0013598
0.00135975
0.00136011
0.00136013
0.00135996
0.00136018
0.00136101
0.00136122
0.0013613
0.00136165
0.00136196
0.00136213
0.00136225
0.00136231
0.00136245
0.00136219
0.00136264
0.00136327
0.00136318
0.00136358
0.00136398
0.00136405
0.00136425
0.00136436
0.00136417
0.00136374
0.00136388
0.0013642
0.00136427
0.00136431
0.00136407
0.00136392
0.00136416
0.0013644
0.00136435
0.00136432
0.00136403
0.00136386
0.00136384
0.00136379
0.00136382
0.0013638
0.0013637
0.00136322
0.00136342
0.00136407
0.00136375
0.00136398
0.0013641
0.00136402
0.00136397
0.00136358
0.00136349
0.00136311
0.00136329
0.00136378
0.00136344
0.00136363
0.00136369
0.00136352
0.00136314
0.00136299
0.00136322
0.00136318
0.00136344
0.00136354
0.00136337
0.00136279
0.00118205
0.00122131
0.00126297
0.0013021
0.00133291
0.00135075
0.00135947
0.0013618
0.00136183
0.00136171
0.00136153
0.00136106
0.00136078
0.00136139
0.00136146
0.0013612
0.00136175
0.00136237
0.00136202
0.00136183
0.00136196
0.00136195
0.0013617
0.00136122
0.00136099
0.00136112
0.00136118
0.00136131
0.00136148
0.00136163
0.00136167
0.00136192
0.00136213
0.00136183
0.00136222
0.00136272
0.00136303
0.00136336
0.00136294
0.00136333
0.00136391
0.00136416
0.00136438
0.0013641
0.00136421
0.00136437
0.00136446
0.00136459
0.00136467
0.00136475
0.00136462
0.00136398
0.00136404
0.00136425
0.0013642
0.00136419
0.00136402
0.00136396
0.00136352
0.00136378
0.00136412
0.001364
0.00136395
0.0013638
0.00136372
0.00136316
0.0013633
0.00136364
0.00136348
0.00136343
0.00136307
0.00136319
0.00136341
0.0013633
0.00136305
0.00136321
0.0013636
0.00136334
0.0013633
0.00136327
0.00136288
0.00136281
0.0013634
0.00136353
0.00136344
0.00136341
0.00136298
0.00136314
0.00136332
0.00136275
0.00118211
0.0012212
0.00126322
0.00130222
0.00133196
0.00135107
0.00136067
0.00136394
0.00136428
0.00136406
0.00136348
0.00136351
0.00136364
0.00136328
0.00136313
0.00136281
0.00136275
0.00136262
0.0013623
0.0013616
0.00136146
0.00136167
0.00136127
0.00136142
0.00136164
0.00136154
0.00136166
0.0013618
0.0013619
0.00136207
0.00136214
0.00136236
0.00136268
0.00136293
0.0013632
0.00136357
0.00136384
0.00136378
0.00136336
0.00136386
0.00136443
0.00136458
0.00136483
0.00136501
0.00136515
0.00136474
0.00136479
0.001365
0.001365
0.00136517
0.00136509
0.00136471
0.00136448
0.00136489
0.00136511
0.00136496
0.00136449
0.00136459
0.00136489
0.0013646
0.00136473
0.00136488
0.0013648
0.00136467
0.00136453
0.0013644
0.00136405
0.00136351
0.00136338
0.00136309
0.00136324
0.00136396
0.00136394
0.00136393
0.00136379
0.00136332
0.00136352
0.00136405
0.001364
0.00136396
0.00136386
0.00136382
0.00136315
0.00136319
0.00136362
0.00136353
0.00136351
0.00136356
0.0013635
0.0013627
0.00118209
0.0012213
0.00126297
0.00130235
0.00133248
0.00135115
0.00135988
0.00136201
0.00136203
0.00136182
0.00136135
0.00136095
0.00136157
0.00136231
0.00136172
0.00136177
0.00136175
0.00136108
0.00136112
0.00136177
0.00136131
0.00136147
0.00136159
0.0013609
0.00136103
0.00136148
0.00136115
0.00136148
0.00136191
0.00136188
0.00136232
0.0013627
0.00136297
0.00136329
0.00136338
0.00136359
0.00136372
0.00136397
0.00136412
0.00136398
0.00136378
0.00136393
0.00136411
0.00136412
0.00136462
0.00136509
0.00136474
0.00136509
0.00136553
0.0013655
0.00136544
0.00136533
0.00136537
0.00136532
0.0013652
0.00136488
0.00136403
0.00136397
0.00136424
0.00136423
0.00136418
0.00136358
0.00136381
0.0013642
0.00136399
0.00136394
0.00136392
0.00136385
0.00136319
0.00136319
0.00136419
0.00136433
0.00136406
0.00136402
0.00136399
0.0013639
0.0013633
0.00136338
0.00136405
0.00136375
0.00136404
0.00136425
0.00136419
0.00136416
0.00136385
0.00136379
0.00136355
0.00136349
0.00136329
0.00136261
0.00118224
0.001221
0.0012631
0.00130243
0.00133249
0.00135119
0.00135963
0.00136131
0.00136113
0.00136091
0.00136135
0.0013619
0.00136173
0.00136151
0.00136075
0.00136065
0.00136059
0.00136062
0.00136078
0.00136053
0.00136036
0.00135984
0.00135964
0.00135945
0.00135978
0.00136003
0.00136002
0.00135992
0.00136016
0.0013609
0.00136106
0.00136148
0.00136177
0.00136208
0.00136253
0.00136286
0.00136306
0.00136318
0.00136359
0.00136401
0.00136403
0.0013645
0.00136481
0.00136499
0.00136517
0.00136504
0.00136462
0.00136445
0.00136441
0.00136429
0.00136376
0.00136373
0.00136394
0.00136393
0.00136389
0.0013634
0.00136343
0.00136343
0.00136293
0.00136294
0.00136392
0.00136421
0.00136407
0.00136404
0.0013639
0.00136375
0.00136326
0.00136292
0.00136332
0.00136367
0.00136367
0.00136351
0.00136325
0.00136292
0.00136294
0.00136298
0.00136252
0.00136259
0.00136354
0.00136367
0.00136357
0.00136351
0.001363
0.00136328
0.00136384
0.00136359
0.00136368
0.00136372
0.00136357
0.00136286
0.00118214
0.00122125
0.00126305
0.00130221
0.00133252
0.00135141
0.00135989
0.00136157
0.00136118
0.0013613
0.00136168
0.00136147
0.00136127
0.0013608
0.00136065
0.00136039
0.0013601
0.00136023
0.00136028
0.00136024
0.00136111
0.00136104
0.00136075
0.00136024
0.00136004
0.00136019
0.00135984
0.00136012
0.00136079
0.001361
0.00136122
0.001361
0.00136152
0.00136237
0.00136252
0.00136323
0.00136378
0.00136393
0.00136448
0.00136506
0.00136536
0.00136563
0.00136553
0.00136548
0.00136542
0.00136512
0.00136417
0.00136412
0.00136455
0.00136461
0.00136433
0.00136445
0.00136471
0.00136462
0.00136453
0.00136433
0.00136413
0.00136397
0.00136379
0.00136349
0.00136384
0.00136408
0.00136389
0.00136341
0.0013633
0.00136376
0.0013638
0.00136364
0.00136313
0.00136295
0.00136327
0.00136331
0.00136293
0.0013631
0.00136357
0.00136355
0.00136351
0.0013632
0.00136288
0.00136313
0.00136341
0.00136296
0.00136316
0.00136373
0.00136374
0.00136373
0.00136351
0.00136348
0.00136332
0.00136278
0.00118204
0.00122136
0.00126301
0.00130225
0.00133259
0.00135109
0.00136008
0.00136262
0.00136262
0.0013624
0.0013622
0.0013616
0.00136135
0.00136219
0.0013622
0.00136165
0.00136152
0.00136131
0.00136098
0.00136053
0.00136044
0.00136092
0.00136077
0.00136054
0.0013601
0.00136023
0.00136088
0.00136101
0.0013612
0.00136151
0.00136196
0.00136213
0.00136259
0.00136313
0.00136368
0.00136413
0.00136457
0.00136496
0.00136527
0.00136534
0.00136534
0.00136536
0.00136533
0.00136488
0.00136446
0.0013643
0.00136438
0.00136446
0.00136449
0.00136448
0.001364
0.00136398
0.00136456
0.00136449
0.00136476
0.00136486
0.00136451
0.00136459
0.00136473
0.00136458
0.00136453
0.00136432
0.00136389
0.00136329
0.00136362
0.00136425
0.00136417
0.00136407
0.0013634
0.00136333
0.001364
0.00136408
0.00136389
0.00136333
0.00136331
0.00136371
0.0013637
0.00136362
0.00136297
0.00136292
0.00136346
0.0013636
0.00136347
0.00136308
0.00136335
0.00136375
0.0013637
0.00136368
0.00136348
0.00136275
0.00118213
0.00122116
0.00126335
0.00130216
0.00133202
0.00135128
0.00136078
0.001363
0.00136263
0.00136255
0.0013628
0.00136256
0.00136236
0.0013621
0.00136161
0.00136121
0.00136171
0.00136195
0.00136165
0.00136138
0.00136071
0.00136075
0.00136083
0.00136031
0.00136051
0.00136107
0.00136065
0.00136106
0.00136157
0.00136156
0.00136209
0.00136266
0.00136308
0.00136363
0.00136395
0.00136385
0.0013641
0.0013645
0.00136488
0.00136516
0.00136516
0.00136534
0.00136554
0.00136566
0.00136563
0.00136537
0.00136536
0.00136509
0.00136538
0.00136569
0.00136554
0.00136547
0.00136544
0.0013654
0.0013652
0.00136474
0.00136467
0.00136464
0.00136444
0.001364
0.00136391
0.00136432
0.00136406
0.0013643
0.00136445
0.00136433
0.00136426
0.00136393
0.0013638
0.00136325
0.00136325
0.0013639
0.00136393
0.00136379
0.00136358
0.00136318
0.00136348
0.00136396
0.00136392
0.00136388
0.00136333
0.00136332
0.00136357
0.00136362
0.0013636
0.0013632
0.00136309
0.0013631
0.00136308
0.00136275
0.00118213
0.00122127
0.00126289
0.00130232
0.00133297
0.00135088
0.00135949
0.00136145
0.00136093
0.00136086
0.00136105
0.00136035
0.0013603
0.00136047
0.00136002
0.00135952
0.00135937
0.0013595
0.00135945
0.00135967
0.00135945
0.00135931
0.00135895
0.00135917
0.00136012
0.00136026
0.00135975
0.00136014
0.00136079
0.0013609
0.00136143
0.00136212
0.00136259
0.0013631
0.00136366
0.00136399
0.00136428
0.00136412
0.00136427
0.00136459
0.00136458
0.00136497
0.00136549
0.00136563
0.00136582
0.00136595
0.00136573
0.00136555
0.00136588
0.00136605
0.00136598
0.00136593
0.00136569
0.00136496
0.00136482
0.00136478
0.00136466
0.00136446
0.00136414
0.00136444
0.0013645
0.00136427
0.00136367
0.00136358
0.00136379
0.00136375
0.00136369
0.00136329
0.00136322
0.00136303
0.00136332
0.00136402
0.00136389
0.00136383
0.00136381
0.00136372
0.00136329
0.00136289
0.00136294
0.00136287
0.0013629
0.00136366
0.00136434
0.00136431
0.0013643
0.00136409
0.00136365
0.00136368
0.00136374
0.00136314
0.00118211
0.00122123
0.00126322
0.00130232
0.00133194
0.00135109
0.00136095
0.00136343
0.00136309
0.00136305
0.00136329
0.00136261
0.00136238
0.00136247
0.00136194
0.00136164
0.00136132
0.00136096
0.0013606
0.00136039
0.00135992
0.00135985
0.00136033
0.00136019
0.00136008
0.00136047
0.00136082
0.00136052
0.00136105
0.00136155
0.00136162
0.00136234
0.00136298
0.00136346
0.00136422
0.00136479
0.00136532
0.0013658
0.00136593
0.00136602
0.00136615
0.00136612
0.00136547
0.00136509
0.00136503
0.00136519
0.0013653
0.00136532
0.00136537
0.00136531
0.00136527
0.00136506
0.00136447
0.00136444
0.00136489
0.00136459
0.00136472
0.00136488
0.00136478
0.00136468
0.00136404
0.00136394
0.00136446
0.00136458
0.00136443
0.00136407
0.00136435
0.00136455
0.00136442
0.00136431
0.00136368
0.00136373
0.00136385
0.00136373
0.00136365
0.00136314
0.00136351
0.00136396
0.00136388
0.00136381
0.00136339
0.00136332
0.00136307
0.00136334
0.00136361
0.00136349
0.00136332
0.00136304
0.00136295
0.00136248
0.00118207
0.00122148
0.00126301
0.00130199
0.00133279
0.00135088
0.00135995
0.00136244
0.00136255
0.00136225
0.00136159
0.00136145
0.0013614
0.00136098
0.00136032
0.00136019
0.00136056
0.00136019
0.00135981
0.00135931
0.00135904
0.00135886
0.00135861
0.00135882
0.0013591
0.00135867
0.00135907
0.00135984
0.00136003
0.00136044
0.00136083
0.00136135
0.00136137
0.00136211
0.00136291
0.00136341
0.00136416
0.00136468
0.00136519
0.00136568
0.00136615
0.00136631
0.00136652
0.00136662
0.00136671
0.00136684
0.00136681
0.00136627
0.001366
0.0013654
0.00136475
0.00136499
0.00136524
0.00136503
0.00136459
0.00136433
0.00136457
0.00136443
0.00136474
0.00136608
0.00136605
0.0013658
0.00136517
0.00136512
0.00136521
0.00136455
0.0013647
0.00136504
0.00136481
0.00136478
0.00136475
0.00136464
0.00136429
0.00136415
0.00136401
0.00136382
0.00136331
0.00136341
0.00136356
0.00136343
0.00136322
0.00136304
0.0013637
0.00136391
0.00136376
0.00136325
0.00136333
0.0013635
0.00136336
0.00136291
0.00118209
0.00122129
0.00126318
0.00130238
0.00133191
0.00135072
0.00136092
0.00136428
0.00136438
0.00136407
0.00136338
0.0013632
0.00136331
0.00136269
0.0013624
0.00136233
0.00136193
0.00136146
0.00136101
0.00136036
0.00136023
0.00136028
0.00135995
0.00135951
0.00135927
0.00135952
0.00135966
0.00136006
0.00136059
0.00136099
0.00136159
0.00136226
0.00136285
0.00136347
0.00136411
0.00136486
0.00136546
0.00136592
0.0013663
0.00136665
0.00136693
0.00136697
0.00136647
0.00136612
0.00136594
0.00136589
0.00136582
0.00136575
0.00136555
0.00136506
0.00136448
0.00136462
0.00136485
0.00136466
0.00136441
0.00136413
0.00136487
0.00136536
0.00136523
0.00136512
0.00136488
0.00136456
0.00136417
0.00136442
0.0013645
0.00136415
0.00136414
0.00136434
0.00136432
0.00136417
0.00136408
0.00136372
0.00136341
0.00136381
0.00136411
0.00136402
0.00136397
0.00136377
0.0013636
0.00136315
0.0013633
0.00136391
0.00136386
0.00136372
0.00136351
0.00136338
0.00136338
0.00136342
0.00136324
0.00136261
0.00118209
0.00122129
0.00126309
0.00130249
0.00133182
0.00135084
0.0013611
0.00136391
0.00136363
0.00136375
0.00136388
0.00136358
0.00136325
0.00136222
0.00136182
0.00136177
0.00136133
0.00136081
0.00136062
0.00136051
0.00135984
0.00135984
0.00136016
0.00135951
0.00135966
0.00136024
0.0013604
0.00136069
0.0013609
0.00136136
0.00136193
0.00136264
0.00136319
0.00136393
0.00136463
0.0013653
0.00136588
0.00136633
0.00136647
0.00136648
0.00136663
0.00136669
0.00136655
0.0013665
0.00136646
0.00136636
0.001366
0.0013651
0.00136512
0.00136574
0.00136567
0.0013656
0.00136551
0.00136536
0.00136481
0.00136501
0.00136544
0.00136474
0.00136462
0.00136495
0.00136453
0.00136461
0.00136526
0.00136523
0.00136504
0.00136482
0.00136469
0.00136456
0.00136436
0.00136367
0.00136358
0.00136437
0.00136474
0.00136467
0.00136454
0.0013644
0.00136438
0.00136435
0.00136408
0.00136395
0.00136377
0.00136346
0.00136308
0.00136341
0.00136371
0.0013636
0.00136343
0.00136315
0.001363
0.00136249
0.0011821
0.00122124
0.00126328
0.00130225
0.0013319
0.00135099
0.00136063
0.00136376
0.0013638
0.00136316
0.00136286
0.00136279
0.00136242
0.00136209
0.0013619
0.00136152
0.00136096
0.00136054
0.00136002
0.00136007
0.00136019
0.00135979
0.0013592
0.00135903
0.00135931
0.00135926
0.00135947
0.00135957
0.00136
0.00136055
0.00136113
0.00136189
0.00136262
0.00136327
0.00136388
0.00136415
0.00136404
0.00136448
0.00136524
0.00136595
0.00136633
0.00136664
0.001367
0.00136716
0.00136729
0.00136729
0.00136724
0.00136692
0.00136609
0.0013651
0.00136517
0.0013654
0.00136526
0.00136513
0.00136463
0.00136432
0.00136493
0.0013654
0.00136479
0.00136474
0.00136506
0.00136457
0.00136459
0.00136531
0.00136525
0.00136499
0.00136432
0.0013643
0.00136443
0.00136373
0.00136377
0.0013641
0.00136347
0.00136337
0.00136398
0.00136407
0.00136389
0.00136357
0.00136331
0.00136373
0.00136406
0.00136382
0.00136378
0.00136375
0.00136363
0.0013631
0.00136305
0.00136313
0.001363
0.00136246
0.00118195
0.00122153
0.0012631
0.00130214
0.00133215
0.0013512
0.00136039
0.00136259
0.00136251
0.00136202
0.00136179
0.00136175
0.00136133
0.00136097
0.00136061
0.0013602
0.00135936
0.00135922
0.00135961
0.00135906
0.00135869
0.00135821
0.00135827
0.00135942
0.00135975
0.00135948
0.00135989
0.00136027
0.00136044
0.00136105
0.00136166
0.00136229
0.001363
0.00136377
0.00136453
0.00136531
0.00136586
0.00136634
0.00136672
0.00136705
0.0013671
0.00136721
0.0013672
0.00136698
0.00136683
0.00136624
0.00136583
0.00136549
0.00136534
0.00136514
0.00136455
0.00136441
0.00136576
0.00136662
0.00136611
0.00136599
0.0013667
0.00136688
0.00136674
0.00136661
0.00136618
0.00136603
0.00136584
0.00136519
0.0013652
0.00136539
0.00136521
0.00136511
0.00136488
0.00136479
0.00136441
0.00136462
0.00136482
0.00136466
0.00136445
0.00136412
0.00136398
0.00136375
0.00136365
0.00136366
0.00136358
0.00136364
0.00136364
0.00136334
0.0013634
0.00136327
0.00136312
0.00136312
0.00136294
0.0013623
0.00118211
0.00122131
0.00126301
0.00130217
0.00133257
0.00135137
0.00135925
0.0013605
0.00136028
0.00136063
0.00136144
0.00136108
0.00136062
0.00135998
0.0013593
0.00135929
0.00135943
0.00135897
0.00135856
0.00135795
0.00135834
0.00135965
0.00135914
0.00135933
0.00135967
0.00135958
0.00135977
0.00136003
0.00136051
0.00136095
0.0013616
0.00136244
0.00136331
0.00136404
0.00136469
0.00136499
0.001365
0.00136541
0.00136589
0.00136631
0.00136667
0.00136696
0.00136716
0.00136727
0.00136714
0.00136651
0.00136613
0.00136597
0.00136547
0.00136557
0.00136579
0.00136543
0.0013654
0.00136532
0.00136506
0.00136459
0.00136418
0.00136414
0.00136426
0.001364
0.00136347
0.00136355
0.0013637
0.00136355
0.00136344
0.00136289
0.0013631
0.00136328
0.00136313
0.00136301
0.00136313
0.00136366
0.00136392
0.00136433
0.0013642
0.00136405
0.00136384
0.00136364
0.0013635
0.00136319
0.00136345
0.00136378
0.00136369
0.00136362
0.00136344
0.00136323
0.0013627
0.0013625
0.00136264
0.00136232
0.00118214
0.00122114
0.00126337
0.00130209
0.00133198
0.0013512
0.00136068
0.00136319
0.00136312
0.0013628
0.00136238
0.00136181
0.0013617
0.00136187
0.00136157
0.00136105
0.00136063
0.00136021
0.0013597
0.00135897
0.00135859
0.00135902
0.00135883
0.00135895
0.0013594
0.00135923
0.00135951
0.00135971
0.00136029
0.00136092
0.00136155
0.00136228
0.00136297
0.00136355
0.00136422
0.00136495
0.00136544
0.00136599
0.00136648
0.00136693
0.0013672
0.00136743
0.00136752
0.00136758
0.00136762
0.00136747
0.00136698
0.00136615
0.00136556
0.00136555
0.00136548
0.00136524
0.00136477
0.00136503
0.0013663
0.00136617
0.00136586
0.00136578
0.00136613
0.00136589
0.00136599
0.00136593
0.00136534
0.00136543
0.00136581
0.00136569
0.00136559
0.00136542
0.00136532
0.00136492
0.00136474
0.00136422
0.00136405
0.00136433
0.00136415
0.00136448
0.00136493
0.00136435
0.00136452
0.00136504
0.001365
0.001365
0.0013649
0.00136466
0.00136444
0.00136426
0.00136392
0.0013638
0.00136356
0.00136274
0.0011821
0.00122125
0.00126316
0.00130238
0.00133176
0.00135114
0.00136077
0.00136316
0.0013637
0.00136367
0.00136279
0.00136264
0.00136252
0.00136209
0.00136166
0.00136086
0.00136076
0.0013606
0.00135979
0.00135958
0.00135982
0.00135946
0.00135914
0.00135922
0.00135979
0.00135938
0.00135984
0.00136038
0.00136052
0.00136112
0.00136194
0.00136279
0.00136361
0.00136451
0.00136521
0.00136556
0.00136593
0.00136637
0.00136661
0.00136615
0.00136609
0.00136635
0.00136628
0.00136652
0.00136671
0.00136669
0.00136657
0.00136603
0.00136614
0.00136636
0.00136623
0.00136609
0.00136532
0.0013653
0.00136645
0.00136725
0.00136703
0.00136648
0.0013666
0.00136678
0.00136657
0.0013664
0.00136589
0.00136567
0.00136547
0.00136547
0.00136539
0.00136521
0.00136502
0.00136488
0.00136449
0.00136471
0.00136516
0.00136455
0.00136467
0.00136526
0.00136518
0.00136503
0.00136433
0.00136436
0.00136456
0.00136395
0.00136413
0.00136438
0.00136434
0.00136431
0.00136388
0.00136382
0.00136361
0.00136289
0.00118215
0.0012213
0.00126281
0.00130252
0.00133239
0.00135108
0.00135964
0.00136155
0.00136142
0.00136086
0.00136071
0.00136072
0.00136029
0.0013598
0.00135923
0.00135947
0.00135922
0.00135895
0.00135981
0.00135997
0.00135984
0.00135958
0.00135916
0.00135899
0.00135894
0.00135897
0.00135875
0.00135929
0.00136006
0.0013605
0.00136129
0.00136205
0.00136286
0.00136353
0.0013644
0.00136535
0.00136621
0.00136672
0.00136669
0.00136655
0.00136667
0.00136625
0.00136616
0.00136628
0.00136633
0.0013663
0.00136598
0.00136613
0.00136617
0.00136587
0.00136582
0.00136566
0.00136517
0.00136509
0.001365
0.00136454
0.00136423
0.00136409
0.00136388
0.00136416
0.00136437
0.0013642
0.00136408
0.00136384
0.00136438
0.00136464
0.0013647
0.00136457
0.00136433
0.00136376
0.00136361
0.00136386
0.00136379
0.00136381
0.00136403
0.00136395
0.00136382
0.00136376
0.00136333
0.00136354
0.00136369
0.00136365
0.00136362
0.00136318
0.00136294
0.00136327
0.00136367
0.00136365
0.00136362
0.00136289
0.00118202
0.00122138
0.00126319
0.00130201
0.00133234
0.00135108
0.00136037
0.00136278
0.00136282
0.00136249
0.00136206
0.00136167
0.0013612
0.0013612
0.00136107
0.0013605
0.00136002
0.00135914
0.00135893
0.00135916
0.0013586
0.00135827
0.00135787
0.00135813
0.00135843
0.00135806
0.00135852
0.00135972
0.00136035
0.00136088
0.00136156
0.00136237
0.00136285
0.00136359
0.0013643
0.00136497
0.00136563
0.00136621
0.00136673
0.00136717
0.00136729
0.00136738
0.00136746
0.00136748
0.00136718
0.00136674
0.00136629
0.00136605
0.00136587
0.00136558
0.00136482
0.00136477
0.00136553
0.00136549
0.00136524
0.00136503
0.00136475
0.00136439
0.00136367
0.00136353
0.00136384
0.0013641
0.00136413
0.00136347
0.00136349
0.00136411
0.00136413
0.00136395
0.00136381
0.0013632
0.00136312
0.00136338
0.00136285
0.001363
0.00136346
0.00136324
0.0013629
0.00136303
0.00136345
0.00136332
0.00136311
0.0013628
0.00136294
0.00136294
0.00136298
0.0013635
0.00136373
0.00136371
0.00136367
0.00136272
0.00118212
0.00122118
0.0012633
0.00130216
0.00133192
0.00135121
0.00136067
0.00136284
0.00136244
0.00136238
0.00136271
0.00136219
0.00136174
0.00136188
0.00136183
0.001361
0.00136086
0.00136084
0.00135987
0.00135971
0.00135967
0.00135878
0.00135856
0.00135895
0.00135879
0.00135923
0.00135981
0.00135985
0.00136049
0.00136133
0.00136202
0.00136289
0.00136368
0.00136444
0.0013651
0.00136535
0.00136561
0.00136606
0.0013664
0.00136671
0.00136701
0.00136723
0.00136743
0.00136757
0.00136763
0.00136758
0.00136732
0.00136665
0.00136567
0.00136538
0.00136543
0.00136531
0.00136502
0.00136468
0.001365
0.00136509
0.00136479
0.00136433
0.00136386
0.00136397
0.00136414
0.00136393
0.00136357
0.00136347
0.00136335
0.00136371
0.00136412
0.00136392
0.00136384
0.00136373
0.00136375
0.00136354
0.00136303
0.00136284
0.0013636
0.00136394
0.00136378
0.00136333
0.00136343
0.00136379
0.00136368
0.00136354
0.0013631
0.00136283
0.00136319
0.00136341
0.00136317
0.00136316
0.00136311
0.00136251
0.00118209
0.00122129
0.00126308
0.00130248
0.00133178
0.00135083
0.00136095
0.00136409
0.0013641
0.00136379
0.00136348
0.001363
0.0013621
0.00136182
0.00136196
0.00136127
0.00136065
0.00136048
0.00136033
0.00135954
0.00135946
0.00135964
0.00135886
0.00135877
0.00135931
0.00135922
0.00135967
0.0013601
0.00136044
0.00136116
0.00136184
0.00136263
0.00136352
0.00136438
0.00136517
0.00136573
0.00136616
0.00136648
0.00136685
0.00136721
0.00136751
0.00136776
0.00136787
0.00136797
0.00136791
0.00136746
0.00136726
0.00136673
0.00136648
0.00136631
0.00136606
0.00136563
0.00136514
0.0013658
0.00136678
0.001367
0.00136731
0.00136711
0.00136697
0.00136683
0.00136654
0.00136587
0.00136596
0.00136612
0.00136563
0.0013656
0.00136564
0.00136546
0.00136523
0.00136516
0.00136491
0.00136472
0.0013643
0.00136433
0.00136435
0.0013641
0.00136405
0.00136394
0.0013637
0.00136393
0.00136417
0.00136413
0.00136409
0.00136344
0.00136358
0.00136396
0.00136391
0.0013639
0.00136374
0.00136303
0.0011821
0.00122125
0.00126316
0.00130238
0.00133176
0.00135113
0.00136077
0.00136317
0.00136371
0.00136368
0.00136278
0.00136256
0.0013626
0.00136213
0.0013617
0.00136093
0.00136073
0.00136063
0.00135994
0.00135952
0.001359
0.00135891
0.00135942
0.00135892
0.00135901
0.00135991
0.00136019
0.00136045
0.00136098
0.00136146
0.00136209
0.0013628
0.00136345
0.00136422
0.00136493
0.00136539
0.00136588
0.00136638
0.00136664
0.00136617
0.00136612
0.00136619
0.00136655
0.00136682
0.00136689
0.00136691
0.00136654
0.00136603
0.00136617
0.00136636
0.00136621
0.00136605
0.00136533
0.00136551
0.00136642
0.00136591
0.00136578
0.00136653
0.00136666
0.00136648
0.00136633
0.00136606
0.00136586
0.00136522
0.00136482
0.0013649
0.00136484
0.00136493
0.00136498
0.00136476
0.00136423
0.00136412
0.00136446
0.00136414
0.0013644
0.00136468
0.00136421
0.00136436
0.0013644
0.00136421
0.00136417
0.00136406
0.00136367
0.00136325
0.00136309
0.00136284
0.0013632
0.00136363
0.00136349
0.00136292
0.00118214
0.00122113
0.00126338
0.00130208
0.00133198
0.00135128
0.00136044
0.00136329
0.00136326
0.00136267
0.00136259
0.00136254
0.00136203
0.00136139
0.00136112
0.00136132
0.00136067
0.00136038
0.00136
0.00135921
0.00135893
0.00135946
0.00135947
0.00135924
0.00135914
0.00135912
0.00135921
0.00135939
0.00135959
0.00136044
0.00136127
0.00136201
0.00136292
0.00136377
0.00136467
0.0013655
0.00136624
0.00136694
0.0013674
0.00136741
0.00136725
0.00136728
0.00136731
0.00136731
0.00136734
0.00136719
0.00136675
0.00136564
0.00136551
0.00136577
0.00136577
0.00136565
0.00136498
0.00136528
0.00136653
0.00136651
0.00136626
0.00136586
0.00136621
0.00136658
0.00136646
0.00136631
0.00136557
0.0013656
0.00136578
0.00136558
0.00136551
0.00136537
0.00136523
0.00136501
0.00136455
0.00136465
0.00136493
0.00136481
0.00136474
0.00136459
0.00136452
0.00136414
0.00136377
0.00136407
0.00136454
0.00136442
0.00136444
0.00136443
0.00136446
0.00136428
0.00136387
0.00136376
0.00136354
0.00136282
0.00118213
0.00122128
0.00126302
0.00130223
0.0013325
0.00135118
0.00135965
0.00136132
0.0013612
0.00136087
0.00136082
0.00136121
0.00136071
0.00136034
0.00135993
0.00135931
0.00135883
0.00135904
0.00135885
0.00135817
0.00135791
0.00135886
0.00135934
0.0013591
0.00135871
0.00135891
0.00135935
0.00135902
0.00135962
0.00136053
0.00136119
0.00136202
0.0013627
0.00136355
0.00136445
0.00136526
0.00136561
0.00136623
0.0013666
0.00136645
0.00136639
0.00136657
0.00136668
0.00136626
0.00136634
0.00136651
0.00136599
0.00136616
0.00136637
0.00136577
0.00136557
0.00136577
0.00136581
0.00136558
0.00136531
0.00136542
0.00136536
0.0013651
0.00136483
0.00136399
0.00136404
0.00136459
0.00136455
0.00136432
0.00136362
0.00136376
0.00136433
0.00136397
0.00136416
0.0013642
0.00136407
0.00136399
0.0013634
0.00136344
0.00136403
0.00136361
0.00136374