/*--------------------------------*- C++ -*----------------------------------*\
  =========                 |
  \\      /  F ield         | OpenFOAM: The Open Source CFD Toolbox
   \\    /   O peration     | Website:  https://openfoam.org
    \\  /    A nd           | Version:  11
     \\/     M anipulation  |
\*---------------------------------------------------------------------------*/
FoamFile
{
    format      ascii;
    class       volScalarField;
    location    "0.082";
    object      omega;
}
// * * * * * * * * * * * * * * * * * * * * * * * * * * * * * * * * * * * * * //

dimensions      [0 0 -1 0 0 0 0];

internalField   nonuniform List<scalar> 
287084
(
55.0025
55.9102
56.8599
57.7146
58.3401
58.7008
58.8376
58.8544
58.8538
58.8546
58.8526
58.8459
58.8516
58.8639
58.8617
58.8621
58.8633
58.8637
58.8593
58.855
58.8546
58.8515
58.8578
58.876
58.8761
58.8758
58.87
58.8623
58.8644
58.8676
58.8725
58.8749
58.8667
58.87
58.8706
58.8679
58.8639
58.8603
58.8572
58.8532
58.8444
58.8411
58.8344
58.8318
58.8267
58.8245
58.8241
58.8197
58.8187
58.8123
58.8052
58.8133
58.828
58.8262
58.8266
58.823
58.8232
58.8198
58.8056
58.8052
58.8158
58.8192
58.8169
58.8079
58.8173
58.8327
58.8343
58.8319
58.8196
58.8238
58.8292
58.8282
58.828
58.8181
58.8233
58.8334
58.8275
58.8321
58.8339
58.8331
58.8329
58.8205
58.8219
58.8379
58.8425
58.8411
58.838
58.8379
58.833
58.8158
55.0045
55.9092
56.8461
57.6982
58.3291
58.7022
58.8482
58.8648
58.8596
58.8711
58.8862
58.8783
58.8837
58.8868
58.886
58.8856
58.8764
58.8691
58.8713
58.8728
58.8641
58.8632
58.8852
58.9025
58.8985
58.902
58.9032
58.9014
58.9018
58.8978
58.8927
58.8764
58.8772
58.8822
58.8708
58.8744
58.8758
58.8723
58.8653
58.8594
58.8656
58.8683
58.8657
58.8615
58.8554
58.8529
58.846
58.8513
58.8611
58.8605
58.8602
58.8529
58.8518
58.8488
58.8433
58.8377
58.8335
58.8337
58.8339
58.8338
58.8244
58.8238
58.8423
58.8469
58.8443
58.8387
58.8342
58.845
58.8517
58.8494
58.8414
58.8424
58.8544
58.8528
58.8534
58.8542
58.8546
58.8535
58.8508
58.8406
58.8447
58.8492
58.8474
58.8452
58.8431
58.8472
58.8435
58.8431
58.8429
58.8329
55.0048
55.9086
56.8441
57.6998
58.3228
58.6936
58.8579
58.8878
58.8844
58.8841
58.8838
58.8758
58.879
58.8828
58.8795
58.88
58.8745
58.8842
58.8924
58.8916
58.8914
58.883
58.8805
58.8971
58.9042
58.9005
58.8995
58.9
58.9005
58.8958
58.8965
58.8963
58.8972
58.8936
58.8919
58.8916
58.8918
58.8867
58.8735
58.8676
58.8642
58.8526
58.8565
58.8624
58.8614
58.861
58.8505
58.8463
58.8567
58.8625
58.8601
58.8607
58.859
58.8572
58.8508
58.8476
58.8438
58.8357
58.8361
58.8365
58.8286
58.8345
58.8416
58.8374
58.8371
58.8329
58.8458
58.8578
58.8533
58.8539
58.8539
58.8548
58.8542
58.8497
58.8452
58.8408
58.8389
58.8332
58.8365
58.8392
58.8334
58.8291
58.8353
58.8462
58.8387
58.845
58.8495
58.8484
58.8481
58.8319
55.0032
55.9083
56.8472
57.6958
58.3171
58.6912
58.8596
58.8916
58.8911
58.8856
58.887
58.8958
58.8966
58.8955
58.8833
58.88
58.8845
58.8806
58.8877
58.895
58.8886
58.8889
58.8865
58.8778
58.8818
58.8869
58.8859
58.8856
58.8716
58.8724
58.8914
58.8948
58.8904
58.8931
58.8937
58.8926
58.8924
58.8897
58.8872
58.8808
58.8774
58.8744
58.8717
58.868
58.8639
58.8508
58.8529
58.8568
58.8545
58.8517
58.8425
58.8459
58.8494
58.8465
58.846
58.844
58.8438
58.8416
58.8337
58.8411
58.8525
58.8498
58.8508
58.8482
58.8419
58.836
58.8374
58.833
58.8326
58.8469
58.8555
58.8501
58.8495
58.8496
58.8487
58.8398
58.8436
58.8586
58.853
58.8562
58.8603
58.8576
58.8479
58.8505
58.8557
58.8534
58.8495
58.8446
58.8428
58.8323
55.0028
55.9086
56.8479
57.6901
58.3213
58.6946
58.8414
58.888
58.8892
58.8874
58.8872
58.8794
58.8848
58.8878
58.8846
58.8852
58.8839
58.8723
58.8751
58.8808
58.879
58.8788
58.871
58.8812
58.891
58.8845
58.8841
58.8846
58.8813
58.8857
58.8904
58.8846
58.8861
58.8879
58.8865
58.8831
58.8711
58.8676
58.878
58.8812
58.8792
58.8797
58.8797
58.8773
58.8767
58.8744
58.8741
58.8719
58.8694
58.8658
58.8566
58.8521
58.8492
58.8431
58.8401
58.8372
58.8342
58.8236
58.8276
58.8371
58.836
58.8359
58.8296
58.8307
58.8276
58.8257
58.8205
58.8267
58.8376
58.8341
58.8338
58.8289
58.8401
58.8578
58.8514
58.8575
58.8608
58.8528
58.8549
58.8586
58.8563
58.8566
58.8567
58.854
58.8383
58.8373
58.8471
58.8479
58.8457
58.8333
55.0032
55.9079
56.8446
57.6953
58.3267
58.6835
58.8254
58.8596
58.8852
58.8861
58.8794
58.8811
58.8821
58.8795
58.8727
58.8657
58.8705
58.8836
58.8835
58.8825
58.8807
58.8797
58.8708
58.8721
58.8811
58.8807
58.8751
58.8785
58.8918
58.8922
58.8913
58.8918
58.8923
58.8887
58.8817
58.8758
58.8722
58.8616
58.8654
58.872
58.8644
58.8663
58.8694
58.8676
58.8681
58.8644
58.8536
58.844
58.8462
58.8514
58.8506
58.8504
58.8434
58.8408
58.8469
58.8515
58.8502
58.8498
58.843
58.841
58.8439
58.8435
58.8437
58.8441
58.8438
58.8333
58.8393
58.8539
58.8479
58.8532
58.8558
58.8544
58.8538
58.845
58.8444
58.8386
58.8436
58.8545
58.8481
58.8519
58.8532
58.8501
58.8395
58.8387
58.8475
58.846
58.8505
58.8522
58.8488
58.837
55.0021
55.9075
56.8457
57.6939
58.329
58.6763
58.8376
58.8738
58.8738
58.875
58.8724
58.8622
58.8616
58.8809
58.8813
58.8816
58.9006
58.9159
58.9102
58.9098
58.9166
58.9183
58.9147
58.9026
58.9005
58.9061
58.9056
58.9057
58.906
58.906
58.9011
58.9014
58.8972
58.8831
58.8846
58.8876
58.8862
58.8853
58.8693
58.8716
58.8774
58.8755
58.874
58.8618
58.8618
58.8639
58.8626
58.8629
58.8599
58.8592
58.855
58.8408
58.8426
58.847
58.8449
58.8448
58.8412
58.8404
58.8328
58.8398
58.8471
58.847
58.847
58.8419
58.8409
58.8308
58.8354
58.8431
58.842
58.8422
58.8343
58.8369
58.8422
58.8406
58.8358
58.8408
58.8494
58.8455
58.8456
58.8454
58.8365
58.8366
58.8494
58.8509
58.8489
58.8466
58.8397
58.8439
58.8477
58.8371
55.0034
55.9051
56.8514
57.694
58.3073
58.6852
58.8649
58.9207
58.9264
58.9237
58.9138
58.9186
58.9246
58.9223
58.9237
58.9203
58.9217
58.9225
58.9202
58.908
58.9096
58.9175
58.9102
58.9142
58.9191
58.9184
58.9201
58.9189
58.9149
58.9128
58.9115
58.9125
58.9098
58.9075
58.9077
58.9076
58.9019
58.889
58.8751
58.8803
58.8853
58.8837
58.8839
58.88
58.877
58.8662
58.8662
58.8687
58.8641
58.8636
58.8628
58.8525
58.8488
58.8596
58.8632
58.8603
58.8504
58.854
58.8611
58.8567
58.8597
58.8634
58.862
58.8604
58.8607
58.8564
58.8465
58.8359
58.8343
58.8316
58.838
58.8545
58.8535
58.8513
58.8483
58.8415
58.8483
58.8598
58.8583
58.8582
58.8587
58.8582
58.8425
58.8449
58.855
58.8535
58.8536
58.8524
58.8503
58.835
55.0029
55.9068
56.8455
57.6973
58.3179
58.684
58.844
58.8756
58.8763
58.8754
58.8653
58.8617
58.8833
58.9014
58.8929
58.8983
58.9017
58.8923
58.8987
58.9168
58.9097
58.9159
58.9199
58.9067
58.9108
58.9199
58.9115
58.9158
58.9208
58.9165
58.9189
58.9197
58.9172
58.913
58.9061
58.9016
58.8954
58.8922
58.8869
58.8752
58.8639
58.8638
58.8642
58.859
58.8647
58.8706
58.8603
58.8657
58.8702
58.8703
58.8702
58.8648
58.8643
58.8629
58.8615
58.8538
58.8374
58.8394
58.8465
58.8457
58.8455
58.8345
58.8413
58.8501
58.8479
58.8485
58.8467
58.8451
58.8331
58.8362
58.8586
58.8607
58.8572
58.8577
58.8574
58.8547
58.8419
58.8461
58.862
58.855
58.8614
58.8657
58.8643
58.8638
58.8566
58.8554
58.8502
58.8479
58.8443
58.8328
55.0064
55.8996
56.8489
57.6987
58.3176
58.6839
58.8367
58.8616
58.8556
58.8539
58.8698
58.8842
58.884
58.8835
58.8728
58.8754
58.8772
58.8833
58.8926
58.8909
58.8879
58.8827
58.8836
58.881
58.8883
58.8922
58.8905
58.8855
58.888
58.8992
58.8931
58.8924
58.8922
58.8897
58.8879
58.8849
58.8793
58.8753
58.8759
58.8768
58.8708
58.8731
58.8734
58.8717
58.8705
58.8626
58.849
58.8437
58.8414
58.8383
58.8282
58.829
58.8342
58.8342
58.8337
58.8229
58.8238
58.8245
58.816
58.8185
58.8413
58.8468
58.8442
58.8436
58.8415
58.8403
58.8295
58.825
58.8369
58.8419
58.842
58.842
58.8364
58.8308
58.8326
58.8342
58.826
58.8293
58.85
58.8517
58.8495
58.8476
58.8388
58.8467
58.8583
58.8542
58.855
58.8558
58.8541
58.8386
55.0042
55.9054
56.8469
57.6937
58.3187
58.6889
58.8423
58.8671
58.8588
58.8643
58.8756
58.8746
58.8741
58.8709
58.8744
58.8711
58.8702
58.8799
58.8826
58.8881
58.9131
58.914
58.9108
58.8986
58.8973
58.9034
58.8923
58.8953
58.9024
58.9025
58.9022
58.8877
58.8904
58.8991
58.8917
58.8957
58.8965
58.8912
58.8928
58.8963
58.8939
58.8898
58.8811
58.8746
58.8687
58.8573
58.8371
58.8374
58.8465
58.8454
58.8381
58.8408
58.8463
58.8441
58.8404
58.837
58.8337
58.8315
58.8314
58.8282
58.8372
58.8426
58.8399
58.8305
58.8314
58.8417
58.8429
58.8421
58.8287
58.8275
58.8368
58.8376
58.8317
58.8363
58.8467
58.8461
58.8455
58.8384
58.8332
58.8409
58.8466
58.8382
58.8435
58.856
58.8553
58.8546
58.8496
58.8477
58.8449
58.8365
55.002
55.908
56.8458
57.6946
58.3197
58.682
58.8484
58.8888
58.8889
58.8867
58.8854
58.8789
58.8802
58.9049
58.9078
58.9028
58.9048
58.9054
58.9035
58.8989
58.9034
58.9154
58.916
58.9132
58.9044
58.9083
58.9211
58.9181
58.9172
58.918
58.9197
58.9157
58.9162
58.9146
58.9123
58.9106
58.9087
58.9063
58.9031
58.8948
58.8859
58.8788
58.8716
58.8557
58.8426
58.839
58.8409
58.8408
58.8376
58.8355
58.8267
58.8283
58.8427
58.841
58.8469
58.8492
58.8445
58.8467
58.8508
58.8486
58.8466
58.8448
58.8357
58.8259
58.8374
58.8514
58.85
58.8478
58.8358
58.8376
58.8525
58.8539
58.8515
58.8397
58.8417
58.8518
58.8513
58.8491
58.8355
58.8371
58.8483
58.8511
58.8491
58.8409
58.8481
58.8562
58.8548
58.8547
58.8507
58.8358
55.0039
55.9038
56.8536
57.6912
58.3076
58.6881
58.864
58.8993
58.891
58.8928
58.9032
58.9028
58.9041
58.9036
58.8957
58.8941
58.9143
58.9236
58.922
58.9195
58.9122
58.9186
58.9229
58.9148
58.9204
58.9316
58.9203
58.9257
58.9307
58.9241
58.9261
58.9279
58.9255
58.9227
58.9178
58.9024
58.8956
58.893
58.8904
58.8865
58.8777
58.8742
58.8718
58.8689
58.8634
58.8547
58.8519
58.8472
58.8539
58.8597
58.8556
58.855
58.8554
58.8556
58.8518
58.8437
58.8442
58.8452
58.8425
58.8346
58.8363
58.8479
58.8426
58.8489
58.8529
58.8513
58.8509
58.8443
58.8423
58.8335
58.8363
58.8502
58.8514
58.8512
58.8444
58.8371
58.8468
58.8569
58.856
58.8553
58.845
58.8462
58.8528
58.8526
58.8521
58.8423
58.8415
58.8446
58.8436
58.837
55.0041
55.9057
56.8433
57.697
58.3277
58.6761
58.8344
58.8655
58.8539
58.8564
58.8654
58.8544
58.8594
58.8686
58.8637
58.8597
58.8647
58.8713
58.877
58.8904
58.8899
58.889
58.8871
58.897
58.9155
58.919
58.9062
58.9108
58.9185
58.9141
58.915
58.9159
58.9162
58.9143
58.9102
58.9036
58.8967
58.8804
58.8729
58.8708
58.8636
58.8651
58.87
58.8682
58.8683
58.8674
58.8568
58.8528
58.8606
58.8632
58.8617
58.8616
58.8574
58.8428
58.843
58.844
58.8413
58.836
58.8339
58.8439
58.846
58.8429
58.8313
58.8326
58.8394
58.8381
58.8379
58.8322
58.8332
58.83
58.8375
58.853
58.8522
58.8522
58.8503
58.8466
58.8373
58.8322
58.837
58.8358
58.8372
58.8546
58.8681
58.8669
58.8646
58.8597
58.8532
58.855
58.8564
58.8453
55.0034
55.9052
56.8508
57.695
58.3054
58.6846
58.8692
58.9099
58.9023
58.9052
58.9155
58.9052
58.907
58.9161
58.9107
58.9107
58.9109
58.9108
58.9076
58.9067
58.9048
58.9104
58.9249
58.9248
58.9233
58.9308
58.935
58.9247
58.9292
58.9309
58.9232
58.926
58.9262
58.9223
58.922
58.9218
58.9204
58.9155
58.9047
58.8957
58.8891
58.8798
58.8581
58.8454
58.8432
58.844
58.8442
58.8434
58.8432
58.8418
58.8409
58.8378
58.8278
58.8307
58.843
58.8377
58.8416
58.8466
58.8462
58.846
58.835
58.8363
58.8487
58.8494
58.8501
58.8458
58.8532
58.8581
58.856
58.8537
58.8429
58.8457
58.8492
58.8469
58.8436
58.8359
58.8471
58.8563
58.8546
58.8521
58.8431
58.8415
58.839
58.8471
58.8524
58.8497
58.8436
58.8403
58.8412
58.8312
55.0028
55.9108
56.8453
57.6893
58.3246
58.6775
58.8467
58.8867
58.8898
58.8874
58.8777
58.8808
58.8857
58.8834
58.8762
58.8825
58.8978
58.8963
58.8923
58.8903
58.8936
58.8931
58.8919
58.9004
58.9067
58.8974
58.9038
58.9149
58.9105
58.9103
58.9069
58.9046
58.8922
58.8935
58.8953
58.8901
58.8896
58.8895
58.8903
58.8873
58.8848
58.8799
58.8774
58.8769
58.8771
58.8759
58.871
58.8563
58.8496
58.8365
58.8267
58.8357
58.8419
58.8391
58.829
58.8275
58.8386
58.8369
58.8469
58.8762
58.8768
58.8733
58.8615
58.8632
58.8668
58.8545
58.8599
58.8684
58.8662
58.8663
58.8669
58.8665
58.8569
58.8533
58.8512
58.8484
58.8406
58.8443
58.8479
58.8454
58.8391
58.8379
58.8555
58.8583
58.8559
58.8449
58.8472
58.8508
58.8481
58.8394
55.003
55.9067
56.8501
57.6965
58.3046
58.6771
58.8713
58.9285
58.9305
58.9274
58.9176
58.9211
58.9303
58.9241
58.9252
58.9291
58.9292
58.929
58.9241
58.9178
58.9229
58.9294
58.9269
58.9174
58.9156
58.9237
58.9232
58.9248
58.928
58.9277
58.9264
58.925
58.9224
58.9223
58.9197
58.9174
58.9147
58.91
58.905
58.9008
58.8964
58.8885
58.8698
58.8572
58.8498
58.8462
58.8432
58.8411
58.8366
58.8259
58.8173
58.8241
58.8303
58.8285
58.8228
58.821
58.8433
58.8539
58.8526
58.8526
58.8493
58.842
58.8385
58.8475
58.8503
58.846
58.8472
58.8507
58.8532
58.851
58.8476
58.8407
58.8383
58.8503
58.8566
58.8547
58.852
58.8482
58.8461
58.8394
58.8446
58.8554
58.8564
58.8539
58.8474
58.8473
58.8478
58.8489
58.8452
58.8325
55.0031
55.9065
56.8481
57.6992
58.3028
58.6805
58.8749
58.9224
58.9163
58.9227
58.9301
58.9294
58.9293
58.9149
58.9156
58.9235
58.919
58.9161
58.9215
58.9262
58.9197
58.9261
58.9369
58.9264
58.9316
58.9433
58.9423
58.942
58.9403
58.9404
58.9372
58.9353
58.9308
58.9297
58.9275
58.9247
58.9208
58.9148
58.9038
58.892
58.8851
58.8775
58.8675
58.8613
58.8567
58.8516
58.8412
58.8243
58.828
58.8434
58.8431
58.8435
58.8427
58.8396
58.831
58.8399
58.8511
58.8384
58.8398
58.8504
58.8425
58.8471
58.8615
58.8633
58.8609
58.8556
58.8552
58.8539
58.8525
58.8404
58.8416
58.8607
58.8679
58.8667
58.8649
58.8653
58.8636
58.8609
58.8555
58.8545
58.8515
58.844
58.839
58.8486
58.8544
58.8516
58.8457
58.84
58.8388
58.8309
55.0032
55.9057
56.8522
57.6937
58.3054
58.6832
58.8645
58.918
58.919
58.9104
58.9107
58.9165
58.9151
58.9154
58.9172
58.9179
58.9163
58.9164
58.9133
58.9225
58.9311
58.929
58.9208
58.9221
58.9304
58.9256
58.9239
58.9225
58.9232
58.9237
58.9232
58.9215
58.9186
58.9147
58.9106
58.8967
58.877
58.8747
58.8777
58.8777
58.8777
58.8755
58.8748
58.8727
58.8718
58.8691
58.8655
58.8579
58.8391
58.8222
58.8277
58.8343
58.8343
58.8342
58.8238
58.8211
58.8404
58.8514
58.8411
58.8435
58.8535
58.8446
58.8483
58.8648
58.865
58.8614
58.8486
58.8506
58.855
58.8416
58.8446
58.8533
58.8401
58.8405
58.8546
58.8558
58.8526
58.8439
58.8415
58.8536
58.8599
58.8568
58.8569
58.8558
58.8504
58.8403
58.8411
58.8434
58.8401
58.8293
54.9999
55.9122
56.8476
57.6921
58.3114
58.6874
58.8576
58.8939
58.8936
58.8867
58.8879
58.8943
58.8928
58.8932
58.8915
58.8908
58.8832
58.8905
58.9074
58.9043
58.9043
58.9001
58.9078
58.9353
58.9426
58.9369
58.9411
58.942
58.9354
58.9346
58.9332
58.9301
58.9275
58.9269
58.9243
58.9227
58.9162
58.9092
58.9028
58.8969
58.8871
58.8805
58.873
58.863
58.8558
58.8402
58.8307
58.8236
58.8214
58.8209
58.8115
58.8124
58.8474
58.8647
58.8566
58.8582
58.8767
58.8818
58.8813
58.8813
58.8764
58.8764
58.8728
58.8606
58.8639
58.8698
58.8696
58.8696
58.8634
58.8631
58.858
58.8641
58.8689
58.8659
58.8596
58.8534
58.8515
58.8501
58.8513
58.8509
58.8497
58.8511
58.8516
58.8448
58.8445
58.8443
58.8411
58.8393
58.836
58.8256
55.0037
55.9068
56.846
57.6937
58.3211
58.6889
58.8296
58.8473
58.8455
58.8589
58.8783
58.8787
58.8782
58.8692
58.8643
58.8758
58.8869
58.8854
58.8829
58.881
58.9024
58.9357
58.9295
58.9372
58.9453
58.9436
58.9441
58.9401
58.938
58.9373
58.9389
58.9376
58.935
58.9306
58.9254
58.9114
58.8932
58.8863
58.882
58.8782
58.875
58.8723
58.8696
58.8663
58.8596
58.8431
58.8345
58.8314
58.824
58.8293
58.8356
58.8315
58.8324
58.8335
58.8325
58.8223
58.8178
58.8213
58.8265
58.824
58.8151
58.8202
58.8256
58.8244
58.8242
58.8157
58.8224
58.8274
58.8272
58.8262
58.8304
58.8412
58.8474
58.8568
58.857
58.857
58.8506
58.845
58.8438
58.84
58.8473
58.8543
58.8523
58.8486
58.8449
58.8418
58.8299
58.8283
58.8348
58.8278
55.004
55.9034
56.8544
57.6903
58.3082
58.6884
58.8655
58.9057
58.9059
58.9055
58.8997
58.8952
58.9026
58.9116
58.9158
58.9158
58.9141
58.9122
58.9101
58.906
58.9083
58.924
58.9243
58.9321
58.9429
58.9365
58.9362
58.9358
58.9385
58.9387
58.936
58.9314
58.9268
58.9192
58.9139
58.9098
58.9018
58.897
58.8925
58.889
58.8835
58.8794
58.8743
58.8705
58.8675
58.8617
58.8494
58.8312
58.8234
58.8258
58.8265
58.8241
58.817
58.829
58.8593
58.8591
58.8554
58.8573
58.8687
58.8659
58.8697
58.8706
58.8614
58.8662
58.8763
58.8749
58.8749
58.873
58.8722
58.8644
58.8621
58.8514
58.8511
58.8621
58.858
58.8659
58.8756
58.8643
58.8693
58.8813
58.8806
58.8785
58.8764
58.8712
58.8667
58.8633
58.8561
58.8544
58.8501
58.8348
55.0033
55.9057
56.8499
57.697
58.303
58.6877
58.8677
58.9061
58.9175
58.9232
58.911
58.9153
58.9203
58.9188
58.9179
58.9118
58.9201
58.9257
58.9187
58.9239
58.9373
58.9373
58.9359
58.9415
58.9548
58.9443
58.9496
58.9529
58.9465
58.9468
58.9462
58.9461
58.9437
58.9404
58.9344
58.9215
58.9108
58.903
58.8921
58.8681
58.8568
58.8535
58.8477
58.8483
58.8489
58.8459
58.8396
58.8307
58.8358
58.8421
58.8412
58.8406
58.8281
58.8328
58.8625
58.8809
58.8799
58.8705
58.8767
58.883
58.8808
58.877
58.8712
58.8718
58.8698
58.8702
58.8704
58.8691
58.8644
58.863
58.8583
58.8657
58.8762
58.8643
58.8688
58.88
58.8803
58.8798
58.864
58.866
58.8708
58.8583
58.8629
58.8684
58.8684
58.8682
58.8569
58.8562
58.8522
58.8382
55.0046
55.9062
56.8422
57.7016
58.3164
58.6839
58.841
58.872
58.8712
58.8633
58.8665
58.8736
58.8722
58.8677
58.8666
58.8839
58.8853
58.8919
58.9217
58.9304
58.9352
58.9393
58.9382
58.9386
58.9381
58.9353
58.9266
58.9314
58.9369
58.9315
58.9299
58.9293
58.9262
58.9212
58.922
58.9202
58.9168
58.9099
58.8925
58.8762
58.8675
58.8489
58.8408
58.8387
58.8363
58.836
58.8299
58.833
58.8347
58.8318
58.8339
58.8315
58.8236
58.8254
58.8265
58.819
58.8167
58.8195
58.8182
58.8268
58.8332
58.8322
58.8299
58.8294
58.8463
58.8498
58.8528
58.8543
58.8514
58.8405
58.8407
58.8486
58.8479
58.8488
58.8522
58.8524
58.8504
58.8485
58.842
58.8481
58.8515
58.851
58.8506
58.8401
58.8367
58.8464
58.8543
58.8537
58.8529
58.8391
55.0014
55.9088
56.8498
57.6896
58.3161
58.6852
58.8589
58.8975
58.9002
58.8997
58.894
58.8938
58.8938
58.9023
58.9077
58.9041
58.9039
58.8962
58.9023
58.9165
58.9132
58.9141
58.911
58.9202
58.9269
58.918
58.9246
58.9401
58.9408
58.9408
58.9385
58.9363
58.9255
58.9197
58.9139
58.9082
58.9034
58.8984
58.8941
58.8897
58.8808
58.8737
58.8685
58.8634
58.8528
58.8413
58.8312
58.827
58.8244
58.8207
58.8087
58.8131
58.8319
58.8333
58.831
58.8275
58.8252
58.82
58.8102
58.8127
58.8213
58.8279
58.8333
58.8224
58.8264
58.8402
58.8428
58.8406
58.8371
58.8278
58.8295
58.837
58.8262
58.831
58.8419
58.836
58.8301
58.8356
58.8449
58.8424
58.8359
58.8319
58.839
58.839
58.8401
58.8508
58.8554
58.855
58.8541
58.8346
55.0037
55.9042
56.853
57.6922
58.307
58.689
58.8652
58.9006
58.8935
58.8974
58.9114
58.9046
58.9034
58.9176
58.9243
58.917
58.9241
58.9327
58.9221
58.9283
58.9352
58.9238
58.9259
58.9395
58.9365
58.9438
58.9511
58.9452
58.9472
58.951
58.9488
58.9461
58.9428
58.938
58.9308
58.9153
58.9021
58.8946
58.8863
58.8799
58.8751
58.8708
58.8682
58.866
58.8638
58.8606
58.8538
58.8384
58.8188
58.8185
58.8253
58.8238
58.8179
58.8153
58.828
58.8321
58.8286
58.8193
58.8148
58.8219
58.828
58.8262
58.8213
58.8238
58.8237
58.8335
58.8432
58.8422
58.8428
58.8397
58.8389
58.8376
58.827
58.8259
58.8466
58.8528
58.8502
58.8413
58.8449
58.8506
58.8508
58.8507
58.838
58.834
58.8439
58.848
58.8447
58.8453
58.8436
58.8308
55.0031
55.9065
56.8481
57.6994
58.3027
58.6815
58.8737
58.9269
58.928
58.9258
58.9228
58.9204
58.9113
58.9155
58.9281
58.9201
58.9171
58.9251
58.9307
58.9241
58.9309
58.9414
58.9304
58.9335
58.9473
58.9432
58.9473
58.9484
58.9443
58.9438
58.9434
58.9417
58.9396
58.9372
58.9331
58.9247
58.9148
58.9042
58.8969
58.8914
58.8868
58.883
58.8782
58.8752
58.8701
58.8582
58.853
58.8421
58.8383
58.8367
58.8337
58.827
58.8221
58.8445
58.8649
58.8722
58.8845
58.8841
58.8822
58.8805
58.8778
58.8683
58.874
58.8795
58.8722
58.873
58.8732
58.8736
58.8702
58.868
58.8638
58.8619
58.8566
58.859
58.8601
58.8551
58.8549
58.8534
58.8499
58.8567
58.8619
58.8613
58.861
58.8482
58.8521
58.8605
58.8588
58.8587
58.8564
58.8418
55.0033
55.9057
56.8499
57.697
58.3029
58.6877
58.8678
58.9063
58.9177
58.9235
58.9105
58.9139
58.9228
58.9196
58.9195
58.914
58.9193
58.9262
58.9222
58.923
58.9198
58.9253
58.9424
58.9344
58.9386
58.9554
58.9565
58.9542
58.9524
58.9489
58.9465
58.9454
58.9389
58.9339
58.9283
58.9179
58.91
58.9032
58.8929
58.8686
58.8571
58.8529
58.8541
58.8547
58.8542
58.8508
58.8392
58.8306
58.8366
58.8421
58.8406
58.8397
58.8282
58.8377
58.8603
58.8519
58.8533
58.8731
58.8771
58.8759
58.8758
58.8723
58.8695
58.8571
58.8532
58.8582
58.8583
58.863
58.8654
58.8625
58.8524
58.8533
58.8631
58.8561
58.8626
58.869
58.8604
58.8641
58.8654
58.8636
58.864
58.8596
58.8487
58.84
58.8399
58.837
58.8453
58.8538
58.8508
58.8394
55.0041
55.9032
56.8546
57.6901
58.3083
58.6899
58.8603
58.9084
58.909
58.9022
58.9064
58.9118
58.9073
58.9025
58.9077
58.9216
58.9171
58.9191
58.9198
58.9131
58.9161
58.9341
58.9387
58.9375
58.9342
58.9318
58.9311
58.9272
58.9225
58.929
58.9307
58.9285
58.9264
58.9248
58.9242
58.9235
58.921
58.9178
58.9126
58.8985
58.8837
58.8759
58.8694
58.8645
58.8615
58.8558
58.8439
58.8232
58.8246
58.833
58.8329
58.8329
58.8223
58.8343
58.8617
58.8646
58.8636
58.858
58.8698
58.8797
58.8791
58.8785
58.8659
58.8694
58.8752
58.8724
58.8721
58.8707
58.8706
58.8672
58.8591
58.8641
58.8709
58.8689
58.8687
58.8687
58.8682
58.857
58.8511
58.8605
58.8703
58.8698
58.8712
58.8692
58.8674
58.8638
58.8552
58.853
58.8492
58.8367
55.0041
55.906
56.8464
57.6948
58.3192
58.6855
58.8401
58.8658
58.8656
58.8627
58.8682
58.8834
58.8804
58.8811
58.8807
58.8732
58.8729
58.8893
58.8923
58.8878
58.8911
58.9199
58.9333
58.9315
58.9243
58.9277
58.9328
58.9187
58.9222
58.9287
58.9272
58.9268
58.925
58.9254
58.9229
58.919
58.9079
58.9045
58.8971
58.88
58.8681
58.8635
58.8594
58.8472
58.8473
58.8491
58.8357
58.8393
58.8443
58.8309
58.8303
58.8385
58.8387
58.8388
58.8385
58.8428
58.8441
58.841
58.8352
58.8224
58.8288
58.8405
58.841
58.841
58.829
58.8353
58.8493
58.8435
58.8488
58.8506
58.849
58.8487
58.8382
58.8416
58.8562
58.8468
58.8506
58.8601
58.8474
58.8501
58.86
58.8612
58.8613
58.8561
58.8484
58.8522
58.8615
58.8608
58.8604
58.844
55.0034
55.9102
56.8449
57.6901
58.3251
58.6771
58.8455
58.886
58.8862
58.884
58.8876
58.8887
58.8858
58.8771
58.8751
58.8886
58.8877
58.8959
58.902
58.9005
58.8959
58.895
58.9219
58.9344
58.9321
58.932
58.9305
58.9293
58.9172
58.9189
58.9196
58.917
58.9166
58.9129
58.9099
58.9057
58.8967
58.8915
58.8872
58.8821
58.8757
58.8715
58.8673
58.8642
58.8615
58.8575
58.8449
58.8447
58.8457
58.8453
58.8452
58.8383
58.8258
58.8249
58.8269
58.8242
58.8218
58.8243
58.8479
58.8565
58.8568
58.8567
58.8438
58.8473
58.8534
58.8522
58.8523
58.8443
58.842
58.8426
58.8405
58.848
58.8562
58.8566
58.8566
58.8436
58.8472
58.8573
58.8558
58.8557
58.8561
58.8557
58.8423
58.8456
58.8513
58.8487
58.8436
58.8381
58.8368
58.8274
55.0028
55.9107
56.8453
57.6894
58.3247
58.6777
58.847
58.8843
58.8771
58.8743
58.8789
58.8842
58.8812
58.8697
58.8684
58.8935
58.9057
58.904
58.9005
58.8949
58.9064
58.9128
58.9128
58.9115
58.9181
58.9279
58.9261
58.9277
58.9277
58.9248
58.9207
58.9133
58.9053
58.9006
58.891
58.8849
58.8832
58.8833
58.8835
58.8838
58.8824
58.8803
58.8774
58.8721
58.8588
58.8468
58.8414
58.8391
58.8342
58.8174
58.816
58.8276
58.8233
58.8293
58.8576
58.8649
58.8635
58.862
58.8598
58.8572
58.8493
58.854
58.8597
58.858
58.8603
58.8589
58.8562
58.8455
58.8474
58.8587
58.859
58.8562
58.8552
58.8545
58.8467
58.8442
58.848
58.8461
58.851
58.8524
58.8487
58.8498
58.8468
58.8477
58.8484
58.8459
58.8344
58.8374
58.8438
58.8309
55.0032
55.906
56.8494
57.6973
58.3036
58.6836
58.8713
58.9177
58.9182
58.9161
58.9128
58.9142
58.9095
58.9164
58.9281
58.9262
58.9263
58.9232
58.9239
58.9211
58.9236
58.9243
58.9175
58.9239
58.9378
58.9258
58.9306
58.9374
58.9285
58.932
58.9323
58.9287
58.9223
58.9149
58.9085
58.9025
58.8985
58.8906
58.8866
58.8827
58.8792
58.8762
58.8712
58.8648
58.8503
58.8381
58.8392
58.8397
58.8361
58.8448
58.8562
58.8507
58.8535
58.8542
58.8517
58.8451
58.8383
58.8401
58.8489
58.8486
58.8457
58.8458
58.8495
58.8497
58.8494
58.8399
58.8404
58.8474
58.847
58.8429
58.8441
58.857
58.8574
58.8632
58.865
58.8634
58.863
58.8552
58.8538
58.8522
58.853
58.853
58.84
58.8449
58.8561
58.856
58.856
58.8525
58.85
58.835
55.0028
55.9073
56.8489
57.6991
58.3002
58.6821
58.8697
58.9198
58.9282
58.9254
58.914
58.9154
58.9245
58.9216
58.9226
58.9195
58.919
58.9191
58.9277
58.9437
58.9414
58.9427
58.9427
58.9325
58.9353
58.9422
58.938
58.9389
58.9367
58.9338
58.9314
58.9302
58.9306
58.9273
58.9203
58.9167
58.9104
58.9056
58.9007
58.8904
58.8856
58.8828
58.8779
58.8668
58.8613
58.858
58.8527
58.8498
58.8438
58.8414
58.8347
58.84
58.8498
58.8494
58.8493
58.8408
58.846
58.8552
58.8532
58.8541
58.854
58.8513
58.845
58.8434
58.8398
58.8446
58.8583
58.8522
58.8598
58.8698
58.8709
58.8685
58.8546
58.8544
58.8692
58.8716
58.868
58.8683
58.8684
58.8661
58.8638
58.861
58.8584
58.8564
58.8547
58.8417
58.842
58.8455
58.8429
58.8327
55.0007
55.9102
56.8504
57.6896
58.3106
58.6914
58.8538
58.8876
58.8887
58.8907
58.8878
58.8767
58.8792
58.8816
58.8706
58.875
58.8944
58.8971
58.8949
58.8878
58.8949
58.9074
58.916
58.9199
58.9098
58.9152
58.9182
58.9155
58.9119
58.9012
58.9039
58.9061
58.902
58.8881
58.8876
58.8883
58.881
58.8812
58.8809
58.8806
58.8778
58.8753
58.8724
58.8613
58.8494
58.8389
58.8355
58.8317
58.8195
58.8202
58.834
58.8344
58.8401
58.8422
58.841
58.8406
58.8285
58.8307
58.8505
58.847
58.8543
58.861
58.8536
58.8533
58.853
58.8449
58.8458
58.8536
58.8493
58.8503
58.8496
58.8407
58.8405
58.8477
58.8462
58.8421
58.8469
58.8553
58.8529
58.8445
58.8469
58.8558
58.8464
58.8511
58.8537
58.8515
58.8451
58.8466
58.8498
58.8361
55.0034
55.9054
56.8507
57.6948
58.3069
58.6819
58.8685
58.9225
58.9279
58.9251
58.9135
58.9179
58.9259
58.9175
58.9134
58.912
58.9062
58.9098
58.9224
58.9162
58.9151
58.9198
58.9175
58.9257
58.9394
58.9382
58.938
58.9369
58.9366
58.9314
58.9168
58.9116
58.9096
58.9072
58.9083
58.9061
58.9038
58.9013
58.9
58.8951
58.888
58.8824
58.8762
58.8635
58.8549
58.8512
58.8449
58.8413
58.8349
58.8232
58.8315
58.8499
58.8476
58.8476
58.8473
58.8397
58.8415
58.8451
58.8398
58.8412
58.8384
58.8372
58.8328
58.8375
58.8423
58.831
58.836
58.8429
58.8369
58.8333
58.8423
58.8605
58.8581
58.8602
58.8605
58.8584
58.8592
58.8576
58.8554
58.8524
58.8424
58.8457
58.8544
58.8498
58.851
58.85
58.8383
58.8402
58.8456
58.8317
55.0036
55.9057
56.8453
57.6969
58.321
58.6861
58.8322
58.8552
58.8483
58.8528
58.8767
58.8783
58.8763
58.8762
58.8677
58.8763
58.8928
58.8883
58.8864
58.8984
58.9118
58.9022
58.905
58.9215
58.9181
58.9256
58.9415
58.9401
58.9376
58.9354
58.9352
58.9315
58.9299
58.924
58.9105
58.9029
58.8987
58.8941
58.8861
58.8819
58.8793
58.8763
58.8741
58.8744
58.8731
58.8613
58.8482
58.852
58.857
58.8495
58.8528
58.8539
58.8507
58.8448
58.8336
58.8363
58.8429
58.84
58.8291
58.8272
58.8357
58.8403
58.8384
58.83
58.8381
58.846
58.8455
58.8454
58.839
58.8378
58.8285
58.8308
58.8471
58.8483
58.8462
58.8381
58.8349
58.8394
58.8408
58.8346
58.8331
58.84
58.8388
58.8475
58.8551
58.8445
58.8501
58.8547
58.851
58.8373
55.0037
55.9043
56.853
57.6916
58.3074
58.6895
58.8559
58.9204
58.9246
58.9247
58.9244
58.9137
58.9083
58.9064
58.9
58.9056
58.9167
58.9056
58.9114
58.9195
58.9149
58.9159
58.9139
58.9076
58.9136
58.9251
58.9157
58.9208
58.9229
58.9205
58.918
58.9149
58.9084
58.9061
58.9041
58.9025
58.9
58.8898
58.8755
58.8749
58.8761
58.8725
58.8721
58.8699
58.8696
58.8671
58.8533
58.8495
58.8541
58.8514
58.8542
58.8561
58.8544
58.8531
58.8567
58.8576
58.8556
58.8536
58.8388
58.8344
58.8348
58.8362
58.8354
58.8364
58.8375
58.8289
58.8254
58.8351
58.8413
58.8325
58.833
58.8513
58.8562
58.8543
58.8533
58.8427
58.8487
58.8565
58.8546
58.852
58.8436
58.8425
58.8397
58.8475
58.8526
58.8499
58.8438
58.8406
58.8415
58.8314
55.002
55.908
56.8458
57.6946
58.3198
58.682
58.8483
58.8885
58.8913
58.8889
58.8858
58.8787
58.8807
58.9046
58.9176
58.9114
58.9168
58.9193
58.918
58.9179
58.915
58.9064
58.9042
58.9133
58.9259
58.9243
58.9101
58.9129
58.9227
58.922
58.9214
58.9216
58.9221
58.9195
58.9198
58.917
58.9124
58.9022
58.8964
58.8847
58.8617
58.8593
58.8606
58.8568
58.853
58.858
58.8643
58.8642
58.8642
58.8587
58.8572
58.8554
58.8551
58.8523
58.8499
58.848
58.8439
58.8422
58.84
58.8366
58.8257
58.829
58.8334
58.8231
58.8262
58.8393
58.8398
58.8394
58.8287
58.8305
58.8499
58.8534
58.8501
58.8384
58.8404
58.8506
58.8507
58.8496
58.8352
58.8332
58.8512
58.8622
58.863
58.8614
58.8626
58.8595
58.845
58.8423
58.8453
58.8365
55.0045
55.9045
56.8451
57.6961
58.3237
58.6882
58.8224
58.8399
58.8425
58.8645
58.8717
58.8758
58.888
58.8799
58.8842
58.8964
58.885
58.8854
58.8949
58.8912
58.8897
58.892
58.888
58.895
58.908
58.9095
58.907
58.8931
58.8973
58.9064
58.8957
58.9001
58.9031
58.9015
58.8974
58.8976
58.8974
58.8929
58.8904
58.8905
58.891
58.8892
58.8888
58.8828
58.8684
58.8598
58.8529
58.8367
58.8292
58.8324
58.8332
58.8292
58.828
58.8419
58.848
58.8469
58.8467
58.8361
58.84
58.8484
58.8435
58.8451
58.8425
58.8309
58.8296
58.8326
58.833
58.8282
58.8305
58.8466
58.8425
58.8487
58.8516
58.8484
58.849
58.8493
58.8482
58.8366
58.8433
58.8613
58.8535
58.8597
58.8641
58.8585
58.8582
58.8548
58.8586
58.8601
58.8554
58.8384
55.0026
55.908
56.8468
57.6924
58.3238
58.6772
58.841
58.8764
58.8765
58.8756
58.8649
58.8692
58.8833
58.8771
58.8825
58.885
58.8762
58.8742
58.8907
58.9022
58.9017
58.9014
58.8913
58.8938
58.8953
58.9016
58.908
58.907
58.9065
58.8939
58.8962
58.8978
58.8926
58.8909
58.889
58.8893
58.8887
58.8862
58.8754
58.8711
58.8688
58.8663
58.8618
58.8593
58.8559
58.8496
58.8331
58.8365
58.8521
58.8429
58.8471
58.8569
58.8545
58.8546
58.8529
58.8446
58.8409
58.8405
58.8379
58.8301
58.83
58.8388
58.8393
58.8435
58.8446
58.8369
58.8394
58.8595
58.8622
58.8566
58.8623
58.867
58.8651
58.8646
58.8634
58.863
58.8518
58.8465
58.8559
58.8614
58.8589
58.8508
58.8536
58.8587
58.8518
58.8518
58.8513
58.8519
58.8504
58.8368
55.0044
55.9059
56.8462
57.6969
58.3152
58.6824
58.8484
58.8829
58.883
58.8826
58.8782
58.8718
58.8772
58.9048
58.9058
58.9045
58.9001
58.8978
58.8937
58.8935
58.9118
58.9237
58.9228
58.9221
58.9172
58.9131