/*--------------------------------*- C++ -*----------------------------------*\
  =========                 |
  \\      /  F ield         | OpenFOAM: The Open Source CFD Toolbox
   \\    /   O peration     | Website:  https://openfoam.org
    \\  /    A nd           | Version:  11
     \\/     M anipulation  |
\*---------------------------------------------------------------------------*/
FoamFile
{
    format      ascii;
    class       volScalarField;
    location    "0.082";
    object      p;
}
// * * * * * * * * * * * * * * * * * * * * * * * * * * * * * * * * * * * * * //

dimensions      [0 2 -2 0 0 0 0];

internalField   nonuniform List<scalar> 
287084
(
1.68936
1.40235
1.3459
1.27613
1.20666
1.15373
1.10312
1.05648
1.0115
0.967558
0.923911
0.879542
0.835626
0.792268
0.747695
0.702063
0.656071
0.60989
0.563761
0.517979
0.472616
0.428217
0.38467
0.342758
0.301915
0.26304
0.228622
0.198074
0.171459
0.150082
0.128947
0.107951
0.0904071
0.0771852
0.0676275
0.0608861
0.0569225
0.0554013
0.0559883
0.0583856
0.0622916
0.0674215
0.073495
0.0802651
0.0875019
0.094976
0.102531
0.109981
0.117085
0.123992
0.129693
0.135603
0.142498
0.147777
0.152098
0.155787
0.159248
0.161834
0.163389
0.164371
0.164602
0.164345
0.163501
0.162137
0.160245
0.157803
0.154904
0.151449
0.147686
0.143312
0.138641
0.133835
0.128383
0.122551
0.116569
0.110186
0.103557
0.096704
0.0895886
0.0822981
0.0747466
0.0670448
0.0591533
0.0510645
0.0426275
0.0340745
0.0251791
0.0156475
0.00517188
0.000573915
1.55376
1.36131
1.31406
1.25587
1.19494
1.14555
1.09743
1.05221
1.00819
0.96482
0.921506
0.877655
0.833867
0.78988
0.744869
0.69918
0.653127
0.606854
0.560548
0.514543
0.468967
0.42437
0.380698
0.338798
0.2985
0.260264
0.225609
0.195019
0.167876
0.142684
0.120265
0.100712
0.0846798
0.0721507
0.0629187
0.0565728
0.0529432
0.0517372
0.0526283
0.0553232
0.0595138
0.0649151
0.071244
0.0782564
0.0857121
0.0934021
0.101144
0.108786
0.116148
0.123204
0.12977
0.135955
0.141874
0.146997
0.151406
0.155223
0.158466
0.161006
0.162761
0.163859
0.164285
0.164096
0.163317
0.161986
0.160107
0.157718
0.154796
0.151421
0.147602
0.143356
0.138703
0.133677
0.128255
0.122508
0.11652
0.110146
0.103537
0.0966985
0.0895777
0.082286
0.0747536
0.0670562
0.0591483
0.0511069
0.0428107
0.0343939
0.0256951
0.0168149
0.00742597
0.00179985
1.52711
1.35516
1.30616
1.24979
1.19116
1.14242
1.09487
1.04977
1.00562
0.962035
0.918403
0.874447
0.830268
0.785569
0.740203
0.694202
0.64774
0.601011
0.554224
0.507694
0.461635
0.416487
0.372477
0.330106
0.289672
0.251531
0.216537
0.184503
0.155875
0.131071
0.109284
0.0905058
0.0750366
0.0628621
0.0540253
0.0481614
0.0450435
0.0443717
0.0458233
0.0490824
0.0538279
0.0597649
0.066607
0.0740973
0.0820003
0.0901052
0.0982314
0.106218
0.113918
0.121262
0.128077
0.134443
0.140476
0.145768
0.1504
0.15436
0.157639
0.160257
0.162105
0.163285
0.16379
0.163693
0.162963
0.161684
0.159847
0.157469
0.154612
0.151248
0.147462
0.143206
0.13855
0.133587
0.128217
0.122463
0.116454
0.110123
0.103515
0.0966523
0.0895791
0.0822932
0.0747801
0.0671006
0.0592342
0.0511382
0.042915
0.0344551
0.0256946
0.0166791
0.00760768
0.0023697
1.47934
1.32046
1.27699
1.22559
1.17271
1.12763
1.08302
1.03998
0.997337
0.95468
0.91168
0.868052
0.823802
0.778773
0.73301
0.686544
0.639528
0.592169
0.544699
0.49742
0.45062
0.404711
0.359994
0.316963
0.275964
0.237379
0.201847
0.169787
0.140939
0.115446
0.093423
0.0748585
0.059893
0.0484444
0.0403529
0.0353288
0.0330738
0.0332858
0.0356216
0.0397532
0.0453472
0.0520997
0.0597115
0.0679243
0.0764963
0.0852201
0.0939159
0.102423
0.110613
0.118393
0.12568
0.13241
0.138579
0.144068
0.148851
0.152976
0.156402
0.15913
0.161131
0.162437
0.163071
0.163056
0.162439
0.16123
0.15945
0.157157
0.154323
0.151013
0.147248
0.14304
0.138432
0.133425
0.128067
0.122358
0.116355
0.11003
0.103453
0.096632
0.0895481
0.0822626
0.0747698
0.0670854
0.0592322
0.0512338
0.0430428
0.034635
0.0260868
0.017135
0.00822914
0.00288026
1.45622
1.30601
1.26502
1.21571
1.16504
1.12091
1.07694
1.0341
0.991396
0.948499
0.905111
0.861049
0.816249
0.770582
0.72409
0.676818
0.628945
0.580643
0.532183
0.483876
0.436027
0.389078
0.34338
0.29942
0.257601
0.218368
0.182188
0.149309
0.120008
0.0944399
0.0726784
0.0546874
0.0404461
0.0298154
0.0226288
0.0186004
0.0174193
0.0187476
0.0222189
0.0274778
0.034177
0.0419894
0.0506112
0.0597718
0.0692235
0.0787587
0.0881916
0.0973737
0.10617
0.114488
0.122243
0.129388
0.135907
0.141731
0.146829
0.15121
0.154836
0.15775
0.159927
0.161385
0.162157
0.162282
0.161759
0.160641
0.158949
0.156697
0.153939
0.150685
0.146961
0.142794
0.138215
0.133251
0.127924
0.122233
0.11624
0.109951
0.10339
0.0965655
0.0895197
0.0822613
0.0747865
0.0671459
0.0593202
0.0513061
0.043175
0.0347423
0.0261344
0.0172094
0.00831583
0.00295138
1.43156
1.28301
1.24369
1.19644
1.14817
1.10606
1.06386
1.0224
0.980698
0.938418
0.895337
0.851265
0.806172
0.759968
0.712758
0.664628
0.61574
0.566327
0.516659
0.467069
0.417938
0.369669
0.322732
0.277573
0.234705
0.194537
0.157587
0.1242
0.0945818
0.0689274
0.0473364
0.0298139
0.0162958
0.00663563
0.000585146
-0.00216079
-0.00197566
0.000771666
0.00568011
0.0123616
0.0204432
0.0295828
0.0394573
0.0497894
0.0603271
0.070858
0.0812029
0.0912088
0.100756
0.109745
0.11811
0.12579
0.132755
0.138963
0.144393
0.149059
0.152956
0.156094
0.158477
0.160127
0.161069
0.161327
0.16094
0.159931
0.158328
0.156175
0.153484
0.150285
0.146616
0.142491
0.137954
0.133018
0.127715
0.122064
0.116097
0.109832
0.10329
0.0964941
0.0894556
0.0822028
0.0747531
0.067115
0.0593079
0.0513386
0.043217
0.0347978
0.0262547
0.0173568
0.00851144
0.00314823
1.4134
1.26757
1.23001
1.18424
1.13744
1.09621
1.0546
1.01337
0.971657
0.929149
0.885634
0.840982
0.795139
0.748047
0.699809
0.650498
0.600336
0.549511
0.498355
0.44722
0.396491
0.346662
0.298179
0.251601
0.207429
0.166162
0.128305
0.0942128
0.0642336
0.0385391
0.0172711
0.000403841
-0.0121675
-0.020643
-0.0253206
-0.0265535
-0.0247504
-0.02033
-0.0137306
-0.00537308
0.00433752
0.0150336
0.0263821
0.0380934
0.0499069
0.0616082
0.0730157
0.0839864
0.0943968
0.10416
0.113205
0.121489
0.128983
0.13566
0.141509
0.146544
0.150756
0.154167
0.156795
0.158661
0.159792
0.160223
0.159978
0.159094
0.157608
0.15554
0.152935
0.149814
0.146209
0.142148
0.137662
0.132771
0.127506
0.121887
0.115947
0.109704
0.103187
0.096409
0.0893964
0.0821688
0.0747359
0.0671291
0.0593406
0.0513795
0.0432754
0.0348842
0.026327
0.0173988
0.00855654
0.00315112
1.39634
1.2508
1.21378
1.16895
1.12308
1.08276
1.04192
1.00127
0.95991
0.917496
0.873819
0.828731
0.782213
0.734219
0.68487
0.634277
0.582641
0.53023
0.47736
0.424422
0.371877
0.320197
0.269958
0.221695
0.176024
0.133464
0.0945744
0.0597824
0.0294295
0.00375071
-0.0171434
-0.0332689
-0.044769
-0.0518888
-0.0549756
-0.0544401
-0.0507494
-0.04438
-0.035815
-0.0255188
-0.0139317
-0.00144424
0.0115929
0.0248752
0.0381371
0.0511668
0.0637841
0.075844
0.0872351
0.0978728
0.107699
0.116673
0.124775
0.131984
0.138298
0.143731
0.148299
0.152025
0.154928
0.157035
0.15838
0.158991
0.158908
0.158167
0.1568
0.154842
0.152327
0.149285
0.145751
0.141749
0.137316
0.132467
0.12724
0.121662
0.115754
0.109547
0.103056
0.0963048
0.0893134
0.0821062
0.0746967
0.0671045
0.059337
0.051406
0.0433149
0.0349487
0.0264313
0.0174329
0.00855644
0.00317005
1.3815
1.23675
1.20054
1.15638
1.11125
1.07139
1.03086
0.990266
0.948746
0.905973
0.861713
0.815865
0.76837
0.71921
0.668508
0.616367
0.563045
0.508776
0.453945
0.398961
0.344302
0.290551
0.238266
0.188116
0.140731
0.0967146
0.0566872
0.0210896
-0.00963176
-0.0352786
-0.05569
-0.0709324
-0.0811727
-0.0867125
-0.0879718
-0.0854191
-0.0795917
-0.0710239
-0.060256
-0.0477936
-0.0341076
-0.0196219
-0.004709
0.0103196
0.0251913
0.0396865
0.0536337
0.0668938
0.0793605
0.0909605
0.101638
0.111367
0.120128
0.127919
0.134748
0.140635
0.1456
0.149669
0.152872
0.155243
0.15682
0.157636
0.157735
0.157147
0.155916
0.154073
0.151661
0.148708
0.145252
0.141323
0.136948
0.132154
0.126974
0.121433
0.11556
0.109378
0.102917
0.0961939
0.0892257
0.0820383
0.0746472
0.0670771
0.0593243
0.0514042
0.0433257
0.0349857
0.0264901
0.0174932
0.00858753
0.00320554
1.36779
1.22316
1.18719
1.14338
1.09858
1.05902
1.01865
0.978106
0.936437
0.893315
0.848489
0.801815
0.753282
0.702853
0.650663
0.596841
0.541625
0.485321
0.428302
0.371034
0.314065
0.257975
0.203464
0.151193
0.101922
0.0563012
0.0150099
-0.0214122
-0.0525338
-0.078082
-0.0979353
-0.112157
-0.120971
-0.124744
-0.123951
-0.119152
-0.110945
-0.09994
-0.0867327
-0.0718812
-0.0558969
-0.0392291
-0.0222709
-0.00534769
0.0112652
0.0273492
0.0427316
0.0572874
0.0709153
0.083548
0.0951484
0.105689
0.115166
0.123586
0.130966
0.137333
0.142719
0.147158
0.150685
0.153342
0.155165
0.156194
0.156476
0.156056
0.154969
0.153251
0.150948
0.148093
0.144717
0.140854
0.136539
0.1318
0.126669
0.121175
0.115342
0.109196
0.102763
0.096067
0.0891231
0.0819582
0.0745869
0.0670348
0.0593001
0.0513984
0.0433282
0.0349821
0.0264717
0.0174633
0.00859073
0.00320351
1.35523
1.21078
1.17506
1.13151
1.08693
1.04746
1.00706
0.966295
0.924224
0.880537
0.834902
0.787231
0.737461
0.68559
0.63173
0.576021
0.518743
0.460178
0.40077
0.34101
0.281478
0.222864
0.165873
0.111317
0.0599825
0.0126239
-0.0299967
-0.0673192
-0.0988063
-0.124221
-0.143394
-0.156457
-0.163664
-0.165461
-0.162409
-0.155139
-0.14434
-0.130688
-0.114846
-0.0974265
-0.0789751
-0.0599732
-0.0408312
-0.0218873
-0.0034204
0.0143484
0.0312584
0.0471831
0.0620318
0.0757508
0.0883124
0.0997079
0.109935
0.119016
0.126979
0.133858
0.139692
0.144519
0.148386
0.151337
0.153421
0.154678
0.155161
0.154912
0.153976
0.152389
0.150199
0.14744
0.144151
0.14037
0.136121
0.13144
0.12636
0.12091
0.115114
0.109001
0.1026
0.0959292
0.0890119
0.0818706
0.074517
0.0669853
0.0592656
0.0513727
0.0433099
0.0349885
0.0264523
0.0174264
0.00861375
0.00324857
1.34356
1.19913
1.16347
1.12002
1.07543
1.03591
0.995344
0.954263
0.911706
0.867346
0.820843
0.772059
0.720965
0.667521
0.611861
0.554139
0.494615
0.433642
0.371658
0.309221
0.246964
0.185614
0.126012
0.068983
0.0154594
-0.033739
-0.077779
-0.116
-0.147861
-0.173052
-0.191463
-0.20323
-0.208675
-0.208328
-0.202823
-0.192897
-0.179315
-0.162838
-0.144191
-0.124042
-0.102985
-0.0815223
-0.0600882
-0.0390317
-0.0186326
0.000896257
0.0193889
0.0367327
0.0528509
0.0676994
0.0812637
0.0935425
0.10455
0.114315
0.122878
0.13028
0.13657
0.141797
0.146014
0.149271
0.151622
0.153114
0.153799
0.153734
0.152954
0.151502
0.149428
0.14677
0.143571
0.139866
0.135687
0.131064
0.126033
0.120628
0.114874
0.108799
0.102427
0.0957836
0.0888923
0.0817757
0.0744445
0.0669265
0.0592203
0.0513483
0.0433021
0.035009
0.0265305
0.0174618
0.00857056
0.00321832
1.33271
1.18829
1.15264
1.1092
1.06455
1.02487
0.984015
0.942489
0.899301
0.854162
0.806646
0.756648
0.704092
0.64897
0.591389
0.531513
0.469632
0.406085
0.341388
0.276104
0.210955
0.146744
0.0843488
0.0247494
-0.0310788
-0.0821988
-0.127684
-0.166823
-0.19899
-0.223909
-0.241434
-0.251777
-0.255313
-0.252655
-0.244541
-0.231796
-0.215283
-0.195842
-0.174272
-0.151292
-0.127531
-0.10353
-0.0797335
-0.0565036
-0.0341195
-0.0127938
0.00731875
0.0261138
0.0435252
0.0595197
0.0740967
0.0872717
0.0990684
0.109531
0.118702
0.12664
0.1334
0.139037
0.143612
0.147179
0.149804
0.151533
0.152426
0.152535
0.15191
0.150596
0.148642
0.146089
0.142978
0.139352
0.135243
0.130683
0.125707
0.120346
0.114632
0.108594
0.102255
0.0956391
0.0887691
0.0816728
0.0743599
0.0668628
0.059171
0.0513045
0.0432628
0.0349601
0.026426
0.0173936
0.00861222
0.00327135
1.32262
1.17817
1.14248
1.09896
1.05412
1.01418
0.972961
0.930918
0.887056
0.841046
0.792446
0.741138
0.687063
0.630167
0.570582
0.508467
0.444112
0.377917
0.310381
0.242169
0.174014
0.106817
0.0415653
-0.0207115
-0.0789019
-0.131982
-0.178931
-0.21895
-0.251407
-0.275964
-0.292524
-0.301328
-0.302832
-0.297744
-0.286897
-0.271227
-0.251681
-0.22919
-0.204618
-0.178736
-0.152222
-0.125637
-0.0994504
-0.0740233
-0.0496397
-0.0265066
-0.0047688
0.0154858
0.0341969
0.0513448
0.0669426
0.0810144
0.0936016
0.104758
0.114542
0.123013
0.130237
0.136283
0.141215
0.145093
0.147984
0.149948
0.151047
0.151341
0.150872
0.149695
0.147859
0.145409
0.14239
0.138842
0.134802
0.130299
0.125374
0.120061
0.114387
0.108383
0.102072
0.0954869
0.0886451
0.0815694
0.0742789
0.0667975
0.059116
0.051268
0.0432291
0.0349548
0.0264348
0.0173857
0.0085963
0.00325211
1.31328
1.16878
1.13298
1.08935
1.0443
1.00405
0.962392
0.919759
0.875134
0.828196
0.778462
0.725801
0.670135
0.611426
0.549775
0.485358
0.418485
0.349554
0.279141
0.207903
0.136696
0.0664688
-0.00171481
-0.0666862
-0.127266
-0.182291
-0.230674
-0.271546
-0.304205
-0.32833
-0.343826
-0.350999
-0.350383
-0.34278
-0.329129
-0.310468
-0.287846
-0.262277
-0.234688
-0.205904
-0.176637
-0.147484
-0.118915
-0.0913032
-0.0649336
-0.0400065
-0.016658
0.00503099
0.0250189
0.0433031
0.0599026
0.0748593
0.0882247
0.100067
0.110449
0.119446
0.12713
0.133574
0.138854
0.143036
0.146198
0.148398
0.149702
0.150167
0.14985
0.148808
0.147089
0.14474
0.141807
0.138334
0.134361
0.129921
0.125051
0.119782
0.114148
0.108181
0.101903
0.0953419
0.0885185
0.0814649
0.0741887
0.0667253
0.0590608
0.0512257
0.0432047
0.0349275
0.0264363
0.0173911
0.00858887
0.0032592
1.30466
1.16012
1.1242
1.0804
1.03507
0.994455
0.95231
0.909063
0.863666
0.815731
0.764857
0.710832
0.653569
0.593021
0.529305
0.462581
0.393169
0.321515
0.248186
0.173955
0.0996687
0.0264111
-0.0446783
-0.112338
-0.175269
-0.232204
-0.281967
-0.32362
-0.356428
-0.380041
-0.394415
-0.3999
-0.397115
-0.386967
-0.370501
-0.348857
-0.323174
-0.294553
-0.263981
-0.232336
-0.200367
-0.168689
-0.137795
-0.108057
-0.0797579
-0.0530903
-0.0281811
-0.0050946
0.0161374
0.0355215
0.0530988
0.0689121
0.0830316
0.0955326
0.106494
0.116002
0.124129
0.130961
0.136583
0.14106
0.144471
0.146891
0.14839
0.149029
0.14886
0.147947
0.146344
0.144095
0.141249
0.137851
0.133942
0.129554
0.124733
0.11951
0.113912
0.107976
0.101727
0.0951929
0.0883949
0.0813598
0.0741037
0.0666548
0.0590042
0.0511749
0.0431644
0.0348954
0.0263996
0.017357
0.00857262
0.00327062
1.2968
1.15219
1.11613
1.07214
1.02655
0.985538
0.942907
0.898996
0.852803
0.803896
0.751907
0.696497
0.637643
0.575284
0.509514
0.440513
0.368608
0.294252
0.218086
0.140877
0.0635981
-0.0126348
-0.0865714
-0.156835
-0.222035
-0.280781
-0.331844
-0.374181
-0.407052
-0.430091
-0.44329
-0.44706
-0.442111
-0.429443
-0.41021
-0.385651
-0.356994
-0.325419
-0.291968
-0.25757
-0.223004
-0.188911
-0.155788
-0.124012
-0.0938648
-0.0655323
-0.0391308
-0.0147156
0.00769649
0.0281298
0.0466306
0.063261
0.0780931
0.0912218
0.102735
0.112725
0.121275
0.128472
0.134411
0.139169
0.142829
0.145465
0.147155
0.147952
0.147924
0.147133
0.145634
0.143479
0.140713
0.137385
0.133537
0.129208
0.124437
0.119254
0.113694
0.107789
0.101567
0.0950571
0.0882778
0.0812663
0.0740243
0.06659
0.0589499
0.0511397
0.0431438
0.0348995
0.0264427
0.0173626
0.00853645
0.00323698
1.28969
1.14503
1.10882
1.06465
1.01874
0.977355
0.934192
0.889673
0.842597
0.79287
0.739787
0.682999
0.622611
0.558502
0.490769
0.419573
0.345266
0.268335
0.189413
0.109377
0.0291962
-0.0498623
-0.126519
-0.199251
-0.266581
-0.32703
-0.379267
-0.422206
-0.455065
-0.477487
-0.4895
-0.49158
-0.484524
-0.469429
-0.447548
-0.420208
-0.388728
-0.354355
-0.318181
-0.281185
-0.244175
-0.207808
-0.172591
-0.138907
-0.107031
-0.0771435
-0.0493491
-0.0236879
-0.000164443
0.0212465
0.0406083
0.0579972
0.0735021
0.087215
0.0992389
0.109676
0.118614
0.126154
0.132397
0.137416
0.141301
0.144139
0.145995
0.146941
0.147045
0.146371
0.144972
0.142903
0.140214
0.136954
0.133168
0.128887
0.124155
0.11901
0.113483
0.107608
0.101411
0.094922
0.0881637
0.0811672
0.0739392
0.0665179
0.0588932
0.0510946
0.0431062
0.0348754
0.0264529
0.0173937
0.00851459
0.00321087
1.28339
1.13866
1.1023
1.05795
1.01175
0.969974
0.926353
0.881202
0.833472
0.782765
0.728551
0.670586
0.608762
0.543008
0.473414
0.40016
0.323594
0.244226
0.162746
0.0800348
-0.0028266
-0.084549
-0.163719
-0.238729
-0.308027
-0.369993
-0.423274
-0.466686
-0.49947
-0.521241
-0.532092
-0.532549
-0.523502
-0.506129
-0.481777
-0.451859
-0.417763
-0.380807
-0.342132
-0.30275
-0.2635
-0.225053
-0.187923
-0.152496
-0.119041
-0.0877296
-0.0586625
-0.0318712
-0.00734736
0.0149597
0.0351105
0.0531942
0.0693045
0.0835498
0.0960432
0.106892
0.116193
0.124044
0.130554
0.135815
0.139909
0.142925
0.144944
0.146027
0.14625
0.145678
0.144371
0.142381
0.13976
0.136559
0.132824
0.12859
0.1239
0.118793
0.113298
0.107448
0.101272
0.0948054
0.0880695
0.081091
0.0738737
0.0664663
0.0588472
0.0510546
0.0430745
0.0348417
0.0263826
0.0173165
0.00853262
0.00325958
1.27791
1.13313
1.09663
1.05209
1.00562
0.963494
0.91941
0.873709
0.825262
0.773758
0.718616
0.659472
0.596328
0.529075
0.457796
0.382662
0.30405
0.22248
0.138649
0.0535307
-0.0317927
-0.115889
-0.197338
-0.274384
-0.345421
-0.40874
-0.462895
-0.506697
-0.539344
-0.560476
-0.570229
-0.569187
-0.558316
-0.538876
-0.512293
-0.480056
-0.443627
-0.404364
-0.363454
-0.321945
-0.280696
-0.24039
-0.201554
-0.164572
-0.129709
-0.0971348
-0.0669304
-0.0391261
-0.0137021
0.00939373
0.0302448
0.0489477
0.0656023
0.0803188
0.0932223
0.104429
0.114043
0.122171
0.128924
0.134392
0.13867
0.141847
0.144001
0.14521
0.14554
0.145062
0.143834
0.141913
0.139355
0.136209
0.132521
0.128327
0.123672
0.118591
0.113123
0.107301
0.101147
0.0946963
0.0879724
0.0810053
0.0738029
0.0664038
0.0587939
0.0510109
0.0430318
0.0348045
0.0263497
0.0173023
0.00853585
0.00326086
1.2733
1.12845
1.0918
1.04715
1.0004
0.957969
0.913487
0.867289
0.818252
0.766026
0.709995
0.649864
0.585569
0.516994
0.444228
0.367454
0.287034
0.203518
0.117649
0.0304091
-0.0570321
-0.14323
-0.226652
-0.305449
-0.377988
-0.442416
-0.497299
-0.541367
-0.573859
-0.594387
-0.603143
-0.600766
-0.588294
-0.567051
-0.538532
-0.504289
-0.465834
-0.424581
-0.381747
-0.338408
-0.295442
-0.253544
-0.213245
-0.17493
-0.138862
-0.105198
-0.074024
-0.045355
-0.0191665
0.00461149
0.0260585
0.0452824
0.0623975
0.0775261
0.0907867
0.102303
0.112193
0.120562
0.127524
0.133174
0.137612
0.140925
0.143201
0.144513
0.144935
0.144536
0.143379
0.141518
0.139012
0.135911
0.132261
0.128104
0.123482
0.11843
0.112983
0.107176
0.10104
0.0946075
0.0878992
0.0809467
0.0737536
0.0663653
0.0587621
0.0509879
0.0430184
0.0347883
0.0263569
0.0173062
0.00852561
0.00325446
1.26955
1.12467
1.08793
1.04311
0.996177
0.95347
0.908662
0.862041
0.812527
0.759634
0.702874
0.641938
0.576677
0.507006
0.433007
0.354852
0.272936
0.187808
0.100227
0.0112357
-0.0780008
-0.165909
-0.250971
-0.331212
-0.404965
-0.470317
-0.525708
-0.569978
-0.602306
-0.622304
-0.630217
-0.62672
-0.612909
-0.590168
-0.560051
-0.524156
-0.484046
-0.44116
-0.396752
-0.351912
-0.307535
-0.264329
-0.222827
-0.183414
-0.146353
-0.111803
-0.0798328
-0.0504534
-0.0236318
0.000699645
0.0226397
0.0422978
0.0597981
0.0752593
0.0888091
0.100575
0.110683
0.11925
0.126381
0.132177
0.136743
0.140168
0.14254
0.143943
0.14444
0.144104
0.143
0.141189
0.138724
0.135658
0.132042
0.127913
0.123318
0.118288
0.112862
0.107076
0.100952
0.0945304
0.0878321
0.0808871
0.0737019
0.0663162
0.0587235
0.0509516
0.0429905
0.034779
0.0263358
0.017281
0.00850828
0.00325609
1.26671
1.12182
1.08499
1.04005
0.992954
0.950052
0.904976
0.858032
0.808098
0.754773
0.697472
0.635858
0.569849
0.49932
0.424354
0.345141
0.262057
0.175674
0.086777
-0.0035771
-0.0941775
-0.183417
-0.269739
-0.351062
-0.425803
-0.491768
-0.547544
-0.59191
-0.624126
-0.643695
-0.650938
-0.64657
-0.631725
-0.607834
-0.576489
-0.539328
-0.497947
-0.453815
-0.408202
-0.362217
-0.316764
-0.272561
-0.23014
-0.189894
-0.152079
-0.116845
-0.084267
-0.0543449
-0.0270455
-0.00228989
0.0200247
0.0400116
0.0577974
0.0735166
0.0872919
0.0992547
0.10953
0.11824
0.125504
0.131415
0.13608
0.139589
0.142039
0.143501
0.144055
0.143771
0.142713
0.14094
0.13851
0.135475
0.131882
0.127778
0.123197
0.118184
0.112774
0.106997
0.100885
0.0944714
0.0877816
0.0808475
0.0736682
0.0662944
0.0587058
0.0509429
0.0429798
0.0347727
0.0263282
0.017264
0.00850476
0.00324749
1.26482
1.11989
1.083
1.038
0.990793
0.947734
0.902488
0.855321
0.805087
0.751476
0.693802
0.63173
0.565208
0.494106
0.418493
0.338548
0.254672
0.167443
0.0776384
-0.0136365
-0.105194
-0.195313
-0.282527
-0.364571
-0.44008
-0.506408
-0.562269
-0.606689
-0.638877
-0.658154
-0.664947
-0.65998
-0.644434
-0.61976
-0.587584
-0.549568
-0.507332
-0.46236
-0.415934
-0.369175
-0.322998
-0.278119
-0.235078
-0.194267
-0.155938
-0.120247
-0.0872587
-0.056973
-0.0293475
-0.00430503
0.0182606
0.0384681
0.0564518
0.0723391
0.0862627
0.0983561
0.108751
0.117563
0.124913
0.130903
0.135634
0.139203
0.1417
0.143212
0.143806
0.143553
0.142521
0.140773
0.138362
0.135342
0.131769
0.127675
0.123111
0.118112
0.112712
0.106944
0.100838
0.0944324
0.0877491
0.0808162
0.0736419
0.0662663
0.0586826
0.0509211
0.0429712
0.0347698
0.0263522
0.0172991
0.00850128
0.00325235
1.26387
1.11893
1.08201
1.03697
0.989715
0.946575
0.901262
0.853968
0.80365
0.749796
0.691891
0.629652
0.562869
0.491468
0.415513
0.335204
0.250921
0.163258
0.0730031
-0.0187418
-0.110762
-0.201345
-0.288994
-0.371408
-0.447339
-0.513944
-0.569591
-0.614094
-0.646296
-0.665435
-0.672
-0.666735
-0.650832
-0.625766
-0.59317
-0.554723
-0.512052
-0.466654
-0.419819
-0.372674
-0.326131
-0.280915
-0.237566
-0.196472
-0.157888
-0.121964
-0.0887714
-0.0582985
-0.030507
-0.00532041
0.017374
0.0376989
0.0557802
0.0717522
0.0857503
0.0979114
0.108361
0.11722
0.124615
0.130643
0.135409
0.139006
0.141527
0.143055
0.143671
0.143437
0.14242
0.140685
0.138288
0.135283
0.131713
0.127628
0.123067
0.118074
0.112677
0.106912
0.100818
0.0944154
0.0877335
0.0808025
0.0736282
0.0662619
0.0586788
0.0509198
0.0429648
0.0347598
0.026313
0.0172428
0.00849637
0.00326418
1.26387
1.11893
1.082
1.03697
0.989717
0.946573
0.90126
0.853971
0.803654
0.749792
0.69188
0.629652
0.562868
0.49147
0.415522
0.335211
0.250936
0.163269
0.0730105
-0.018729
-0.110758
-0.201334
-0.288987
-0.3714
-0.447345
-0.51393
-0.569567
-0.614099
-0.646284
-0.665424
-0.671989
-0.666722
-0.650821
-0.625753
-0.593159
-0.554713
-0.512043
-0.466645
-0.41981
-0.372664
-0.326121
-0.280905
-0.237554
-0.196461
-0.157877
-0.121956
-0.0887651
-0.0582985
-0.0305081
-0.0053196
0.0173738
0.0376929
0.0557734
0.0717467
0.0857466
0.0979063
0.108357
0.11722
0.124614
0.130641
0.135406
0.139005
0.141528
0.143059
0.143674
0.143443
0.142424
0.140689
0.13829
0.135279
0.131712
0.127626
0.123068
0.118075
0.112679
0.106915
0.100814
0.0944122
0.0877318
0.0807999
0.0736288
0.0662549
0.0586712
0.0509141
0.0429624
0.0347598
0.0263328
0.0172795
0.00849774
0.00324757
1.26482
1.1199
1.08301
1.03801
0.990807
0.947744
0.902519
0.855335
0.805111
0.751477
0.693792
0.631733
0.565211
0.49411
0.418486
0.33855
0.254671
0.167445
0.0776415
-0.0136294
-0.105173
-0.195295
-0.282503
-0.364527
-0.440056
-0.506325
-0.562202
-0.606709
-0.638842
-0.658118
-0.664908
-0.659942
-0.644394
-0.619725
-0.587551
-0.549538
-0.507303
-0.462331
-0.415906
-0.369151
-0.322978
-0.278103
-0.235065
-0.194255
-0.15593
-0.12024
-0.0872519
-0.056967
-0.0293426
-0.00429948
0.0182688
0.0384786
0.0564652
0.0723546
0.0862759
0.0983696
0.108761
0.117568
0.124913
0.1309
0.13563
0.139198
0.141698
0.143203
0.143797
0.143545
0.142515
0.140767
0.138359
0.135343
0.131765
0.127672
0.123105
0.118106
0.112705
0.106935
0.100837
0.0944331
0.08775
0.0808177
0.0736403
0.0662687
0.0586784
0.0509204
0.0429617
0.0347582
0.0263118
0.0172473
0.00850129
0.00325849
1.26672
1.12181
1.08499
1.04006
0.992965
0.950057
0.904987
0.858053
0.808138
0.754759
0.697432
0.635861
0.56985
0.499327
0.424369
0.345152
0.262079
0.175699
0.0868003
-0.00354454
-0.0941515
-0.18337
-0.269705
-0.35101
-0.425769
-0.49167
-0.547476
-0.591895
-0.624066
-0.64364
-0.650879
-0.64651
-0.631665
-0.607774
-0.576433
-0.539274
-0.497898
-0.45377
-0.40816
-0.36218
-0.316728
-0.272528
-0.23011
-0.189867
-0.152054
-0.116824
-0.0842502
-0.0543314
-0.0270322
-0.00227875
0.020034
0.0400183
0.0578038
0.0735199
0.087292
0.0992528
0.109533
0.118243
0.125501
0.131413
0.136077
0.139589
0.142035
0.143498
0.144056
0.143774
0.142714
0.140941
0.13851
0.13547
0.131876
0.12777
0.12319
0.118179
0.112769
0.106991
0.10088
0.0944694
0.0877786
0.0808387
0.0736613
0.0662815
0.0586921
0.0509253
0.0429684
0.0347417
0.0262966
0.0172702
0.00853576
0.00329218
1.26955
1.12468
1.08793
1.04312
0.996189
0.953479
0.908689
0.862061
0.812556
0.759637
0.702865
0.641944
0.576681
0.507019
0.433015
0.354874
0.272952
0.187829
0.100256
0.0112628
-0.0779512
-0.165866
-0.25091
-0.331152
-0.404898
-0.470227
-0.525638
-0.569905
-0.602218
-0.622216
-0.630127
-0.626632
-0.612825
-0.590088
-0.559974
-0.524083
-0.483978
-0.441097
-0.396696
-0.351863
-0.307493
-0.264291
-0.222792
-0.183383
-0.146325
-0.111776
-0.0798089
-0.0504309
-0.0236127
0.000715578
0.0226526
0.042308
0.0598058
0.0752679
0.0888197
0.100587
0.110694
0.119255
0.126383
0.132178
0.136743
0.140164
0.142536
0.143934
0.14443
0.144094
0.142992
0.141184
0.138721
0.135656
0.132038
0.127911
0.123311
0.11828
0.112853
0.107065
0.100947
0.0945253
0.0878287
0.0808866
0.0736974
0.0663134
0.0587144
0.0509507
0.0429821
0.0347701
0.026342
0.0172763
0.00851012
0.00325124
1.27329
1.12846
1.09184
1.04713
1.00042
0.957976
0.913505
0.867317
0.818312
0.766006
0.70995
0.649866
0.585575
0.517006
0.444248
0.367472
0.28707
0.203559
0.117688
0.0304641
-0.0569832
-0.143159
-0.226583
-0.305374
-0.3779
-0.442321
-0.497193
-0.541276
-0.573749
-0.594283
-0.603038
-0.600663
-0.588188
-0.566948
-0.538434
-0.504196
-0.46575
-0.424504
-0.38168
-0.338351
-0.295387
-0.253495
-0.213198
-0.174885
-0.138819
-0.10516
-0.0739902
-0.0453235
-0.0191393
0.004632
0.0260809
0.045302
0.0624138
0.0775398
0.090799
0.102312
0.112195
0.120561
0.127517
0.133169
0.137608
0.140923
0.143197
0.144507
0.144931
0.144535
0.143374
0.141514
0.13901
0.135905
0.132253
0.128093
0.123469
0.11842
0.112975
0.107169
0.101036
0.0945987
0.0878865
0.0809341
0.0737416
0.0663492
0.0587463
0.0509704
0.0430014
0.0347745
0.0263264
0.0172851
0.0085371
0.00328059
1.27791
1.13314
1.09664
1.0521
1.00563
0.963502
0.919438
0.873732
0.825335
0.773762
0.718561
0.659475
0.596338
0.529096
0.457818
0.382696
0.304087
0.222512
0.138704
0.0535766
-0.031716
-0.115827
-0.197251
-0.274303
-0.345319
-0.40863
-0.462781
-0.506577
-0.53922
-0.560349
-0.570104
-0.569062
-0.558194
-0.53876
-0.512182
-0.47995
-0.443525
-0.404268
-0.363369
-0.321867
-0.280625
-0.240326
-0.201497
-0.16452
-0.12966
-0.0970893
-0.0668898
-0.0390894
-0.013674
0.00941715
0.0302609
0.0489535
0.0656046
0.080325
0.0932296
0.104432
0.114047
0.12218
0.128931
0.134394
0.13867
0.141841
0.143996
0.145204
0.145535
0.145054
0.143826
0.141909
0.139351
0.136204
0.132514
0.128322
0.123666
0.118587
0.113114
0.10729
0.10114
0.0946912
0.0879657
0.0809998
0.0737929
0.0663929
0.0587822
0.0510071
0.043025
0.0348021
0.0263542
0.0172975
0.00852543
0.00323899
1.28339
1.13867
1.10232
1.05795
1.01176
0.969985
0.92636
0.881225
0.833491
0.782762
0.728557
0.670594
0.608773
0.543024
0.473446
0.400196
0.323642
0.244282
0.1628
0.0801087
-0.00275249
-0.0844558
-0.163621
-0.238625
-0.307902
-0.369871
-0.423135
-0.466557
-0.499329
-0.521101
-0.531951
-0.532411
-0.523365
-0.505997
-0.481649
-0.451736
-0.417649
-0.380704
-0.342036
-0.302667
-0.263423
-0.224983
-0.18786
-0.152441
-0.118991
-0.0876833
-0.0586171
-0.0318257
-0.00730539
0.0149944
0.035143
0.0532208
0.0693296
0.0835779
0.0960636
0.106899
0.116191
0.124043
0.13055
0.135805
0.139901
0.142919
0.144934
0.146018
0.146243
0.145674
0.144365
0.142376
0.139758
0.136556
0.132815
0.12858
0.123889
0.118778
0.113284
0.107436
0.101263
0.0947936
0.0880535
0.0810724
0.0738552
0.0664452
0.0588237
0.0510363
0.043047
0.034821
0.026348
0.0172924
0.00854149
0.00324996
1.28971
1.14504
1.10881
1.06467
1.01876
0.977359
0.93423
0.889685
0.842712
0.792858
0.739712
0.683011
0.622631
0.558533
0.490803
0.419611
0.345321
0.268377
0.189487
0.109432
0.0292896
-0.0497841
-0.12641
-0.19914
-0.266458
-0.326899
-0.379124
-0.422054
-0.454913
-0.477327
-0.489343
-0.491424
-0.484377
-0.469288
-0.447409
-0.420075
-0.3886
-0.354232
-0.31807
-0.281082
-0.244084
-0.207724
-0.172517
-0.138843
-0.106975
-0.0770891
-0.0492943
-0.0236414
-0.000126896
0.0212819
0.0406392
0.0580219
0.0735191
0.08723
0.0992495
0.109677
0.118617
0.12616
0.132397
0.137412
0.141298
0.14413
0.145986
0.146931
0.147037
0.146363
0.144965
0.142897
0.140208
0.136947
0.133158
0.128878
0.124146
0.119002
0.113473
0.107598
0.1014
0.094912
0.0881525
0.0811568
0.0739266
0.0665025
0.0588736
0.0510733
0.0430865
0.0348105
0.0263688
0.017356
0.00856393
0.00327292
1.2968
1.1522
1.11615
1.07216
1.02655
0.985563
0.942912
0.899034
0.852838
0.803921
0.751881
0.696507
0.637661
0.575305
0.50955
0.440555
0.36866
0.294323
0.218159
0.140967
0.0636913
-0.012533
-0.086452
-0.156713
-0.221892
-0.28064
-0.331686
-0.374024
-0.40689
-0.429925
-0.443125
-0.446894
-0.441949
-0.429289
-0.410063
-0.385511
-0.35686
-0.325295
-0.291852
-0.257464
-0.222904
-0.188819
-0.155705
-0.123941
-0.093801
-0.0654745
-0.039077
-0.0146641
0.00774424
0.0281741
0.0466701
0.063297
0.0781274
0.0912501
0.102753
0.112733
0.121275
0.12847
0.134405
0.139162
0.142822
0.145455
0.147141
0.147941
0.147915
0.147128
0.145629
0.143474
0.140711
0.137381
0.133529
0.129197
0.124423
0.119242
0.113682
0.107773
0.10155
0.0950386
0.0882597
0.0812448
0.0739982
0.066563
0.0589234
0.0511122
0.0431107
0.0348583
0.0263759
0.0173031
0.00855197
0.00327341
1.30469
1.16013
1.12417
1.08043
1.03509
0.994474
0.952335
0.909077
0.863693
0.815755
0.764868
0.710853
0.653593
0.593054
0.529347
0.462625
0.393239
0.321565
0.248276
0.174023
0.0997749
0.0265101
-0.0445593
-0.112211
-0.175129
-0.232052
-0.281809
-0.323451
-0.356257
-0.379864
-0.394241
-0.399723
-0.39695
-0.386804
-0.37034
-0.348702
-0.323027
-0.294415
-0.263854
-0.23222
-0.200263
-0.168594
-0.13771
-0.107983
-0.0796907
-0.0530281
-0.0281181
-0.00503923
0.0161879
0.0355717
0.0531403
0.068947
0.0830595
0.0955559
0.106512
0.116006
0.12413
0.130962
0.136577
0.141052
0.144467
0.146885