/*--------------------------------*- C++ -*----------------------------------*\
  =========                 |
  \\      /  F ield         | OpenFOAM: The Open Source CFD Toolbox
   \\    /   O peration     | Website:  https://openfoam.org
    \\  /    A nd           | Version:  11
     \\/     M anipulation  |
\*---------------------------------------------------------------------------*/
FoamFile
{
    format      ascii;
    class       volScalarField;
    location    "0.024";
    object      k;
}
// * * * * * * * * * * * * * * * * * * * * * * * * * * * * * * * * * * * * * //

dimensions      [0 2 -2 0 0 0 0];

internalField   nonuniform List<scalar> 
287084
(
0.383032
0.392067
0.39524
0.395771
0.395768
0.395725
0.395552
0.395615
0.395837
0.395836
0.395791
0.395731
0.395614
0.395691
0.395926
0.395788
0.395884
0.395983
0.395911
0.395941
0.39595
0.395902
0.395869
0.395847
0.39567
0.395697
0.395826
0.395839
0.395841
0.395596
0.395675
0.395772
0.395524
0.395612
0.395741
0.395706
0.395622
0.395667
0.395772
0.39557
0.395663
0.395722
0.3955
0.395594
0.39571
0.395471
0.395562
0.395687
0.395689
0.395689
0.395656
0.395565
0.395587
0.395709
0.395541
0.395632
0.395677
0.395651
0.395585
0.395664
0.395786
0.395573
0.395663
0.395769
0.395679
0.39568
0.395592
0.39569
0.395737
0.395708
0.395624
0.39567
0.395813
0.395806
0.395772
0.395759
0.395773
0.395635
0.395714
0.395741
0.395716
0.395711
0.395495
0.395546
0.395688
0.395492
0.395593
0.395681
0.39565
0.39556
0.383043
0.391959
0.395263
0.395872
0.395839
0.39586
0.395854
0.395871
0.395833
0.39584
0.395789
0.395599
0.395657
0.395735
0.395493
0.395587
0.395733
0.395561
0.395517
0.395796
0.396004
0.395982
0.395946
0.39593
0.395951
0.395818
0.395889
0.395912
0.395738
0.395786
0.395804
0.395587
0.39568
0.395799
0.395567
0.395645
0.39583
0.395754
0.39577
0.395781
0.395764
0.395558
0.39562
0.395753
0.395756
0.395753
0.395486
0.395552
0.395648
0.395405
0.395479
0.395674
0.395627
0.395622
0.395526
0.395649
0.395726
0.395571
0.395669
0.395726
0.395628
0.395575
0.395662
0.395735
0.395647
0.395683
0.395752
0.395731
0.395587
0.395707
0.395836
0.395766
0.395757
0.395622
0.395711
0.395824
0.395717
0.395708
0.395705
0.395632
0.395593
0.395576
0.395528
0.395549
0.395551
0.395561
0.395448
0.395556
0.395684
0.395439
0.383042
0.391952
0.395255
0.395867
0.395775
0.395874
0.395922
0.395807
0.395864
0.395952
0.395925
0.395896
0.395719
0.395655
0.395764
0.395855
0.395817
0.395758
0.395647
0.395738
0.395936
0.395906
0.39594
0.395938
0.395955
0.395931
0.395817
0.395851
0.395896
0.395714
0.395832
0.395931
0.395722
0.395839
0.395953
0.395765
0.395889
0.395987
0.39585
0.395861
0.395854
0.395868
0.395801
0.395786
0.395809
0.395756
0.395789
0.395811
0.395759
0.395634
0.395575
0.395645
0.395682
0.39563
0.395697
0.395749
0.395524
0.395618
0.395709
0.39567
0.39562
0.395686
0.395853
0.395714
0.395772
0.395785
0.395744
0.395636
0.395712
0.395763
0.395606
0.395607
0.395563
0.395639
0.395674
0.39552
0.395644
0.395812
0.395733
0.395751
0.395744
0.395771
0.395763
0.395614
0.395666
0.395719
0.395515
0.395595
0.395635
0.395425
0.38304
0.391959
0.395207
0.395949
0.395918
0.396018
0.396047
0.395989
0.395996
0.395929
0.395917
0.395919
0.395847
0.395856
0.39588
0.395884
0.395884
0.395678
0.395782
0.395916
0.39577
0.395771
0.395759
0.395773
0.395714
0.395676
0.395588
0.395705
0.395878
0.395858
0.395839
0.395604
0.39569
0.39581
0.395589
0.395672
0.39584
0.395682
0.395769
0.395871
0.395785
0.395795
0.395859
0.395858
0.395829
0.3958
0.395557
0.39561
0.395736
0.395667
0.39569
0.395603
0.395567
0.39551
0.395655
0.395749
0.395581
0.395677
0.395736
0.395702
0.395664
0.395618
0.395804
0.395844
0.395772
0.395765
0.395789
0.39581
0.395763
0.395601
0.395585
0.395722
0.395757
0.395676
0.395749
0.395808
0.395804
0.395804
0.395734
0.395723
0.395571
0.395668
0.395734
0.395692
0.395686
0.395536
0.395618
0.395658
0.395617
0.3955
0.38304
0.391956
0.395216
0.395914
0.395917
0.395924
0.395847
0.39593
0.395975
0.395872
0.395889
0.395889
0.395838
0.395777
0.395784
0.39587
0.395832
0.395612
0.395644
0.39585
0.395787
0.395914
0.395979
0.395864
0.39588
0.395871
0.395725
0.395801
0.395892
0.395659
0.39572
0.395903
0.395788
0.395877
0.395969
0.395874
0.395907
0.395913
0.395884
0.395876
0.395704
0.395738
0.395787
0.39575
0.395723
0.395605
0.395685
0.39572
0.3956
0.395695
0.395756
0.395517
0.395598
0.39575
0.395591
0.395676
0.39579
0.395711
0.395714
0.395712
0.395579
0.395669
0.395781
0.395567
0.395664
0.395746
0.39554
0.39562
0.395767
0.395599
0.395688
0.395802
0.395701
0.395698
0.395654
0.395732
0.395775
0.395693
0.395731
0.395685
0.39555
0.395662
0.39576
0.395625
0.395712
0.395742
0.395616
0.395707
0.395743
0.395484
0.383036
0.391988
0.395102
0.395598
0.395586
0.395491
0.39559
0.395736
0.395695
0.395689
0.395525
0.395662
0.395882
0.395736
0.395839
0.395903
0.395781
0.395769
0.395754
0.395762
0.395761
0.395635
0.395713
0.395802
0.395569
0.395654
0.395844
0.395793
0.395791
0.395687
0.395811
0.395946
0.395843
0.395857
0.395839
0.395646
0.395701
0.395779
0.39554
0.395639
0.395779
0.395568
0.395681
0.395813
0.395615
0.395733
0.395855
0.395736
0.39575
0.395743
0.395612
0.395674
0.395779
0.395739
0.395696
0.395473
0.395527
0.395713
0.395709
0.395693
0.395465
0.395519
0.395759
0.395756
0.395716
0.395683
0.395563
0.395584
0.395813
0.395746
0.395827
0.395855
0.395754
0.395794
0.395805
0.39564
0.395729
0.395795
0.395612
0.395692
0.395778
0.395703
0.395756
0.395774
0.395719
0.395718
0.395745
0.395766
0.395699
0.395471
0.383016
0.392041
0.395101
0.395651
0.395658
0.395546
0.39563
0.395674
0.39551
0.395521
0.395851
0.39624
0.396291
0.396272
0.396233
0.396202
0.396202
0.396166
0.396134
0.396098
0.396068
0.39605
0.395979
0.396011
0.396025
0.395971
0.395806
0.395858
0.395935
0.395909
0.395837
0.39588
0.395941
0.395725
0.395838
0.395948
0.395758
0.395857
0.395953
0.395851
0.395846
0.39579
0.39588
0.395923
0.395854
0.395872
0.395788
0.395771
0.395778
0.395762
0.395699
0.39573
0.395737
0.395522
0.3956
0.395718
0.395721
0.39572
0.395469
0.395534
0.395682
0.395513
0.395614
0.395671
0.395631
0.395515
0.39554
0.395673
0.395526
0.395609
0.395653
0.395477
0.395566
0.395711
0.395702
0.3957
0.395508
0.395638
0.395781
0.395712
0.395729
0.395731
0.395641
0.395687
0.395755
0.395722
0.395679
0.395699
0.395727
0.395474
0.383039
0.39196
0.395176
0.396066
0.396271
0.396314
0.396321
0.396326
0.396329
0.396335
0.39634
0.39635
0.396311
0.396278
0.396235
0.396204
0.396204
0.396169
0.396138
0.396101
0.396086
0.396067
0.395981
0.396004
0.396028
0.395977
0.3958
0.395837
0.395909
0.39572
0.395839
0.395944
0.395734
0.395849
0.395959
0.395769
0.395824
0.396056
0.396069
0.396058
0.396046
0.395956
0.396016
0.396048
0.395948
0.395957
0.396013
0.395997
0.395965
0.395939
0.395901
0.395828
0.39582
0.395745
0.395717
0.395734
0.395751
0.39571
0.395548
0.395592
0.395791
0.3958
0.395825
0.3958
0.395764
0.395596
0.395693
0.395752
0.395599
0.395603
0.395601
0.39561
0.395471
0.395544
0.395743
0.395767
0.39572
0.39547
0.395486
0.395757
0.395818
0.395787
0.395805
0.395746
0.39554
0.395496
0.395663
0.395732
0.395675
0.395478
0.383029
0.392017
0.395116
0.395708
0.395703
0.395674
0.395662
0.39554
0.395509
0.395818
0.396227
0.396282
0.396265
0.396228
0.396197
0.396201
0.396221
0.396177
0.396148
0.396045
0.396036
0.396057
0.396048
0.396062
0.396032
0.395979
0.395788
0.395836
0.395915
0.395726
0.395845
0.395947
0.395736
0.395851
0.395959
0.395768
0.395819
0.396047
0.396098
0.396071
0.395981
0.395966
0.395934
0.395892
0.395929
0.395925
0.39587
0.395632
0.395673
0.395718
0.395503
0.395588
0.395646
0.395434
0.395508
0.395715
0.395707
0.39569
0.395462
0.395516
0.395712
0.395705
0.395689
0.395462
0.395474
0.39575
0.3958
0.395773
0.395743
0.395702
0.395667
0.395534
0.395649
0.395819
0.395819
0.39582
0.395787
0.395772
0.395709
0.395738
0.395707
0.395755
0.395836
0.395831
0.395797
0.395777
0.395572
0.395608
0.395693
0.395442
0.383008
0.392064
0.395077
0.395459
0.39564
0.395701
0.395473
0.395543
0.395818
0.395833
0.395774
0.395553
0.39561
0.395862
0.395868
0.395809
0.39559
0.39566
0.395829
0.395723
0.395783
0.395803
0.395669
0.395713
0.39587
0.395871
0.395817
0.39588
0.395934
0.395702
0.395808
0.395939
0.395858
0.395796
0.395815
0.39583
0.395788
0.395675
0.395705
0.395733
0.395493
0.395582
0.395702
0.395477
0.39557
0.395662
0.395439
0.395524
0.39569
0.39556
0.395568
0.395559
0.395568
0.395428
0.39552
0.395634
0.395407
0.395488
0.395644
0.395611
0.395604
0.395411
0.395501
0.395678
0.395576
0.395534
0.395625
0.395677
0.395588
0.395612
0.395605
0.395468
0.395542
0.395648
0.39542
0.395501
0.395659
0.395651
0.395648
0.395433
0.395518
0.395666
0.39563
0.395623
0.395472
0.395437
0.395654
0.395764
0.395714
0.395542
0.383022
0.392009
0.395176
0.395712
0.39574
0.395744
0.395556
0.395618
0.395906
0.395881
0.395888
0.395856
0.395938
0.395981
0.395864
0.395911
0.395995
0.395972
0.395945
0.395781
0.395726
0.39584
0.395929
0.395876
0.395655
0.395725
0.395882
0.395773
0.395784
0.395726
0.395838
0.395961
0.395888
0.395895
0.395846
0.395652
0.395705
0.39577
0.395528
0.395624
0.39576
0.39555
0.395662
0.395792
0.395594
0.395697
0.395814
0.395796
0.395792
0.395578
0.395655
0.395713
0.395506
0.395583
0.395715
0.395672
0.395525
0.395509
0.395593
0.395602
0.395602
0.395409
0.395515
0.39566
0.395584
0.395574
0.395439
0.395546
0.39583
0.395775
0.395808
0.395769
0.395798
0.395812
0.395689
0.395773
0.395842
0.395786
0.395793
0.395808
0.395789
0.395803
0.395806
0.395582
0.395659
0.395747
0.395621
0.39565
0.395603
0.395458
0.38302
0.392022
0.395141
0.395786
0.395825
0.395801
0.395797
0.395695
0.395621
0.395816
0.396224
0.39633
0.396311
0.396281
0.396242
0.396211
0.396212
0.396182
0.396104
0.396114
0.396119
0.396091
0.396111
0.396129
0.396059
0.395814
0.395845
0.395925
0.395689
0.395775
0.395844
0.395607
0.395702
0.395815
0.395579
0.395676
0.395809
0.395594
0.395704
0.395828
0.395626
0.39574
0.395856
0.395735
0.395748
0.39574
0.395605
0.395669
0.395717
0.395697
0.395693
0.395557
0.395483
0.39559
0.395665
0.395615
0.395629
0.395629
0.395521
0.395562
0.39567
0.395664
0.395663
0.395587
0.395532
0.395493
0.395458
0.395624
0.395746
0.395713
0.395705
0.395483
0.39557
0.395682
0.395598
0.395588
0.39545
0.395599
0.395772
0.395647
0.395655
0.39561
0.395664
0.39568
0.395663
0.395673
0.395604
0.395675
0.3957
0.395469
0.383039
0.39196
0.395175
0.396065
0.39627
0.396311
0.39632
0.396325
0.396327
0.396335
0.396343
0.396352
0.396315
0.396284
0.396244
0.396215
0.396217
0.396193
0.396106
0.396108
0.396117
0.396079
0.396041
0.396007
0.395983
0.395973
0.395825
0.395879
0.395949
0.395753
0.395867
0.395961
0.395746
0.395768
0.396021
0.396034
0.396014
0.396012
0.395887
0.395944
0.39601
0.395976
0.395993
0.395911
0.395932
0.39595
0.395899
0.395808
0.39581
0.395829
0.395806
0.3958
0.395604
0.395686
0.395783
0.395711
0.395701
0.395586
0.395724
0.395828
0.395742
0.395732
0.395629
0.395745
0.395811
0.395612
0.395701
0.395759
0.395602
0.395603
0.395599
0.395608
0.39547
0.395543
0.395742
0.395766
0.395719
0.395469
0.395527
0.395723
0.395718
0.395702
0.395475
0.395487
0.39576
0.395825
0.395796
0.395808
0.395746
0.395485
0.38301
0.39205
0.395123
0.395573
0.395571
0.395526
0.395648
0.395798
0.395703
0.395735
0.395688
0.395561
0.395644
0.395797
0.39579
0.39579
0.39573
0.395668
0.395758
0.395998
0.39586
0.395946
0.39605
0.395964
0.395956
0.395955
0.39591
0.395901
0.395857
0.395734
0.395862
0.395964
0.395749
0.395764
0.396012
0.396037
0.396019
0.396014
0.395986
0.395989
0.395969
0.395936
0.395946
0.395975
0.395956
0.395922
0.395846
0.395596
0.395607
0.395754
0.395641
0.395719
0.395749
0.395695
0.39559
0.395516
0.395625
0.395721
0.395695
0.395699
0.395549
0.395625
0.395763
0.395642
0.395664
0.395607
0.395667
0.395687
0.39563
0.395639
0.395539
0.395628
0.395826
0.395681
0.395765
0.395884
0.395835
0.395847
0.395855
0.395839
0.395718
0.39561
0.395592
0.395573
0.395703
0.395825
0.395749
0.395747
0.395726
0.395523
0.383039
0.39196
0.395176
0.396065
0.39627
0.396312
0.39632
0.396325
0.396329
0.396336
0.396343
0.396353
0.396316
0.396285
0.396248
0.396219
0.396222
0.396196
0.396134
0.396107
0.396093
0.396105
0.396122
0.396123
0.39606
0.395821
0.395869
0.395952
0.395845
0.395872
0.395823
0.395678
0.395754
0.395827
0.395581
0.395675
0.395804
0.395586
0.395693
0.395814
0.395611
0.395727
0.395838
0.395684
0.395677
0.395638
0.395717
0.39581
0.395809
0.395809
0.395738
0.395709
0.395689
0.395658
0.395618
0.395493
0.395509
0.395859
0.395933
0.39592
0.395944
0.395918
0.395868
0.395825
0.395814
0.395636
0.395696
0.395752
0.395598
0.395601
0.395599
0.395607
0.395468
0.395542
0.395741
0.395765
0.395718
0.395468
0.395527
0.395722
0.395718
0.395702
0.395474
0.39554
0.395693
0.39565
0.395678
0.395655
0.395607
0.395415
0.383058
0.391904
0.3952
0.395838
0.395843
0.39583
0.395881
0.395919
0.395863
0.395865
0.39581
0.395693
0.395653
0.395806
0.395875
0.395819
0.395621
0.395681
0.395853
0.39585
0.395883
0.395837
0.395857
0.395861
0.395768
0.395825
0.395912
0.395676
0.39575
0.395934
0.39593
0.395894
0.395926
0.39595
0.395788
0.395788
0.395766
0.395783
0.395731
0.395549
0.395613
0.395694
0.395457
0.395539
0.39572
0.395531
0.395624
0.395722
0.395726
0.395727
0.395684
0.395629
0.395553
0.395812
0.396157
0.396134
0.396061
0.39606
0.396068
0.396088
0.396025
0.395993
0.395974
0.395939
0.395889
0.395846
0.395836
0.395717
0.395768
0.395807
0.395591
0.395682
0.395748
0.395725
0.395724
0.395675
0.39569
0.395665
0.395572
0.395653
0.395768
0.39576
0.395758
0.395588
0.395686
0.395746
0.395666
0.395656
0.395613
0.395466
0.383056
0.391918
0.395136
0.396046
0.396265
0.396311
0.396321
0.396326
0.39633
0.396337
0.396344
0.396356
0.39632
0.396286
0.396303
0.396273
0.396194
0.396152
0.396166
0.396167
0.396008
0.396037
0.396071
0.395991
0.395957
0.395979
0.395988
0.39575
0.395817
0.3959
0.395879
0.39587
0.395627
0.395696
0.395743
0.395728
0.395721
0.395487
0.395577
0.395697
0.395465
0.395563
0.395705
0.39564
0.395628
0.395456
0.39556
0.395724
0.395671
0.39567
0.39566
0.395535
0.395494
0.395863
0.396041
0.396002
0.396008
0.396017
0.396016
0.395989
0.395974
0.39589
0.395888
0.39589
0.395853
0.395892
0.395844
0.395648
0.395699
0.395734
0.395614
0.395607
0.395584
0.395583
0.39544
0.39552
0.395733
0.395719
0.395726
0.395688
0.395569
0.395645
0.395783
0.395734
0.395756
0.395751
0.395714
0.395739
0.395745
0.395492
0.383039
0.391959
0.395176
0.396066
0.396272
0.396313
0.396322
0.396326
0.396331
0.396338
0.396347
0.396354
0.396367
0.396332
0.396299
0.396318
0.396289
0.396212
0.39617
0.396175
0.39616
0.396151
0.396091
0.396064
0.396052
0.395857
0.395895
0.395974
0.395775
0.395856
0.395888
0.395666
0.395751
0.395827
0.395579
0.39567
0.395793
0.395573
0.39568
0.395799
0.395595
0.395698
0.395842
0.395751
0.395762
0.395751
0.395767
0.395757
0.395764
0.395715
0.395564
0.395563
0.395912
0.396049
0.396002
0.396011
0.396021
0.39602
0.395998
0.395927
0.395901
0.395876
0.395894
0.395847
0.395737
0.395782
0.395793
0.395726
0.395738
0.395751
0.395755
0.395696
0.395506
0.395544
0.395725
0.395762
0.395717
0.395467
0.395539
0.395691
0.395664
0.395705
0.395706
0.395656
0.39544
0.395455
0.395699
0.395738
0.395678
0.39548
0.383056
0.391919
0.395135
0.396047
0.396265
0.396311
0.396321
0.396326
0.396332
0.396339
0.396349
0.396313
0.396279
0.396295
0.396265
0.396188
0.396147
0.39616
0.396162
0.396004
0.396043
0.396083
0.395987
0.396024
0.395976
0.395793
0.395854
0.395935
0.395694
0.395791
0.395926
0.395709
0.395771
0.395866
0.395865
0.395861
0.395744
0.395636
0.395655
0.395676
0.395522
0.395619
0.39568
0.395439
0.395525
0.395617
0.395395
0.395496
0.395631
0.395553
0.395543
0.395407
0.395464
0.395883
0.396075
0.396039
0.396046
0.396067
0.39609
0.396029
0.395999
0.395929
0.395903
0.395882
0.395908
0.395836
0.395844
0.395847
0.395807
0.395769
0.395726
0.395733
0.395724
0.395685
0.395644
0.395536
0.395642
0.395751
0.395735
0.395731
0.395519
0.39561
0.39569
0.395568
0.395623
0.395638
0.395499
0.395584
0.395687
0.395439
0.383056
0.391918
0.395138
0.396043
0.396063
0.396044
0.396004
0.396006
0.396014
0.395989
0.395985
0.395825
0.395845
0.395929
0.395925
0.395919
0.395705
0.395678
0.395827
0.395775
0.3959
0.396084
0.396108
0.396063
0.395809
0.395868
0.39595
0.395711
0.3958
0.395882
0.395645
0.39574
0.395843
0.395599
0.395691
0.395814
0.395664
0.395645
0.39564
0.395532
0.39561
0.395678
0.395564
0.39555
0.395546
0.395553
0.395532
0.39547
0.395506
0.395918
0.396155
0.396204
0.396215
0.396219
0.396221
0.396224
0.396226
0.39623
0.396209
0.396169
0.396149
0.396111
0.396074
0.396085
0.396099
0.396033
0.395959
0.395926
0.395893
0.395901
0.395905
0.39583
0.39585
0.395857
0.395811
0.395682
0.395723
0.395767
0.395609
0.395609
0.395608
0.395584
0.395552
0.395505
0.395589
0.395706
0.395632
0.395634
0.395629
0.395476
0.383033
0.391984
0.39513
0.395659
0.395611
0.395609
0.395511
0.395618
0.395714
0.395485
0.395574
0.395776
0.395589
0.395688
0.39577
0.395714
0.395669
0.395735
0.39602
0.395945
0.396061
0.396126
0.396038
0.396074
0.396026
0.395846
0.395917
0.395996
0.395757
0.395842
0.395971
0.39576
0.395859
0.395967
0.395771
0.395871
0.395929
0.395826
0.395813
0.395745
0.395819
0.395839
0.395747
0.395738
0.395725
0.395576
0.395512
0.395537
0.395512
0.395558
0.395567
0.395443
0.395509
0.395644
0.395564
0.395565
0.395477
0.395458
0.395376
0.395498
0.395619
0.395394
0.395491
0.395613
0.39539
0.395407
0.395591
0.395539
0.395672
0.395756
0.395616
0.395611
0.395604
0.395606
0.395474
0.395548
0.395741
0.395765
0.395718
0.395469
0.39554
0.395691
0.395584
0.395617
0.395622
0.395493
0.395558
0.395692
0.395667
0.395581
0.383039
0.391959
0.395176
0.396067
0.396273
0.396313
0.396321
0.396329
0.396288
0.396252
0.396267
0.396234
0.396154
0.396111
0.396118
0.396105
0.396092
0.396033
0.396039
0.396115
0.396086
0.39602
0.395801
0.395815
0.395941
0.395928
0.395923
0.395736
0.395849
0.395938
0.395904
0.395808
0.395823
0.395844
0.395793
0.395784
0.39565
0.395692
0.3957
0.395613
0.395611
0.395604
0.395444
0.395514
0.395689
0.395607
0.395649
0.395658
0.395635
0.395578
0.395736
0.396108
0.396195
0.396213
0.396218
0.396221
0.396223
0.396225
0.396228
0.39623
0.396237
0.396191
0.39615
0.396149
0.396123
0.396085
0.396108
0.396138
0.396111
0.396048
0.39602
0.395941
0.395908
0.395928
0.39594
0.395863
0.395834
0.395783
0.395637
0.395689
0.39577
0.395581
0.395687
0.395765
0.395605
0.395591
0.395546
0.395621
0.39564
0.395448
0.383039
0.39196
0.395176
0.396066
0.396273
0.396313
0.396322
0.396326
0.396332
0.396339
0.396348
0.396361
0.396327
0.396294
0.396313
0.396286
0.396211
0.39617
0.396183
0.396183
0.396173
0.396107
0.396116
0.396132
0.396086
0.395893
0.395932
0.396011
0.395815
0.3959
0.395937
0.395756
0.395874
0.395972
0.395772
0.39585
0.395978
0.395894
0.395906
0.395941
0.395949
0.395916
0.395879
0.395836
0.395847
0.395849
0.395825
0.395757
0.395587
0.395527
0.395753
0.396116
0.396195
0.396211
0.396217
0.39622
0.396223
0.396225
0.396228
0.396231
0.396234
0.396235
0.396239
0.396222
0.396182
0.396158
0.396128
0.39609
0.396082
0.396099
0.396032
0.396001
0.395981
0.396
0.39594
0.395914
0.395903
0.395924
0.395875
0.395845
0.395829
0.395674
0.395734
0.395786
0.395585
0.395675
0.395731
0.395723
0.39572
0.395484
0.383024
0.392012
0.395147
0.395652
0.395589
0.395729
0.395781
0.39555
0.395635
0.395722
0.395538
0.395494
0.395722
0.396223
0.39628
0.396262
0.396281
0.396226
0.396187
0.396189
0.396118
0.396137
0.396145
0.395942
0.396005
0.39606
0.395934
0.395936
0.395863
0.395836
0.395707
0.395793
0.395858
0.395604
0.395692
0.395808
0.395584
0.39559
0.395877
0.395903
0.395886
0.395851
0.39583
0.395841
0.395836
0.395851
0.395789
0.395756
0.395687
0.395654
0.395597
0.395613
0.395619
0.395496
0.39552
0.395882
0.395939
0.395928
0.39596
0.395875
0.39584
0.395794
0.39583
0.395882
0.395852
0.395822
0.395833
0.395824
0.395806
0.395772
0.39572
0.395555
0.3956
0.39583
0.395818
0.395825
0.395758
0.395829
0.395848
0.395647
0.395718
0.395761
0.395571
0.395629
0.395653
0.395612
0.3955
0.395574
0.395687
0.39544
0.383039
0.39196
0.395176
0.396069
0.396232
0.396226
0.39619
0.396153
0.39615
0.396119
0.396077
0.396077
0.396051
0.395973
0.395929
0.395948
0.39591
0.39592
0.395944
0.395906
0.395745
0.39582
0.395946
0.395932
0.395906
0.395938
0.39598
0.395718
0.395793
0.395891
0.395855
0.395748
0.395768
0.39579
0.39572
0.3957
0.395462
0.395545
0.395681
0.395457
0.395547
0.39563
0.395402
0.395497
0.395596
0.395363
0.395445
0.395628
0.395447
0.395503
0.395587
0.395586
0.395586
0.395414
0.395492
0.395644
0.395597
0.395563
0.395613
0.395653
0.395616
0.395511
0.395545
0.395629
0.3954
0.395498
0.39565
0.395423
0.395516
0.39563
0.395555
0.395489
0.395589
0.395699
0.395589
0.395611
0.395561
0.395519
0.395404
0.395504
0.39566
0.395644
0.39564
0.395433
0.395533
0.395643
0.395414
0.395512
0.395638
0.395405
0.383039
0.39196
0.395176
0.396067
0.396273
0.396314
0.396321
0.396327
0.396332
0.396343
0.396307
0.396272
0.396288
0.396259
0.396182
0.396141
0.396154
0.396182
0.396158
0.396142
0.396112
0.396063
0.396049
0.395997
0.395811
0.395875
0.395962
0.395724
0.395814
0.395897
0.395646
0.395724
0.395803
0.395541
0.395598
0.395809
0.395779
0.395733
0.395504
0.395577
0.395671
0.395579
0.395566
0.395421
0.395535
0.395719
0.395577
0.395665
0.395712
0.395662
0.395507
0.395549
0.395607
0.39537
0.395451
0.395641
0.395484
0.395567
0.395612
0.395431
0.395512
0.39575
0.39574
0.395678
0.395454
0.395535
0.395662
0.395429
0.395517
0.395636
0.395411
0.39551
0.395661
0.395663
0.395663
0.395443
0.395532
0.395643
0.395442
0.395533
0.395674
0.395511
0.395596
0.395643
0.395604
0.395496
0.395564
0.395683
0.395661
0.3956
0.383039
0.39196
0.395176
0.396066
0.396272
0.396313
0.396321
0.396327
0.396332
0.396339
0.396348
0.396358
0.396373
0.39634
0.396309
0.396329
0.396303
0.396228
0.396188
0.396203
0.396212
0.396145
0.396161
0.396183
0.39616
0.396141
0.395925
0.395943
0.396023
0.395998
0.395991
0.395812
0.39591
0.395981
0.395776
0.395871
0.395927
0.395801
0.395793
0.395737
0.395765
0.395835
0.395829
0.395828
0.395665
0.395676
0.39569
0.395624
0.395537
0.395556
0.395948
0.396162
0.396204
0.396212
0.396216
0.396219
0.396222
0.396225
0.396227
0.39623
0.396232
0.396237
0.396193
0.396169
0.396174
0.396161
0.396131
0.396098
0.396033
0.396002
0.395987
0.39601
0.395939
0.395907
0.395908
0.395832
0.395852
0.395858
0.395812
0.395684
0.395723
0.395763
0.395735
0.395734
0.395687
0.395672
0.395464
0.395555
0.395681
0.395437
0.383039
0.391959
0.395176
0.396066
0.396273
0.396314
0.396322
0.396327
0.396333
0.39634
0.396349
0.396361
0.396328
0.396295
0.396313
0.396286
0.39621
0.39617
0.396186
0.396189
0.396034
0.396023
0.396101
0.396106
0.396095
0.39588
0.395939
0.39601
0.395783
0.395874
0.395985
0.395771
0.395873
0.395972
0.395773
0.39585
0.395978
0.395894
0.395906
0.395942
0.395949
0.395916
0.395879
0.395836
0.395848
0.39585
0.395825
0.395758
0.395588
0.395527
0.395753
0.396117
0.396196
0.396213
0.396217
0.39622
0.396222
0.396226
0.396215
0.396174
0.396147
0.396121
0.396087
0.396071
0.396089
0.396018
0.395984
0.395979
0.395958
0.395924
0.395942
0.395946
0.395931
0.395718
0.39575
0.395811
0.395635
0.395724
0.395837
0.395765
0.395752
0.395714
0.39569
0.395696
0.395685
0.395687
0.395541
0.395611
0.395662
0.395429
0.383039
0.391959
0.395176
0.396066
0.396272
0.396314
0.396321
0.39633
0.39629
0.396252
0.396266
0.396234
0.396155
0.396111
0.396118
0.396145
0.396104
0.396073
0.396031
0.395956
0.395933
0.395883
0.395732
0.395817
0.395968
0.395966
0.395941
0.395971
0.396005
0.395925
0.395918
0.395854
0.395817
0.395772
0.395762
0.395596
0.395664
0.395734
0.395682
0.395708
0.395698
0.395653
0.395433
0.395512
0.395694
0.395579
0.395641
0.395663
0.395616
0.395585
0.395743
0.39611
0.396195
0.396213
0.396218
0.396221
0.396224
0.396216
0.396173
0.396158
0.396164
0.396152
0.396124
0.396089
0.396055
0.395974
0.396
0.396033
0.395966
0.395976
0.395978
0.395976
0.395928
0.395769
0.395834
0.395903
0.3958
0.395797
0.395766
0.395788
0.395741
0.39561
0.395697
0.395755
0.395548
0.395649
0.395725
0.395696
0.395688
0.395453
0.383033
0.391984
0.395129
0.395662
0.395614
0.395611
0.395514
0.395536
0.395739
0.395821
0.395767
0.395572
0.395633
0.395804
0.395795
0.395796
0.395709
0.395649
0.395776
0.396035
0.3959
0.396013
0.396078
0.39593
0.396015
0.396042
0.39586
0.395932
0.39602
0.395924
0.395912
0.395794
0.395898
0.395978
0.395775
0.395851
0.395983
0.395986
0.395985
0.395956
0.395953
0.395876
0.395865
0.39588
0.39589
0.395818
0.395597
0.395512
0.395539
0.395496
0.395534
0.395481
0.395448
0.395365
0.395487
0.395607
0.395382
0.395438
0.395626
0.395638
0.395639
0.395435
0.3955
0.395743
0.395745
0.395706
0.395673
0.395555
0.395559
0.395809
0.395794
0.395904
0.395941
0.395846
0.39584
0.395828
0.395835
0.395821
0.395658
0.395699
0.395817
0.395652
0.395703
0.395829
0.395834
0.395829
0.395608
0.39564
0.395667
0.39543
0.383058
0.391904
0.3952
0.395837
0.395812
0.395789
0.395869
0.39591
0.395821
0.395854
0.395807
0.39563
0.395694
0.395801
0.395765
0.395764
0.395578
0.395703
0.395895
0.395858
0.395875
0.39589
0.395874
0.395837
0.39578
0.395852
0.395942
0.395701
0.395793
0.395936
0.395715
0.395795
0.395957
0.395908
0.395903
0.39579
0.395845
0.395866
0.395805
0.395597
0.395626
0.39568
0.395605
0.395595
0.39551
0.395502
0.39552
0.395468
0.395582
0.395762
0.395581
0.395686
0.395762
0.395572
0.395587
0.395914
0.396011
0.395969
0.395955
0.395953
0.395975
0.395894
0.395895
0.395899
0.395872
0.395849
0.395757
0.395726
0.395748
0.395752
0.395755
0.395697
0.395507
0.395546
0.395726
0.395762
0.395717
0.395467
0.395537
0.39569
0.395529
0.395583
0.395598
0.395576
0.395542
0.395505
0.395555
0.395564
0.395569
0.395416
0.383058
0.391905
0.3952
0.395837
0.395845
0.395821
0.395867
0.395916
0.395825
0.395855
0.395808
0.395631
0.395694
0.3958
0.395784
0.395782
0.395572
0.395688
0.395979
0.395973
0.395914
0.395695
0.395781
0.395888
0.395659
0.395764
0.395917
0.39569
0.395786
0.395931
0.395722
0.395818
0.395886
0.395833
0.395822
0.395653
0.395721
0.395805
0.395752
0.395581
0.395608
0.395677
0.395441
0.39553
0.395624
0.395576
0.395571
0.395478
0.395671
0.396099
0.39611
0.396084
0.396106
0.396074
0.396029
0.395991
0.395938
0.396005
0.396037
0.395975
0.395974
0.395969
0.395992
0.395931
0.395905
0.395903
0.395869
0.395846
0.395806
0.395796
0.395672
0.395713
0.395754
0.395727
0.395726
0.395681
0.395666
0.395459
0.395535
0.395696
0.395573
0.395592
0.395536
0.395499
0.395414
0.395535
0.395652
0.395606
0.395596
0.395389
0.383039
0.391959
0.395176
0.396066
0.396272
0.396313
0.396322
0.396326
0.396331
0.396338
0.396345
0.396355
0.396367
0.396332
0.3963
0.396318
0.396289
0.396212
0.396171
0.396176
0.396162
0.396153
0.396092
0.396063
0.396052
0.395866
0.395917
0.395987
0.395757
0.395863
0.395982
0.395772
0.395816
0.395973
0.39596
0.395886
0.395943
0.396001
0.395841
0.395928
0.396018
0.395999
0.396022
0.395991
0.395954
0.39587
0.395813
0.395725
0.395721
0.395721
0.395543
0.395543
0.395864
0.396038
0.395962
0.395996
0.396005
0.395982
0.395998
0.395929
0.395902
0.395877
0.395895
0.395848
0.395738
0.395773
0.395781
0.395723
0.395737
0.395751
0.395755
0.395697
0.395506
0.395545
0.395726
0.395763
0.395717
0.395467
0.395483
0.395755
0.395815
0.395785
0.395803
0.395745
0.395538
0.395494
0.395662
0.395732
0.395675
0.395479
0.383056
0.391918
0.395136
0.396048
0.396267
0.396312
0.396321
0.396325
0.396331
0.396338
0.396345
0.396353
0.396365
0.396331
0.396298
0.396315
0.396286
0.396207
0.396166
0.396179
0.396204
0.396174
0.396156
0.396134
0.396084
0.396043
0.395939
0.395907
0.395898
0.395776
0.395883
0.395973
0.395755
0.395757
0.395992
0.396018
0.395989
0.395985
0.395861
0.395927
0.395999
0.395885
0.395891
0.395882
0.395894
0.395874
0.395835
0.395848
0.395868
0.395843
0.395825
0.395616
0.395625
0.395856
0.395831
0.395901
0.395918
0.395783
0.395824
0.396052
0.396075
0.396052
0.396027
0.395999
0.395984
0.395942
0.39588
0.395889
0.395906
0.395884
0.39586
0.395872
0.395885
0.395813
0.395768
0.395643
0.395684
0.395731
0.395713
0.39571
0.395526
0.395633
0.395726
0.395529
0.395633
0.395712
0.395494
0.395584
0.395691
0.395441
0.383056
0.391918
0.395138
0.396043
0.396067
0.396004
0.396
0.395898
0.395968
0.396004
0.395891
0.395896
0.395898
0.395803
0.395822
0.39583
0.395641
0.395672
0.395907
0.395938
0.395879
0.395681
0.395757
0.395859
0.395632
0.395739
0.395896
0.395677
0.395773
0.395867
0.395839
0.395761
0.395793
0.395872
0.395872
0.395868
0.395588
0.395649
0.395732
0.395492
0.395586
0.395726
0.39554
0.395624
0.395663
0.39564
0.395577
0.39564
0.395733
0.395637
0.395631
0.395526
0.395586
0.395976
0.396025
0.395969
0.395985
0.396
0.396006
0.395874
0.395909
0.395994
0.395982
0.396014
0.395999
0.39598
0.395961
0.395913
0.395762
0.395831
0.395899
0.395822
0.395845
0.395836
0.395864
0.395772
0.395732
0.395628
0.39571
0.395762
0.395633
0.395589
0.395655
0.395677
0.395521
0.395633
0.395727
0.395709
0.395703
0.39545
0.383039
0.39196
0.395176
0.396065
0.39627
0.396312
0.39632
0.396325
0.396329
0.396336
0.396344
0.39635
0.396362
0.396327
0.396293
0.39631
0.396278
0.396199
0.396157
0.396156
0.396124
0.396107
0.396057
0.395883
0.395942
0.396001
0.395823
0.395903
0.395953
0.395902
0.395746
0.395784
0.395848
0.3956
0.395694
0.395821
0.395603
0.395711
0.395829
0.395625
0.395739
0.395849
0.39566
0.395767
0.39585
0.395736
0.39579
0.395866
0.395857
0.395827
0.395799
0.395781
0.395618
0.395674
0.395859
0.395804
0.395803
0.395724
0.395794
0.3959
0.395862
0.395744
0.395799
0.395852
0.395708
0.395777
0.395803
0.395722
0.395795
0.395828
0.395778
0.395761
0.395521
0.395533
0.395702
0.395754
0.395709
0.395466
0.395527
0.395723
0.395718
0.395702
0.395474
0.39554
0.395693
0.395649
0.395677
0.395654
0.395606
0.395414
0.383022
0.392037
0.3951
0.395615
0.395548
0.395543
0.395468
0.395523
0.395646
0.395556
0.395553
0.395503
0.39559
0.396044
0.396193
0.396145
0.396153
0.396149
0.396126
0.3961
0.396087
0.396099
0.396112
0.396104
0.396043
0.395817
0.395871
0.395957
0.395731
0.395839
0.395965
0.395759
0.395788
0.395964
0.395942
0.396022
0.396039
0.395885
0.39597
0.39601
0.395882
0.395884
0.395883
0.3959
0.395911
0.395859
0.395638
0.395676
0.395714
0.395525
0.3956
0.395717
0.395654
0.395679
0.395634
0.395546
0.395472
0.395568
0.395641
0.395596