/*--------------------------------*- C++ -*----------------------------------*\
  =========                 |
  \\      /  F ield         | OpenFOAM: The Open Source CFD Toolbox
   \\    /   O peration     | Website:  https://openfoam.org
    \\  /    A nd           | Version:  11
     \\/     M anipulation  |
\*---------------------------------------------------------------------------*/
FoamFile
{
    format      ascii;
    class       volScalarField;
    location    "0.024";
    object      nut;
}
// * * * * * * * * * * * * * * * * * * * * * * * * * * * * * * * * * * * * * //

dimensions      [0 2 -1 0 0 0 0];

internalField   nonuniform List<scalar> 
287084
(
0.000839925
0.000860491
0.000868215
0.000869839
0.000869996
0.000869997
0.000869654
0.000869789
0.000870267
0.000870244
0.00087011
0.000869933
0.000869623
0.000869737
0.0008702
0.000869833
0.000869984
0.000870143
0.000869928
0.000869939
0.00086991
0.00086976
0.000869653
0.000869581
0.00086917
0.000869225
0.000869504
0.000869518
0.000869534
0.000869054
0.000869317
0.000869604
0.000869137
0.000869413
0.000869784
0.000869803
0.000869713
0.000869909
0.000870233
0.000869882
0.000870177
0.00087039
0.000869981
0.000870262
0.000870585
0.000870119
0.000870375
0.000870698
0.000870745
0.000870781
0.000870738
0.000870562
0.000870619
0.00087089
0.000870509
0.000870681
0.000870792
0.000870749
0.000870604
0.000870765
0.000871009
0.00087054
0.000870746
0.000870963
0.000870769
0.000870779
0.000870563
0.000870785
0.000870895
0.000870824
0.000870634
0.000870731
0.000871049
0.000871022
0.000870936
0.000870898
0.00087094
0.000870647
0.000870798
0.000870864
0.000870819
0.00087079
0.000870321
0.000870438
0.000870742
0.000870311
0.000870533
0.000870727
0.000870652
0.000870424
0.00118703
0.00121506
0.00122553
0.0012276
0.00122752
0.0012276
0.00122759
0.00122762
0.00122747
0.00122745
0.00122723
0.00122657
0.00122668
0.00122684
0.001226
0.00122621
0.00122658
0.00122596
0.00122575
0.00122653
0.00122711
0.00122698
0.00122682
0.00122673
0.00122677
0.00122636
0.00122658
0.00122667
0.00122617
0.00122639
0.00122652
0.00122594
0.00122633
0.00122682
0.00122622
0.0012266
0.00122731
0.00122721
0.00122739
0.00122756
0.00122763
0.00122711
0.00122742
0.00122794
0.00122804
0.00122812
0.00122736
0.00122764
0.00122799
0.00122729
0.00122757
0.00122821
0.00122809
0.0012281
0.00122781
0.0012282
0.00122844
0.00122797
0.00122828
0.00122844
0.00122813
0.00122796
0.00122824
0.00122847
0.00122817
0.00122829
0.0012285
0.00122841
0.00122796
0.00122833
0.00122873
0.0012285
0.00122847
0.00122804
0.00122831
0.00122866
0.00122831
0.00122828
0.00122827
0.00122803
0.00122791
0.00122785
0.0012277
0.00122776
0.00122777
0.00122779
0.00122744
0.00122777
0.00122816
0.0012274
0.00118711
0.00121519
0.00122563
0.00122768
0.00122739
0.0012277
0.00122783
0.00122745
0.00122758
0.0012278
0.00122765
0.00122749
0.00122686
0.00122659
0.00122683
0.00122703
0.00122682
0.00122656
0.00122612
0.00122633
0.00122688
0.00122672
0.00122677
0.00122672
0.00122675
0.00122667
0.00122633
0.00122647
0.00122665
0.00122615
0.00122659
0.00122699
0.00122645
0.00122693
0.00122742
0.00122697
0.0012275
0.00122794
0.00122765
0.00122782
0.00122793
0.00122809
0.00122799
0.00122806
0.00122822
0.00122814
0.00122832
0.00122846
0.00122835
0.00122802
0.00122787
0.00122813
0.00122827
0.00122814
0.00122836
0.00122854
0.00122786
0.00122815
0.00122844
0.00122832
0.00122816
0.00122836
0.00122888
0.00122844
0.00122861
0.00122864
0.00122851
0.00122816
0.00122839
0.00122854
0.00122804
0.00122804
0.00122789
0.00122812
0.00122822
0.00122773
0.00122811
0.00122862
0.00122837
0.00122842
0.00122839
0.00122847
0.00122844
0.00122797
0.00122812
0.00122829
0.00122765
0.00122789
0.00122801
0.00122735
0.00118713
0.00121534
0.00122564
0.00122806
0.00122793
0.00122821
0.00122827
0.00122804
0.00122801
0.00122774
0.00122764
0.00122757
0.00122726
0.0012272
0.00122718
0.0012271
0.00122702
0.00122629
0.00122652
0.00122686
0.00122633
0.00122627
0.00122618
0.00122618
0.00122597
0.00122584
0.00122559
0.00122598
0.00122656
0.00122657
0.00122659
0.00122596
0.00122634
0.00122684
0.00122629
0.00122668
0.00122735
0.001227
0.00122742
0.00122787
0.00122773
0.00122789
0.0012282
0.0012283
0.00122831
0.00122831
0.00122763
0.00122786
0.00122831
0.00122814
0.00122825
0.00122802
0.00122794
0.00122778
0.00122825
0.00122856
0.00122804
0.00122835
0.00122853
0.00122843
0.00122831
0.00122816
0.00122873
0.00122885
0.00122862
0.00122859
0.00122865
0.00122871
0.00122855
0.00122804
0.00122798
0.00122839
0.0012285
0.00122823
0.00122845
0.00122863
0.00122861
0.0012286
0.00122837
0.00122833
0.00122785
0.00122815
0.00122835
0.00122821
0.00122819
0.00122772
0.00122797
0.00122809
0.00122796
0.00122758
0.00118714
0.00121538
0.00122574
0.00122801
0.00122799
0.00122797
0.00122768
0.00122788
0.00122797
0.00122758
0.00122755
0.00122747
0.00122723
0.00122695
0.00122688
0.00122705
0.00122684
0.00122606
0.00122607
0.00122662
0.00122634
0.00122667
0.00122681
0.00122641
0.00122644
0.0012264
0.00122596
0.00122623
0.00122656
0.00122591
0.00122619
0.00122687
0.00122663
0.00122704
0.00122747
0.00122732
0.00122757
0.00122774
0.0012278
0.00122792
0.00122751
0.00122775
0.00122802
0.00122801
0.00122802
0.00122774
0.00122806
0.00122823
0.00122792
0.00122826
0.00122849
0.00122778
0.00122806
0.00122855
0.00122807
0.00122835
0.00122871
0.00122847
0.00122848
0.00122847
0.00122806
0.00122833
0.00122867
0.001228
0.00122829
0.00122853
0.00122788
0.00122812
0.00122857
0.00122804
0.0012283
0.00122865
0.00122832
0.00122831
0.00122816
0.00122839
0.00122852
0.00122826
0.00122837
0.00122822
0.00122779
0.00122813
0.00122843
0.00122801
0.00122827
0.00122836
0.00122796
0.00122825
0.00122835
0.00122753
0.00118713
0.00121551
0.00122544
0.00122708
0.00122701
0.00122666
0.00122691
0.00122731
0.00122711
0.00122702
0.00122643
0.00122676
0.00122735
0.00122681
0.00122703
0.00122713
0.00122665
0.00122651
0.00122637
0.0012263
0.00122622
0.00122575
0.00122594
0.00122617
0.00122542
0.00122567
0.00122628
0.00122615
0.0012262
0.00122596
0.00122643
0.00122697
0.00122678
0.00122697
0.00122706
0.00122662
0.00122695
0.00122735
0.00122676
0.00122721
0.00122779
0.00122726
0.00122773
0.00122825
0.00122773
0.00122818
0.00122863
0.00122833
0.00122842
0.00122845
0.00122808
0.0012283
0.00122865
0.00122855
0.00122842
0.00122774
0.00122791
0.00122849
0.00122848
0.00122843
0.00122771
0.00122787
0.00122861
0.00122859
0.00122846
0.00122834
0.00122796
0.00122802
0.00122872
0.0012285
0.00122874
0.00122881
0.00122849
0.00122861
0.00122863
0.00122811
0.00122838
0.00122857
0.001228
0.00122824
0.0012285
0.00122826
0.00122842
0.00122847
0.0012283
0.00122828
0.00122836
0.00122842
0.00122821
0.00122749
0.00118707
0.00121569
0.00122546
0.00122728
0.00122726
0.00122686
0.00122706
0.00122713
0.00122655
0.0012265
0.00122744
0.00122856
0.00122861
0.00122845
0.00122823
0.00122803
0.00122793
0.0012277
0.00122751
0.00122729
0.00122712
0.00122698
0.0012267
0.00122675
0.00122676
0.00122659
0.00122609
0.00122629
0.00122659
0.00122659
0.00122647
0.00122673
0.00122706
0.00122655
0.00122706
0.00122757
0.00122715
0.00122762
0.00122808
0.00122791
0.00122804
0.001228
0.0012284
0.00122864
0.00122852
0.00122866
0.00122847
0.00122848
0.00122856
0.00122855
0.00122839
0.00122851
0.00122856
0.0012279
0.00122815
0.00122853
0.00122854
0.00122854
0.00122775
0.00122795
0.0012284
0.00122787
0.00122818
0.00122834
0.00122821
0.00122783
0.0012279
0.0012283
0.00122783
0.00122808
0.0012282
0.00122765
0.00122791
0.00122835
0.00122831
0.0012283
0.00122769
0.00122809
0.00122853
0.0012283
0.00122835
0.00122835
0.00122806
0.0012282
0.00122841
0.0012283
0.00122816
0.00122822
0.0012283
0.0012275
0.00118714
0.00121545
0.00122571
0.00122859
0.00122919
0.00122926
0.00122922
0.00122916
0.0012291
0.00122902
0.00122895
0.00122888
0.00122866
0.00122845
0.00122821
0.001228
0.00122789
0.00122767
0.00122746
0.00122724
0.00122711
0.00122696
0.00122662
0.00122665
0.00122669
0.00122652
0.00122599
0.00122615
0.00122644
0.00122595
0.00122643
0.0012269
0.0012264
0.00122692
0.00122744
0.00122703
0.00122738
0.00122827
0.00122848
0.00122861
0.00122872
0.00122858
0.00122888
0.00122909
0.00122888
0.00122899
0.00122923
0.00122924
0.00122919
0.00122915
0.00122906
0.00122886
0.00122885
0.00122863
0.00122855
0.00122861
0.00122866
0.00122853
0.00122802
0.00122815
0.00122876
0.00122878
0.00122884
0.00122875
0.00122863
0.00122809
0.00122838
0.00122856
0.00122807
0.00122807
0.00122805
0.00122806
0.00122762
0.00122784
0.00122844
0.00122851
0.00122835
0.00122757
0.00122761
0.00122844
0.00122863
0.00122853
0.00122858
0.00122839
0.00122774
0.0012276
0.00122812
0.00122833
0.00122814
0.00122751
0.00118711
0.00121563
0.00122554
0.00122749
0.00122744
0.00122729
0.00122719
0.00122674
0.00122656
0.00122742
0.0012286
0.00122867
0.0012285
0.00122827
0.00122806
0.00122795
0.0012279
0.00122764
0.00122743
0.00122701
0.00122688
0.00122686
0.00122675
0.00122674
0.00122661
0.00122644
0.00122587
0.00122607
0.00122638
0.0012259
0.0012264
0.00122687
0.00122638
0.00122692
0.00122744
0.00122704
0.00122739
0.00122829
0.00122862
0.00122871
0.00122858
0.00122867
0.0012287
0.00122868
0.00122889
0.00122896
0.00122885
0.00122817
0.00122835
0.00122852
0.00122788
0.00122816
0.00122836
0.00122771
0.00122794
0.00122859
0.00122856
0.0012285
0.00122778
0.00122794
0.00122854
0.0012285
0.00122844
0.00122772
0.00122774
0.00122859
0.00122873
0.00122863
0.00122852
0.00122838
0.00122826
0.00122783
0.00122818
0.0012287
0.00122869
0.00122868
0.00122856
0.00122851
0.00122831
0.00122839
0.00122829
0.00122843
0.00122867
0.00122865
0.00122854
0.00122846
0.00122782
0.00122793
0.00122819
0.00122739
0.00118705
0.00121578
0.00122542
0.00122673
0.00122725
0.00122739
0.00122661
0.00122675
0.00122751
0.00122746
0.00122718
0.00122639
0.00122645
0.00122711
0.00122701
0.0012267
0.00122589
0.00122598
0.00122638
0.00122594
0.00122601
0.00122598
0.00122548
0.00122556
0.00122601
0.00122601
0.00122586
0.00122611
0.00122636
0.00122575
0.00122622
0.0012268
0.00122673
0.00122673
0.001227
0.00122725
0.00122733
0.00122718
0.00122746
0.00122772
0.00122714
0.00122756
0.00122806
0.00122747
0.00122785
0.00122822
0.00122759
0.00122791
0.00122846
0.00122809
0.00122814
0.00122813
0.00122816
0.00122773
0.00122802
0.00122837
0.00122766
0.0012279
0.00122837
0.00122826
0.00122822
0.00122761
0.00122787
0.00122841
0.00122807
0.00122793
0.00122819
0.00122834
0.00122805
0.00122811
0.00122807
0.00122763
0.00122785
0.00122817
0.00122745
0.00122769
0.00122817
0.00122814
0.00122812
0.00122744
0.0012277
0.00122815
0.00122804
0.00122801
0.00122753
0.00122742
0.00122809
0.00122843
0.00122827
0.00122772
0.00118709
0.00121562
0.00122573
0.00122752
0.00122757
0.00122752
0.00122687
0.00122698
0.00122778
0.00122761
0.00122753
0.00122731
0.00122745
0.00122745
0.00122696
0.00122697
0.0012271
0.00122689
0.00122667
0.00122604
0.00122574
0.001226
0.00122618
0.00122596
0.00122524
0.00122544
0.00122596
0.00122568
0.0012258
0.00122575
0.00122626
0.00122682
0.00122679
0.00122703
0.0012271
0.00122673
0.00122711
0.00122753
0.00122698
0.00122746
0.00122804
0.00122754
0.00122802
0.00122853
0.00122801
0.0012284
0.00122883
0.00122883
0.00122885
0.00122821
0.00122847
0.00122866
0.00122802
0.00122826
0.00122867
0.00122853
0.00122806
0.001228
0.00122824
0.00122826
0.00122824
0.00122762
0.00122793
0.00122836
0.00122811
0.00122807
0.00122763
0.00122794
0.00122881
0.00122862
0.00122871
0.00122858
0.00122865
0.00122868
0.00122829
0.00122854
0.00122874
0.00122856
0.00122857
0.00122861
0.00122855
0.00122858
0.00122858
0.00122788
0.00122812
0.00122839
0.00122799
0.00122808
0.00122792
0.00122745
0.00118708
0.00121566
0.00122563
0.00122775
0.00122783
0.0012277
0.00122762
0.00122722
0.0012269
0.0012274
0.00122855
0.00122876
0.00122857
0.00122835
0.00122809
0.00122785
0.00122771
0.00122747
0.00122708
0.00122698
0.00122687
0.00122667
0.00122664
0.00122663
0.00122637
0.0012256
0.00122573
0.00122604
0.00122542
0.00122582
0.00122621
0.00122567
0.00122619
0.00122678
0.00122629
0.00122684
0.00122748
0.00122704
0.00122759
0.00122817
0.00122771
0.00122822
0.00122871
0.00122844
0.00122857
0.00122862
0.00122826
0.00122851
0.00122869
0.00122865
0.00122865
0.00122824
0.00122801
0.00122834
0.00122856
0.00122839
0.00122842
0.0012284
0.00122805
0.00122816
0.00122847
0.00122843
0.00122841
0.00122815
0.00122796
0.00122783
0.0012277
0.0012282
0.00122856
0.00122844
0.0012284
0.00122769
0.00122795
0.00122829
0.00122801
0.00122797
0.00122753
0.00122798
0.00122851
0.00122811
0.00122813
0.00122798
0.00122815
0.00122819
0.00122812
0.00122815
0.00122793
0.00122815
0.00122822
0.00122748
0.00118714
0.00121547
0.00122574
0.00122862
0.00122922
0.00122929
0.00122924
0.00122917
0.00122908
0.00122899
0.0012289
0.0012288
0.00122856
0.00122832
0.00122805
0.00122781
0.00122766
0.00122743
0.00122701
0.00122687
0.00122677
0.00122653
0.00122631
0.00122613
0.00122601
0.00122598
0.00122555
0.00122579
0.00122613
0.00122567
0.00122622
0.00122673
0.00122631
0.00122663
0.00122768
0.00122798
0.00122817
0.0012284
0.00122824
0.00122861
0.00122899
0.00122904
0.00122923
0.00122908
0.00122924
0.00122937
0.00122926
0.00122902
0.00122906
0.00122913
0.00122907
0.00122905
0.00122844
0.00122868
0.00122897
0.00122873
0.00122868
0.0012283
0.00122871
0.00122901
0.00122872
0.00122867
0.00122833
0.00122866
0.00122885
0.00122821
0.00122846
0.00122863
0.00122812
0.00122811
0.00122808
0.00122809
0.00122764
0.00122786
0.00122846
0.00122853
0.00122837
0.00122758
0.00122775
0.00122835
0.00122833
0.00122827
0.00122756
0.00122759
0.00122843
0.00122863
0.00122853
0.00122857
0.00122837
0.00122754
0.00118705
0.00121575
0.00122558
0.0012271
0.00122705
0.00122685
0.00122715
0.00122752
0.00122714
0.00122712
0.00122685
0.00122633
0.00122644
0.00122677
0.00122659
0.00122643
0.00122609
0.00122573
0.00122584
0.00122644
0.00122586
0.001226
0.00122622
0.00122587
0.00122581
0.00122579
0.00122569
0.00122575
0.00122574
0.00122553
0.00122614
0.00122669
0.00122629
0.00122661
0.00122767
0.00122803
0.00122824
0.00122848
0.00122862
0.00122884
0.00122896
0.00122901
0.00122918
0.00122938
0.0012294
0.00122937
0.00122918
0.00122844
0.0012285
0.00122897
0.00122862
0.00122886
0.00122894
0.00122876
0.00122842
0.00122817
0.00122848
0.00122876
0.00122865
0.00122864
0.00122815
0.00122836
0.00122876
0.00122836
0.00122841
0.00122821
0.00122837
0.00122841
0.00122822
0.00122823
0.0012279
0.00122816
0.00122876
0.00122829
0.00122854
0.0012289
0.00122873
0.00122876
0.00122877
0.00122871
0.00122833
0.00122799
0.00122792
0.00122786
0.00122826
0.00122863
0.00122839
0.00122838
0.00122831
0.00122766
0.00118714
0.00121547
0.00122574
0.00122862
0.00122922
0.00122928
0.00122923
0.00122915
0.00122906
0.00122897
0.00122887
0.00122876
0.0012285
0.00122825
0.00122797
0.00122771
0.00122754
0.00122729
0.00122692
0.00122667
0.00122648
0.00122638
0.00122631
0.00122624
0.00122599
0.00122525
0.00122545
0.00122579
0.0012256
0.00122588
0.00122595
0.00122576
0.00122629
0.00122681
0.00122636
0.00122694
0.00122763
0.00122722
0.0012278
0.00122839
0.00122794
0.00122846
0.00122894
0.00122857
0.00122863
0.00122858
0.00122887
0.00122919
0.0012292
0.00122921
0.00122899
0.00122889
0.00122881
0.0012287
0.00122855
0.00122814
0.00122816
0.00122922
0.00122942
0.00122935
0.0012294
0.00122929
0.00122911
0.00122895
0.00122889
0.00122831
0.00122848
0.00122863
0.00122813
0.00122812
0.00122809
0.0012281
0.00122765
0.00122786
0.00122847
0.00122853
0.00122837
0.00122759
0.00122776
0.00122835
0.00122833
0.00122828
0.00122756
0.00122776
0.00122823
0.00122809
0.00122817
0.00122809
0.00122794
0.00122732
0.0011872
0.00121529
0.00122581
0.00122791
0.00122789
0.00122778
0.00122786
0.00122789
0.00122761
0.00122749
0.00122719
0.00122668
0.00122641
0.00122672
0.00122676
0.00122641
0.00122561
0.00122562
0.00122597
0.00122578
0.00122572
0.00122543
0.00122538
0.0012253
0.00122496
0.00122514
0.00122546
0.00122483
0.00122521
0.00122599
0.00122622
0.0012264
0.00122681
0.0012272
0.00122702
0.00122734
0.00122757
0.00122791
0.00122799
0.00122765
0.00122804
0.00122846
0.00122785
0.00122821
0.00122886
0.00122833
0.00122866
0.001229
0.00122902
0.00122903
0.00122889
0.0012287
0.00122844
0.00122922
0.00123027
0.00123017
0.00122991
0.00122988
0.00122987
0.0012299
0.00122967
0.00122954
0.00122945
0.00122932
0.00122914
0.00122898
0.00122892
0.00122853
0.00122866
0.00122877
0.00122808
0.00122834
0.00122853
0.00122844
0.00122842
0.00122826
0.00122829
0.0012282
0.0012279
0.00122814
0.00122849
0.00122846
0.00122845
0.00122791
0.00122821
0.00122839
0.00122813
0.0012281
0.00122796
0.00122748
0.0011872
0.00121534
0.00122561
0.00122856
0.00122919
0.00122927
0.00122922
0.00122914
0.00122904
0.00122894
0.00122883
0.00122871
0.00122845
0.00122817
0.00122804
0.00122776
0.00122732
0.001227
0.00122685
0.00122667
0.001226
0.00122594
0.00122591
0.00122557
0.00122542
0.00122549
0.00122557
0.00122495
0.00122533
0.00122581
0.00122601
0.00122628
0.00122587
0.00122642
0.00122691
0.0012272
0.00122749
0.00122706
0.0012276
0.0012282
0.00122768
0.00122814
0.00122872
0.00122862
0.00122867
0.00122819
0.00122855
0.00122908
0.00122892
0.00122892
0.00122887
0.00122847
0.00122831
0.00122943
0.00122995
0.0012298
0.00122978
0.00122977
0.00122974
0.00122962
0.00122954
0.00122924
0.00122921
0.00122918
0.00122904
0.00122913
0.00122896
0.00122832
0.00122846
0.00122854
0.00122815
0.00122811
0.00122802
0.001228
0.00122754
0.00122778
0.00122843
0.00122837
0.00122838
0.00122825
0.00122787
0.0012281
0.00122852
0.00122837
0.00122843
0.00122841
0.00122829
0.00122836
0.00122837
0.00122757
0.00118714
0.00121546
0.00122574
0.00122862
0.00122921
0.00122927
0.00122922
0.00122913
0.00122903
0.00122893
0.00122881
0.00122869
0.00122856
0.00122827
0.00122798
0.00122785
0.00122755
0.00122711
0.00122678
0.0012266
0.00122637
0.00122618
0.00122586
0.00122568
0.0012256
0.00122499
0.00122518
0.00122554
0.00122512
0.0012256
0.00122599
0.00122563
0.00122624
0.00122684
0.00122643
0.00122707
0.00122778
0.0012274
0.001228
0.0012286
0.00122817
0.00122865
0.00122923
0.00122906
0.00122917
0.00122919
0.00122927
0.00122925
0.00122928
0.00122912
0.00122863
0.00122861
0.00122966
0.00123005
0.00122987
0.00122986
0.00122985
0.00122981
0.0012297
0.00122945
0.00122933
0.00122922
0.00122924
0.00122906
0.00122869
0.0012288
0.00122881
0.00122857
0.00122859
0.00122861
0.0012286
0.0012284
0.00122779
0.00122789
0.00122843
0.00122853
0.00122838
0.00122759
0.0012278
0.00122826
0.00122817
0.00122829
0.00122829
0.00122812
0.00122743
0.00122748
0.00122823
0.00122835
0.00122815
0.00122752
0.0011872
0.00121534
0.00122561
0.00122855
0.00122919
0.00122926
0.00122921
0.00122912
0.00122902
0.00122891
0.0012288
0.00122853
0.00122825
0.00122812
0.00122784
0.00122739
0.00122705
0.00122688
0.00122667
0.00122598
0.00122591
0.00122586
0.00122543
0.00122544
0.00122525
0.00122469
0.00122495
0.00122533
0.00122478
0.00122534
0.00122606
0.00122573
0.00122629
0.00122697
0.00122735
0.0012277
0.00122768
0.00122766
0.00122799
0.0012283
0.00122802
0.00122849
0.00122881
0.00122816
0.00122851
0.00122884
0.00122818
0.00122851
0.00122893
0.00122867
0.00122862
0.00122817
0.00122831
0.00122958
0.00123014
0.00122998
0.00122996
0.00122999
0.00123002
0.00122979
0.00122966
0.0012294
0.00122928
0.00122918
0.00122923
0.00122898
0.00122898
0.00122896
0.00122881
0.00122867
0.00122851
0.00122851
0.00122847
0.00122833
0.00122818
0.00122783
0.00122815
0.00122848
0.00122841
0.00122839
0.00122772
0.001228
0.00122824
0.00122785
0.00122802
0.00122806
0.00122762
0.00122788
0.0012282
0.0012274
0.0011872
0.00121534
0.00122562
0.00122854
0.00122856
0.00122843
0.00122822
0.00122812
0.00122803
0.00122781
0.00122765
0.001227
0.00122688
0.00122695
0.00122674
0.00122651
0.00122563
0.00122533
0.00122556
0.00122519
0.00122538
0.00122578
0.00122571
0.00122547
0.00122463
0.00122483
0.00122515
0.00122456
0.00122505
0.00122557
0.00122516
0.00122581
0.00122652
0.00122616
0.00122683
0.00122759
0.00122748
0.00122774
0.00122801
0.00122792
0.00122837
0.00122875
0.00122853
0.00122859
0.00122864
0.00122871
0.00122867
0.00122849
0.0012286
0.00122986
0.00123057
0.00123069
0.00123069
0.00123066
0.00123062
0.00123059
0.00123055
0.00123051
0.00123041
0.00123024
0.00123014
0.00122998
0.00122983
0.00122983
0.00122984
0.0012296
0.00122934
0.00122921
0.00122908
0.00122908
0.00122907
0.00122882
0.00122886
0.00122887
0.00122871
0.00122829
0.0012284
0.00122853
0.00122803
0.00122801
0.001228
0.00122792
0.00122781
0.00122766
0.00122791
0.00122827
0.00122803
0.00122804
0.00122801
0.00122752
0.00118712
0.00121554
0.00122559
0.00122735
0.00122715
0.00122707
0.00122668
0.00122691
0.00122709
0.00122624
0.00122636
0.00122683
0.00122606
0.00122618
0.00122623
0.00122583
0.00122547
0.00122544
0.00122611
0.00122565
0.0012258
0.00122582
0.0012254
0.00122542
0.00122521
0.00122467
0.00122497
0.00122537
0.00122485
0.0012254
0.00122613
0.00122585
0.00122656
0.00122731
0.00122711
0.00122781
0.00122835
0.00122836
0.00122861
0.00122864
0.00122908
0.00122931
0.00122916
0.00122923
0.00122926
0.00122884
0.00122866
0.00122875
0.00122866
0.00122879
0.00122878
0.00122836
0.00122853
0.0012289
0.00122861
0.00122856
0.00122825
0.00122814
0.00122784
0.00122817
0.00122851
0.00122777
0.00122803
0.00122837
0.00122764
0.00122767
0.00122821
0.00122802
0.0012284
0.00122864
0.00122818
0.00122815
0.0012281
0.00122809
0.00122766
0.00122788
0.00122846
0.00122852
0.00122837
0.00122758
0.00122779
0.00122825
0.00122791
0.00122801
0.00122802
0.00122761
0.0012278
0.00122822
0.00122813
0.00122784
0.00118714
0.00121546
0.00122573
0.00122861
0.00122921
0.00122926
0.00122919
0.0012291
0.00122886
0.00122861
0.0012285
0.00122823
0.00122779
0.00122746
0.00122727
0.00122701
0.00122674
0.00122632
0.00122611
0.00122612
0.00122581
0.00122543
0.0012246
0.00122454
0.00122488
0.00122486
0.00122493
0.00122451
0.00122509
0.00122566
0.0012259
0.00122599
0.00122645
0.00122694
0.0012272
0.00122757
0.00122752
0.00122799
0.0012283
0.00122829
0.00122849
0.00122864
0.00122827
0.00122859
0.0012292
0.00122899
0.00122914
0.00122917
0.00122908
0.00122888
0.00122934
0.00123046
0.00123069
0.0012307
0.00123066
0.00123062
0.00123058
0.00123054
0.0012305
0.00123046
0.00123044
0.00123025
0.00123009
0.00123005
0.00122993
0.00122978
0.00122982
0.00122988
0.00122977
0.00122955
0.00122944
0.00122917
0.00122905
0.00122909
0.00122911
0.00122886
0.00122875
0.00122858
0.00122812
0.00122827
0.00122851
0.00122791
0.00122823
0.00122847
0.00122796
0.00122792
0.00122777
0.001228
0.00122805
0.00122743
0.00118714
0.00121546
0.00122573
0.00122861
0.0012292
0.00122926
0.00122919
0.0012291
0.00122899
0.00122887
0.00122874
0.00122861
0.00122832
0.00122801
0.00122786
0.00122755
0.00122707
0.00122671
0.00122651
0.00122628
0.00122604
0.00122564
0.00122552
0.00122546
0.00122528
0.0012247
0.00122491
0.00122531
0.00122495
0.00122551
0.00122599
0.00122582
0.00122661
0.00122735
0.00122715
0.0012278
0.00122857
0.00122865
0.00122898
0.00122935
0.00122958
0.00122965
0.00122966
0.00122963
0.00122973
0.00122978
0.00122972
0.00122951
0.00122897
0.00122875
0.00122942
0.00123051
0.00123071
0.00123071
0.00123068
0.00123064
0.00123059
0.00123055
0.00123051
0.00123048
0.00123044
0.0012304
0.00123037
0.00123028
0.00123012
0.00123001
0.00122989
0.00122974
0.00122968
0.00122971
0.00122948
0.00122936
0.00122928
0.00122932
0.00122911
0.00122902
0.00122897
0.00122902
0.00122886
0.00122875
0.00122869
0.0012282
0.00122838
0.00122853
0.0012279
0.00122818
0.00122835
0.00122832
0.0012283
0.00122755
0.0011871
0.00121563
0.00122564
0.00122732
0.00122708
0.00122744
0.00122751
0.00122669
0.00122682
0.00122695
0.00122622
0.00122591
0.00122643
0.00122778
0.00122774
0.00122745
0.00122727
0.00122686
0.0012265
0.00122627
0.00122583
0.0012257
0.00122557
0.00122484
0.00122499
0.00122518
0.00122487
0.00122505
0.00122507
0.00122529
0.00122526
0.00122593
0.00122656
0.00122621
0.00122691
0.00122768
0.00122737
0.00122773
0.00122891
0.00122925
0.00122941
0.00122947
0.00122954
0.00122967
0.00122972
0.00122981
0.00122963
0.00122953
0.0012293
0.00122917
0.00122895
0.00122896
0.00122893
0.0012285
0.00122853
0.0012296
0.00122972
0.00122964
0.00122969
0.00122938
0.00122922
0.00122903
0.00122911
0.00122923
0.0012291
0.00122897
0.00122897
0.00122891
0.00122883
0.0012287
0.00122851
0.00122798
0.0012281
0.00122879
0.00122874
0.00122874
0.00122852
0.00122873
0.00122877
0.00122814
0.00122835
0.00122847
0.00122787
0.00122804
0.00122811
0.00122797
0.00122762
0.00122785
0.00122819
0.0012274
0.00118714
0.00121546
0.00122573
0.00122861
0.00122908
0.00122898
0.00122878
0.00122855
0.00122842
0.00122818
0.00122789
0.00122772
0.00122745
0.001227
0.00122664
0.00122647
0.00122611
0.0012259
0.00122573
0.00122538
0.00122466
0.0012247
0.00122494
0.00122479
0.00122466
0.00122479
0.001225
0.00122436
0.00122484
0.00122546
0.00122571
0.00122579
0.00122628
0.00122679
0.00122701
0.00122735
0.001227
0.0012276
0.00122832
0.00122788
0.00122837
0.0012288
0.00122822
0.00122862
0.00122899
0.0012283
0.00122857
0.00122914
0.00122856
0.00122871
0.00122893
0.00122888
0.00122884
0.00122825
0.00122844
0.00122886
0.00122867
0.00122851
0.00122861
0.00122869
0.00122853
0.00122816
0.00122822
0.00122845
0.0012277
0.00122797
0.00122841
0.00122767
0.00122793
0.00122826
0.001228
0.00122777
0.00122806
0.00122839
0.00122802
0.00122808
0.00122791
0.00122776
0.00122739
0.00122769
0.00122817
0.00122811
0.00122809
0.00122744
0.00122774
0.00122808
0.00122736
0.00122766
0.00122805
0.0012273
0.00118714
0.00121546
0.00122573
0.00122861
0.0012292
0.00122925
0.00122919
0.00122909
0.00122898
0.00122888
0.0012286
0.00122832
0.00122818
0.00122788
0.00122743
0.00122707
0.00122687
0.00122671
0.00122639
0.00122611
0.0012258
0.00122545
0.00122526
0.00122499
0.00122437
0.00122459
0.00122495
0.00122438
0.0012249
0.00122548
0.00122507
0.00122572
0.00122639
0.00122602
0.00122663
0.00122769
0.00122798
0.00122818
0.00122777
0.00122825
0.00122876
0.00122864
0.00122873
0.00122838
0.0012288
0.00122941
0.00122899
0.00122926
0.00122939
0.0012292
0.00122868
0.00122877
0.0012289
0.00122812
0.00122832
0.00122885
0.00122831
0.00122852
0.00122861
0.001228
0.0012282
0.0012289
0.00122883
0.0012286
0.00122786
0.00122808
0.00122844
0.00122769
0.00122793
0.00122828
0.00122755
0.00122784
0.00122829
0.00122827
0.00122826
0.00122756
0.00122782
0.00122815
0.00122751
0.00122778
0.00122821
0.0012277
0.00122795
0.00122809
0.00122796
0.00122762
0.00122783
0.00122819
0.00122812
0.0012279
0.00118714
0.00121547
0.00122573
0.00122861
0.0012292
0.00122925
0.00122919
0.00122909
0.00122899
0.00122886
0.00122873
0.00122859
0.00122845
0.00122814
0.00122782
0.00122766
0.00122734
0.00122687
0.0012265
0.00122631
0.00122612
0.00122572
0.00122562
0.00122558
0.00122546
0.00122543
0.00122485
0.00122507
0.00122556
0.0012258
0.00122614
0.00122599
0.00122672
0.00122738
0.00122717
0.00122788
0.00122843
0.00122838
0.00122866
0.00122874
0.00122904
0.00122942
0.00122954
0.00122963
0.00122919
0.00122926
0.00122932
0.00122912
0.00122883
0.00122886
0.00123005
0.00123067
0.00123075
0.00123073
0.00123069
0.00123064
0.0012306
0.00123056
0.00123052
0.00123048
0.00123044
0.00123041
0.00123023
0.00123012
0.0012301
0.00123002
0.0012299
0.00122977
0.00122954
0.00122941
0.00122934
0.00122939
0.00122915
0.00122903
0.00122901
0.00122876
0.00122881
0.00122882
0.00122866
0.00122825
0.00122836
0.00122848
0.00122838
0.00122837
0.00122822
0.00122817
0.00122752
0.0012278
0.00122818
0.0012274
0.00118714
0.00121546
0.00122573
0.00122861
0.00122921
0.00122926
0.00122919
0.0012291
0.00122899
0.00122887
0.00122874
0.00122861
0.00122832
0.00122802
0.00122786
0.00122754
0.00122707
0.00122671
0.00122652
0.0012263
0.0012256
0.00122538
0.00122547
0.00122538
0.0012253
0.00122466
0.00122493
0.00122531
0.00122485
0.00122543
0.00122614
0.00122587
0.00122661
0.00122734
0.00122715
0.0012278
0.00122857
0.00122865
0.00122898
0.00122935
0.00122958
0.00122965
0.00122966
0.00122963
0.00122973
0.00122978
0.00122972
0.00122951
0.00122897
0.00122875
0.00122942
0.00123051
0.00123071
0.00123072
0.00123068
0.00123064
0.00123059
0.00123055
0.00123047
0.0012303
0.00123017
0.00123005
0.0012299
0.00122981
0.00122983
0.00122958
0.00122944
0.00122939
0.0012293
0.00122917
0.0012292
0.00122919
0.00122912
0.00122844
0.00122853
0.0012287
0.00122814
0.0012284
0.00122874
0.0012285
0.00122845
0.00122832
0.00122824
0.00122825
0.00122821
0.00122821
0.00122775
0.00122796
0.00122811
0.00122737
0.00118714
0.00121546
0.00122573
0.00122861
0.00122921
0.00122926
0.00122919
0.00122911
0.00122886
0.00122861
0.0012285
0.00122823
0.0012278
0.00122746
0.00122727
0.00122714
0.00122678
0.00122645
0.00122608
0.00122563
0.00122534
0.001225
0.00122438
0.00122454
0.00122496
0.00122497
0.00122498
0.00122523
0.00122557
0.00122561
0.00122595
0.00122614
0.00122643
0.00122672
0.0012271
0.00122698
0.00122756
0.00122812
0.00122825
0.00122858
0.00122876
0.00122879
0.00122824
0.00122858
0.00122922
0.0012289
0.00122911
0.00122918
0.00122902
0.00122891
0.00122936
0.00123047
0.00123069
0.0012307
0.00123066
0.00123062
0.00123058
0.00123051
0.00123033
0.00123024
0.00123021
0.00123013
0.00123001
0.00122986
0.00122972
0.00122943
0.00122948
0.00122956
0.00122932
0.00122933
0.00122931
0.00122928
0.00122911
0.0012286
0.00122878
0.00122898
0.00122865
0.00122862
0.00122852
0.00122857
0.00122842
0.001228
0.00122826
0.00122844
0.00122778
0.00122809
0.00122832
0.00122823
0.0012282
0.00122745
0.00118712
0.00121554
0.00122559
0.00122736
0.00122717
0.00122708
0.00122669
0.00122665
0.00122716
0.00122728
0.00122696
0.00122619
0.0012262
0.00122654
0.0012263
0.00122609
0.0012256
0.00122518
0.00122534
0.00122592
0.0012253
0.00122547
0.00122552
0.00122497
0.00122518
0.00122528
0.00122479
0.00122517
0.00122566
0.00122565
0.00122595
0.00122596
0.00122668
0.00122734
0.00122712
0.00122775
0.00122852
0.00122886
0.00122914
0.0012293
0.0012295
0.00122943
0.00122953
0.00122967
0.00122977
0.00122959
0.00122893
0.00122867
0.00122875
0.00122859
0.00122868
0.00122848
0.00122834
0.00122804
0.00122837
0.0012287
0.00122795
0.00122808
0.00122862
0.00122861
0.00122857
0.0012279
0.00122806
0.00122878
0.00122875
0.0012286
0.00122846
0.00122807
0.00122805
0.0012288
0.00122874
0.00122905
0.00122915