/*--------------------------------*- C++ -*----------------------------------*\
  =========                 |
  \\      /  F ield         | OpenFOAM: The Open Source CFD Toolbox
   \\    /   O peration     | Website:  https://openfoam.org
    \\  /    A nd           | Version:  11
     \\/     M anipulation  |
\*---------------------------------------------------------------------------*/
FoamFile
{
    format      ascii;
    class       volScalarField;
    location    "0.024";
    object      p;
}
// * * * * * * * * * * * * * * * * * * * * * * * * * * * * * * * * * * * * * //

dimensions      [0 2 -2 0 0 0 0];

internalField   nonuniform List<scalar> 
287084
(
1.89038
1.61905
1.5458
1.48014
1.41387
1.36229
1.31425
1.26937
1.22802
1.18668
1.14369
1.10029
1.05668
1.01235
0.967263
0.921296
0.874618
0.827312
0.779449
0.731402
0.683224
0.635288
0.587927
0.541033
0.49521
0.45014
0.406441
0.369215
0.338309
0.307593
0.275625
0.245263
0.219518
0.197218
0.178287
0.162327
0.149273
0.138817
0.130794
0.125002
0.121101
0.118895
0.118141
0.118592
0.119979
0.122118
0.124812
0.127828
0.130987
0.134182
0.137046
0.139305
0.141939
0.143853
0.143124
0.145138
0.150885
0.153792
0.154841
0.153185
0.153047
0.155392
0.154758
0.154844
0.153908
0.148367
0.146633
0.146029
0.140686
0.136625
0.130967
0.123899
0.118618
0.113977
0.108289
0.103627
0.0988489
0.0893684
0.0835684
0.0793865
0.06908
0.0628791
0.0585894
0.0491931
0.0417483
0.0357156
0.0272208
0.01787
0.00835467
0.00208973
1.75714
1.57178
1.51849
1.46451
1.40501
1.35666
1.31106
1.26752
1.22573
1.18383
1.14126
1.09834
1.05475
1.01045
0.965208
0.919131
0.872322
0.824761
0.776747
0.728396
0.68
0.631868
0.584214
0.537328
0.491555
0.446889
0.404196
0.367299
0.333167
0.299744
0.268057
0.239417
0.214231
0.192287
0.173573
0.157856
0.144995
0.134869
0.127044
0.121494
0.117855
0.115902
0.115391
0.116083
0.117702
0.120067
0.122969
0.126203
0.129601
0.133032
0.136331
0.139264
0.141866
0.143017
0.143983
0.147274
0.150712
0.152956
0.153873
0.154381
0.155299
0.155959
0.155495
0.153039
0.151683
0.149666
0.145604
0.143199
0.140738
0.136079
0.130223
0.125213
0.120548
0.114341
0.108638
0.103374
0.0979786
0.0913577
0.0837973
0.0778509
0.0712937
0.0638788
0.0573392
0.0499572
0.0421599
0.0344194
0.0260705
0.017395
0.00855887
0.00223358
1.72648
1.56265
1.50949
1.45565
1.39864
1.35117
1.30653
1.26364
1.22182
1.17998
1.13773
1.0948
1.05118
1.00666
0.961225
0.914854
0.867655
0.819717
0.771206
0.72246
0.673557
0.624931
0.57686
0.529519
0.483523
0.439042
0.396794
0.357873
0.322094
0.288639
0.257461
0.229248
0.204295
0.1827
0.164251
0.148963
0.13654
0.126754
0.119484
0.114421
0.111315
0.109879
0.109874
0.111036
0.11313
0.115935
0.119252
0.122882
0.126655
0.130426
0.134021
0.137298
0.140286
0.142953
0.145447
0.148017
0.15033
0.15227
0.153607
0.154399
0.154869
0.154947
0.154152
0.152844
0.151148
0.148575
0.145685
0.14282
0.13931
0.134998
0.130232
0.125239
0.120032
0.114459
0.108959
0.103371
0.0975071
0.0909876
0.0842778
0.0778197
0.0709119
0.0638086
0.056879
0.049519
0.0418729
0.0339968
0.0257852
0.0171125
0.00816671
0.0018819
1.68301
1.53353
1.48586
1.43706
1.38568
1.34144
1.29891
1.25725
1.21599
1.17455
1.13248
1.08965
1.04584
1.00112
0.955302
0.908458
0.860804
0.812226
0.763077
0.713584
0.663894
0.614586
0.565759
0.517828
0.471293
0.426371
0.383711
0.343979
0.307232
0.27311
0.242006
0.214046
0.1895
0.168281
0.150368
0.135644
0.123846
0.114881
0.108323
0.104016
0.101655
0.100984
0.101707
0.103583
0.106359
0.109812
0.113736
0.117949
0.122275
0.12657
0.130703
0.13459
0.13819
0.141429
0.144245
0.146799
0.14919
0.151217
0.152651
0.153527
0.153994
0.153935
0.153256
0.151956
0.150252
0.148021
0.145222
0.142161
0.138656
0.134534
0.13
0.125178
0.120066
0.114651
0.109085
0.103315
0.0972711
0.0908754
0.0842752
0.0776221
0.0707329
0.0636805
0.0565472
0.0491614
0.0415538
0.0337171
0.0256315
0.0170478
0.00827021
0.00209049
1.65913
1.51617
1.47086
1.42356
1.37456
1.33196
1.29061
1.24984
1.20911
1.16788
1.12593
1.08299
1.03898
0.993887
0.947535
0.900107
0.851642
0.802257
0.752295
0.701789
0.651243
0.600845
0.551004
0.502157
0.454681
0.409093
0.365763
0.325212
0.287689
0.253204
0.222072
0.194271
0.170059
0.149367
0.132104
0.118135
0.107219
0.0991195
0.0935668
0.0902873
0.0889496
0.0892814
0.0909918
0.0938067
0.0974754
0.101785
0.106506
0.111464
0.116493
0.121458
0.126224
0.130717
0.134852
0.138599
0.141935
0.144916
0.147513
0.14963
0.151183
0.15222
0.152762
0.15277
0.152162
0.150991
0.149349
0.147184
0.144527
0.141485
0.137987
0.134006
0.129626
0.124908
0.119871
0.114529
0.108967
0.103163
0.0971161
0.0907588
0.0842127
0.0775133
0.0706182
0.0635482
0.0563416
0.0489368
0.0413584
0.0335651
0.0254916
0.0169745
0.0082431
0.00205051
1.63749
1.49753
1.45427
1.40893
1.36224
1.32127
1.28123
1.24125
1.20099
1.16003
1.1181
1.07499
1.03066
0.984993
0.938061
0.88979
0.840492
0.79007
0.738974
0.687297
0.635447
0.583796
0.532751
0.482688
0.434091
0.387438
0.343209
0.301739
0.263577
0.228662
0.197452
0.169827
0.146058
0.125996
0.109508
0.0965511
0.0867162
0.0798442
0.0755503
0.0735182
0.0734384
0.0750115
0.0779091
0.0818741
0.0866352
0.0919767
0.0976675
0.103531
0.109412
0.115156
0.120674
0.125851
0.130632
0.134966
0.138824
0.142205
0.145107
0.147478
0.149276
0.150517
0.151201
0.15133
0.15087
0.149852
0.148319
0.146274
0.143736
0.140755
0.137324
0.133443
0.129171
0.124542
0.119575
0.114303
0.108766
0.102969
0.096913
0.0906111
0.08409
0.0773883
0.0705029
0.0634382
0.056211
0.0487924
0.0412328
0.0335128
0.0255221
0.0170214
0.00824127
0.0020043
1.61994
1.48156
1.43962
1.39548
1.35027
1.31048
1.27127
1.23199
1.19207
1.1512
1.10922
1.06579
1.02102
0.974702
0.926918
0.877711
0.827296
0.775606
0.723232
0.670056
0.616851
0.563614
0.510976
0.459481
0.409474
0.36161
0.316192
0.273937
0.234988
0.199721
0.168388
0.140985
0.117736
0.0983958
0.0829054
0.0710768
0.062544
0.057104
0.0542796
0.0537876
0.0552387
0.0582972
0.0626422
0.0679691
0.074007
0.0805333
0.0873491
0.0942684
0.101127
0.107786
0.114133
0.120094
0.12558
0.130556
0.134986
0.138855
0.142148
0.144856
0.146954
0.148461
0.149364
0.149682
0.149401
0.148547
0.147158
0.145239
0.142829
0.13994
0.136599
0.132827
0.128645
0.1241
0.119209
0.114002
0.108503
0.10273
0.0967092
0.0904282
0.0839396
0.0772431
0.0703574
0.0632892
0.0560672
0.0486818
0.041119
0.0333655
0.0253886
0.0169235
0.00823814
0.00209061
1.60456
1.46698
1.4259
1.38271
1.33849
1.29953
1.26098
1.22218
1.18243
1.14158
1.0993
1.05553
1.01012
0.963024
0.914338
0.86397
0.81229
0.759174
0.705199
0.650414
0.595356
0.540414
0.486035
0.43283
0.381185
0.331818
0.285197
0.241804
0.202101
0.166428
0.134975
0.107856
0.0851577
0.0667374
0.0524408
0.0420008
0.0350408
0.0312246
0.0301289
0.0313848
0.0345823
0.0393595
0.0453502
0.0522509
0.0597719
0.0676716
0.0757486
0.0838314
0.0917775
0.0994443
0.106726
0.11353
0.119798
0.125478
0.130534
0.134946
0.138719
0.141835
0.144293
0.146109
0.147277
0.147818
0.147752
0.147091
0.145865
0.144106
0.141822
0.139053
0.13582
0.132145
0.128064
0.123599
0.118783
0.11364
0.108188
0.10246
0.0964613
0.0902245
0.0837696
0.0770989
0.0702435
0.0632182
0.056019
0.0486524
0.0411514
0.0334321
0.025465
0.0170203
0.0082493
0.00203551
1.59091
1.45372
1.41318
1.37054
1.32704
1.28871
1.25061
1.21199
1.17229
1.13131
1.08878
1.04441
0.998294
0.950252
0.90036
0.848765
0.795526
0.740829
0.685052
0.62838
0.571405
0.51444
0.457994
0.402841
0.349352
0.298312
0.25026
0.205739
0.165249
0.129066
0.0976115
0.0707951
0.0488367
0.0314145
0.0184236
0.00955138
0.00432853
0.00238649
0.00325533
0.00649233
0.0116647
0.0183608
0.0262121
0.0348835
0.0440655
0.0535262
0.0630237
0.0724026
0.0815246
0.090278
0.0985668
0.1063
0.113402
0.119836
0.12558
0.130594
0.134885
0.138458
0.141318
0.143486
0.144963
0.145777
0.145945
0.145498
0.144467
0.142867
0.140736
0.138095
0.134982
0.131412
0.127428
0.123052
0.118313
0.113234
0.10784
0.102156
0.0961982
0.0899995
0.0835576
0.0769125
0.0700344
0.0629865
0.0558708
0.0484894
0.0409627
0.0333736
0.0254387
0.0170251
0.00825751
0.00195407
1.57849
1.44146
1.40132
1.3591
1.31597
1.27803
1.24016
1.20161
1.16183
1.12058
1.07749
1.03256
0.985509
0.93641
0.885339
0.832196
0.777359
0.720832
0.663047
0.604338
0.545072
0.485887
0.427234
0.369877
0.314395
0.261489
0.211895
0.166097
0.124669
0.0880803
0.0564999
0.0301156
0.00892314
-0.00727622
-0.0186904
-0.0258569
-0.029122
-0.0289844
-0.0259552
-0.0205462
-0.0132009
-0.00438768
0.00549429
0.0160948
0.027107
0.0382517
0.0493204
0.0601397
0.0705426
0.0804568
0.0898021
0.0985055
0.1065
0.113738
0.120203
0.12586
0.130727
0.134805
0.138106
0.140653
0.142463
0.143575
0.144012
0.143795
0.142961
0.141548
0.139577
0.137079
0.134086
0.130637
0.126751
0.122462
0.117805
0.112792
0.107453
0.101834
0.0959174
0.0897552
0.083361
0.0767439
0.0699337
0.0629495
0.0557826
0.0484368
0.0409855
0.0333101
0.0253094
0.0168994
0.00824646
0.0020808
1.56711
1.43022
1.39021
1.34821
1.30528
1.26753
1.22983
1.19121
1.1512
1.10953
1.06592
1.02014
0.972092
0.921843
0.869269
0.814565
0.757891
0.699348
0.639451
0.578354
0.516799
0.455131
0.39402
0.334346
0.276542
0.221731
0.170329
0.12325
0.0808839
0.0438227
0.0122654
-0.0136431
-0.0338598
-0.0488031
-0.0586161
-0.0638184
-0.0649482
-0.0625231
-0.0571472
-0.0493467
-0.0396686
-0.0285771
-0.0164995
-0.00382803
0.00912247
0.0220866
0.0348246
0.0471659
0.0589652
0.0701226
0.0805778
0.09029
0.099213
0.107291
0.114509
0.120846
0.126312
0.130925
0.134691
0.137656
0.139829
0.141259
0.141975
0.141998
0.141389
0.140159
0.138361
0.136018
0.133163
0.129821
0.126044
0.121847
0.117264
0.11233
0.107054
0.101483
0.0956188
0.0894974
0.0831345
0.0765492
0.0697602
0.0627791
0.0556264
0.0483401
0.0408547
0.0331252
0.025198
0.0168459
0.00825365
0.00212679
1.55663
1.41973
1.37984
1.3379
1.29513
1.25743
1.21955
1.18078
1.14045
1.0983
1.05398
1.00726
0.958209
0.906579
0.852526
0.796103
0.737431
0.676767
0.614516
0.551004
0.486774
0.422509
0.358763
0.296553
0.236448
0.179434
0.126326
0.077754
0.0344486
-0.00310468
-0.0346893
-0.0599976
-0.0792676
-0.0926503
-0.100595
-0.103733
-0.102547
-0.0977056
-0.0898169
-0.0795106
-0.0673424
-0.0538336
-0.0394641
-0.0246036
-0.00960468
0.00525342
0.0197452
0.0336952
0.0469562
0.0594323
0.0710542
0.0817944
0.0916693
0.100606
0.108601
0.115635
0.121731
0.126891
0.131152
0.134537
0.137089
0.138852
0.139855
0.140143
0.139758
0.138731
0.137111
0.134916
0.132195
0.128985
0.125307
0.121211
0.116717
0.111849
0.106639
0.10112
0.095309
0.0892322
0.0829055
0.0763495
0.0695849
0.0626305
0.0554424
0.0481446
0.0408601
0.0332032
0.0252063
0.0168552
0.00819425
0.00206844
1.54699
1.41004
1.3701
1.32821
1.28543
1.24766
1.20965
1.1705
1.12983
1.08704
1.04196
0.994316
0.943954
0.891008
0.835251
0.776931
0.71622
0.653299
0.58857
0.522447
0.455569
0.388464
0.322054
0.257088
0.194496
0.135287
0.0802118
0.0302632
-0.0140461
-0.0520693
-0.0835133
-0.108193
-0.126245
-0.138142
-0.144196
-0.145067
-0.141453
-0.134028
-0.123506
-0.110552
-0.0957923
-0.079786
-0.063011
-0.0458926
-0.0287879
-0.011967
0.0043269
0.0199167
0.0346813
0.0485111
0.0613527
0.0731676
0.0839856
0.0937953
0.102574
0.110316
0.11704
0.122775
0.127533
0.131365
0.134302
0.136403
0.137708
0.138259
0.138103
0.137276
0.135834
0.1338
0.131221
0.128131
0.124565
0.120563
0.116147
0.111363
0.10622
0.100754
0.0949911
0.0889537
0.0826758
0.0761577
0.0694276
0.0625081
0.0554089
0.0481562
0.0407473
0.033048
0.0251522
0.0168646
0.00817868
0.00205307
1.53803
1.40106
1.36108
1.3191
1.27613
1.23833
1.2001
1.16067
1.11932
1.07589
1.02994
0.981195
0.929681
0.875191
0.817759
0.757548
0.694685
0.629325
0.56213
0.493209
0.423465
0.353575
0.284188
0.216565
0.151404
0.0898818
0.0329262
-0.0185319
-0.063821
-0.102305
-0.133583
-0.157553
-0.174426
-0.18455
-0.188552
-0.187105
-0.180947
-0.170865
-0.157632
-0.141973
-0.12456
-0.105993
-0.086782
-0.0673678
-0.0481165
-0.0293075
-0.0111957
0.00607384
0.0223544
0.0375508
0.0516254
0.0645384
0.076312
0.0869743
0.0965336
0.104987
0.112343
0.118639
0.123893
0.128166
0.131496
0.133948
0.135552
0.136365
0.136443
0.135827
0.134562
0.132688
0.130247
0.12728
0.123825
0.11992
0.115591
0.110869
0.105795
0.100388
0.0946734
0.088686
0.0824365
0.0759512
0.0692564
0.0623493
0.0552827
0.0480124
0.0406051
0.0329859
0.025086
0.0168138
0.00821671
0.00209048
1.52981
1.39279
1.35271
1.31063
1.26756
1.22948
1.1909
1.15105
1.10924
1.06502
1.01818
0.968351
0.915494
0.859445
0.800294
0.738056
0.672955
0.605288
0.535345
0.463761
0.391151
0.318224
0.246053
0.175547
0.107818
0.0439784
-0.0149043
-0.0678639
-0.114091
-0.152918
-0.183933
-0.207113
-0.22265
-0.2311
-0.23297
-0.229121
-0.220385
-0.207603
-0.19162
-0.173239
-0.153153
-0.132019
-0.11037
-0.0886595
-0.0672696
-0.0464862
-0.0265515
-0.00762975
0.0101451
0.0267104
0.0420068
0.0560152
0.0687531
0.0802594
0.09058
0.0997241
0.107703
0.114554
0.120312
0.125021
0.128738
0.13152
0.133424
0.134503
0.134809
0.134391
0.133306
0.131587
0.129286
0.126443
0.123092
0.119279
0.115035
0.110393
0.10538
0.100026
0.0943604
0.0884101
0.0822089
0.0757568
0.0690903
0.0622271
0.055179
0.0479578
0.0405649
0.032933
0.0250784
0.0168269
0.00816129
0.00200656
1.52234
1.38523
1.34505
1.30284
1.2595
1.22119
1.18242
1.14205
1.09951
1.05454
1.00675
0.955817
0.901628
0.844056
0.783139
0.718933
0.651644
0.581471
0.508961
0.434546
0.359007
0.283272
0.208098
0.134891
0.0645373
-0.00157251
-0.0623634
-0.116734
-0.16388
-0.202986
-0.233707
-0.256077
-0.27026
-0.276888
-0.276631
-0.270392
-0.259061
-0.243591
-0.224886
-0.2038
-0.181087
-0.157428
-0.133377
-0.109418
-0.0859323
-0.0632148
-0.0415028
-0.0209618
-0.00170755
0.0161762
0.0326636
0.0477495
0.061438
0.0737659
0.0848166
0.0946218
0.103196
0.110583
0.116817
0.121955
0.126052
0.129165
0.131365
0.132695
0.133226
0.133013
0.132093
0.130531
0.128362
0.125631
0.122386
0.118667
0.114495
0.10992
0.104969
0.0996729
0.0940594
0.0881532
0.0819814
0.0755662
0.06892
0.0620622
0.0550297
0.047812
0.0404501
0.0328495
0.0250726
0.0168698
0.00816995
0.00202269
1.51556
1.3784
1.3381
1.29581
1.25228
1.21364
1.17434
1.13344
1.09036
1.04464
0.995911
0.94382
0.888358
0.829225
0.766567
0.700361
0.630882
0.558366
0.483236
0.406158
0.327766
0.249095
0.171188
0.0951866
0.0223415
-0.0459246
-0.108567
-0.164312
-0.212248
-0.251554
-0.28194
-0.30337
-0.316164
-0.321048
-0.318651
-0.310065
-0.29622
-0.27814
-0.256801
-0.233108
-0.207858
-0.181755
-0.155407
-0.129278
-0.103783
-0.0792076
-0.0557899
-0.0336993
-0.0130466
0.00611407
0.0237464
0.0398486
0.0544497
0.0675818
0.0793222
0.0897652
0.0989036
0.106803
0.113498
0.119044
0.123496
0.126925
0.129398
0.130977
0.13172
0.131688
0.130936
0.129518
0.127478
0.124862
0.121711
0.118075
0.113988
0.109479
0.104587
0.0993452
0.0937702
0.0879052
0.0817691
0.0753864
0.0687878
0.061977
0.054994
0.0478093
0.0404115
0.0328349
0.0250426
0.0168723
0.00820281
0.00197438
1.50949
1.37225
1.33192
1.28943
1.24564
1.20663
1.16706
1.12566
1.08191
1.0354
0.985738
0.932614
0.875808
0.815246
0.750893
0.682875
0.611202
0.536432
0.458805
0.37906
0.298002
0.216568
0.135957
0.0573976
-0.0179057
-0.08821
-0.152592
-0.209559
-0.25817
-0.297623
-0.32755
-0.348171
-0.359594
-0.362749
-0.358336
-0.347473
-0.331226
-0.310653
-0.286805
-0.260643
-0.232994
-0.204593
-0.176067
-0.14791
-0.120518
-0.0942013
-0.0691845
-0.0456353
-0.0236482
-0.0033052
0.0154036
0.0324705
0.0479247
0.0618076
0.0742037
0.0852196
0.0948977
0.103269
0.110385
0.116315
0.121102
0.124832
0.127565
0.129367
0.130315
0.130465
0.129866
0.128581
0.126656
0.124145
0.121089
0.117528
0.113506
0.109063
0.104226
0.0990269
0.0935007
0.0876685
0.0815634
0.0752049
0.0686025
0.0617562
0.0547621
0.0476882
0.0403733
0.0327642
0.0249651
0.0168627
0.00821098
0.00195331
1.50413
1.36684
1.32633
1.28374
1.23978
1.20043
1.1605
1.11857
1.07422
1.02704
0.976462
0.922299
0.8643
0.80231
0.736387
0.666539
0.592957
0.516017
0.436048
0.353907
0.270235
0.186251
0.103176
0.0221222
-0.055227
-0.127594
-0.19343
-0.251518
-0.300723
-0.340227
-0.36979
-0.389422
-0.399595
-0.401067
-0.394765
-0.38181
-0.36334
-0.340475
-0.314326
-0.285889
-0.256033
-0.225527
-0.195003
-0.164974
-0.135841
-0.107924
-0.0814416
-0.0565532
-0.0333668
-0.0119195
0.00776429
0.0257079
0.0419482
0.0565305
0.0695265
0.081085
0.0912385
0.100044
0.107552
0.113823
0.118926
0.122914
0.125891
0.127903
0.129029
0.129338
0.128882
0.12772
0.12591
0.123487
0.120516
0.117029
0.113077
0.108687
0.103899
0.0987463
0.0932581
0.087465
0.0813889
0.075061
0.0685115
0.0617421
0.0547927
0.047642
0.0402763
0.0327215
0.024888
0.0167005
0.00817176
0.00205748
1.49949
1.36214
1.32152
1.27887
1.23469
1.19506
1.15465
1.11236
1.06743
1.01952
0.96818
0.913065
0.854001
0.790755
0.723387
0.651942
0.576534
0.497586
0.415541
0.331113
0.245208
0.158868
0.0735045
-0.00969836
-0.0890812
-0.162999
-0.230361
-0.289325
-0.339001
-0.37849
-0.407579
-0.42642
-0.435421
-0.435416
-0.427363
-0.412511
-0.392029
-0.367094
-0.338885
-0.308408
-0.27658
-0.244186
-0.211885
-0.180182
-0.149503
-0.120159
-0.0923668
-0.0662832
-0.0420068
-0.0195852
0.000975276
0.0196963
0.036631
0.0518322
0.0653846
0.0774034
0.0879926
0.0971798
0.105031
0.11161
0.116981
0.121217
0.124402
0.126598
0.127894
0.128344
0.12801
0.126961
0.125239
0.122911
0.120013
0.11659
0.11269
0.108349
0.103604
0.0984891
0.0930421
0.0872659
0.0812203
0.0749162
0.0683658
0.0616017
0.0546345
0.0474856
0.0401909
0.0326301
0.0248004
0.0166705
0.00817227
0.00209244
1.4956
1.35819
1.31751
1.27465
1.23045
1.19049
1.14976
1.10701
1.0616
1.01316
0.961052
0.905135
0.845051
0.780672
0.712075
0.639159
0.562203
0.481599
0.397662
0.311285
0.223338
0.134987
0.0476243
-0.0374983
-0.118525
-0.193983
-0.262374
-0.322109
-0.372162
-0.411588
-0.440316
-0.458367
-0.466281
-0.464985
-0.45543
-0.438934
-0.416721
-0.390015
-0.360016
-0.327784
-0.294262
-0.260251
-0.226401
-0.193272
-0.161255
-0.130677
-0.10176
-0.0746531
-0.0494526
-0.0261921
-0.00487714
0.0145227
0.0320587
0.0477926
0.061812
0.0742531
0.0851983
0.0947196
0.102865
0.10971
0.115319
0.119753
0.123131
0.125482
0.126912
0.127492
0.127265
0.12631
0.124676
0.122412
0.119578
0.116213
0.112365
0.108066
0.103363
0.0982779
0.0928534
0.0871169
0.0810859
0.0748011
0.0682874
0.0615479
0.05462
0.0475005
0.0401788
0.0326328
0.0247997
0.0166359
0.00811834
0.00205812
1.49247
1.35502
1.31425
1.2713
1.22683
1.18676
1.14582
1.10269
1.05689
1.00784
0.955228
0.898575
0.837712
0.77245
0.702745
0.628704
0.550415
0.46824
0.382837
0.294791
0.20519
0.115175
0.0261743
-0.0605762
-0.142976
-0.219549
-0.288894
-0.349262
-0.399536
-0.438876
-0.467208
-0.484657
-0.491739
-0.489311
-0.478508
-0.460637
-0.436992
-0.408824
-0.377364
-0.343699
-0.308774
-0.273429
-0.238331
-0.204005
-0.170899
-0.139319
-0.109473
-0.081529
-0.0555584
-0.0316074
-0.00966412
0.0102813
0.0283153
0.0444903
0.0589042
0.0716736
0.0829185
0.092711
0.101095
0.108155
0.11395
0.118565
0.122078
0.124569
0.126117
0.12679
0.126651
0.125773
0.124202
0.122006
0.119223
0.115904
0.112098
0.10783
0.103157
0.0981008
0.0927041
0.0869759
0.0809713
0.074705
0.0681871
0.0614603
0.0545208
0.0473845
0.0400845
0.0325394
0.0247705
0.0166477
0.00810537
0.00206217
1.49011
1.35262
1.31179
1.26875
1.22402
1.18385
1.14291
1.09947
1.05328
1.00388
0.950711
0.893595
0.832024
0.766038
0.695559
0.620512
0.54123
0.458061
0.371358
0.282158
0.191188
0.0999007
0.00964559
-0.0784192
-0.161799
-0.239266
-0.309275
-0.370086
-0.420559
-0.459807
-0.487898
-0.504815
-0.51113
-0.507918
-0.496157
-0.477253
-0.452507
-0.423218
-0.39063
-0.355862
-0.319878
-0.283518
-0.247443
-0.212229
-0.178281
-0.14592
-0.115368
-0.0867765
-0.0602214
-0.0357439
-0.0133315
0.00704675
0.025448
0.0419663
0.0566761
0.0697073
0.0811716
0.0911753
0.0997423
0.106969
0.112915
0.117656
0.121289
0.123873
0.12551
0.126258
0.126194
0.125372
0.123857
0.1217
0.118956
0.115677
0.111892
0.107663
0.103006
0.0979668
0.0925846
0.0868871
0.0808909
0.0746367
0.0681418
0.0614211
0.0545112
0.0473937
0.0401161
0.0325947
0.024807
0.016658
0.00809755
0.00203932
1.48853
1.35101
1.31014
1.26704
1.22245
1.18206
1.1406
1.09707
1.05076
1.0011
0.947717
0.890149
0.828276
0.761761
0.690702
0.61507
0.535058
0.451032
0.363558
0.273455
0.181609
0.0895149
-0.00168596
-0.0905214
-0.174783
-0.252596
-0.322985
-0.384132
-0.434732
-0.473936
-0.501791
-0.518438
-0.524326
-0.520476
-0.50808
-0.488469
-0.462978
-0.43293
-0.399597
-0.364085
-0.327375
-0.290323
-0.253603
-0.217776
-0.18326
-0.150385
-0.119359
-0.0903302
-0.0633822
-0.0385466
-0.0158131
0.00484855
0.0235135
0.0402653
0.05518
0.0683818
0.0800069
0.0901376
0.0988388
0.106166
0.112215
0.117044
0.120747
0.123407
0.125099
0.125902
0.125879
0.125095
0.123617
0.121494
0.118779
0.11552
0.111765
0.107542
0.102905
0.097888
0.0925099
0.0868204
0.0808279
0.0745852
0.0680829
0.0613775
0.0544427
0.0473244
0.0400491
0.0325007
0.0247724
0.0166804
0.00810692
0.00198438
1.48775
1.35023
1.30935
1.26623
1.2216
1.1811
1.13958
1.09595
1.04953
0.999779
0.946169
0.888481
0.826274
0.759566
0.688231
0.612244
0.531941
0.44757
0.359694
0.269154
0.176866
0.0842646
-0.00740544
-0.0967656
-0.181909
-0.259597
-0.32949
-0.390819
-0.441805
-0.481056
-0.508852
-0.525288
-0.53092
-0.526792
-0.514091
-0.494123
-0.46825
-0.437821
-0.404108
-0.368216
-0.331151
-0.293755
-0.256703
-0.22057
-0.18577
-0.152632
-0.121357
-0.0921079
-0.0649656
-0.0399478
-0.0170606
0.00374949
0.0225368
0.0394005
0.0544187
0.0677065
0.0794059
0.0896143
0.0983755
0.105762
0.111858
0.116733
0.120478
0.123168
0.124894
0.125722
0.125726
0.124961
0.123505
0.121392
0.118689
0.115446
0.111694
0.10749
0.102853
0.0978399
0.0924763
0.0867896
0.0808136
0.0745739
0.068087
0.0613807
0.054473
0.0473652
0.0400948
0.0325695
0.0247741
0.0166359
0.00811672
0.00205598
1.48779
1.35027
1.3094
1.26628
1.22167
1.18112
1.13961
1.09595
1.04956
0.99979
0.94623
0.888524
0.826339
0.75967
0.688296
0.612347
0.532009
0.447589
0.359735
0.269188
0.176896
0.0843159
-0.0073392
-0.0966816
-0.181768
-0.259471
-0.329487
-0.390839
-0.441841
-0.481032
-0.508803
-0.525266
-0.530913
-0.526783
-0.514083
-0.494113
-0.468245
-0.437815
-0.404104
-0.368204
-0.331138
-0.293737
-0.256687
-0.220557
-0.185749
-0.152611
-0.121345
-0.0920974
-0.0649533
-0.0399393
-0.0170509
0.00375934
0.0225486
0.0394109
0.0544309
0.0677142
0.0794177
0.0896236
0.0983855
0.105772
0.111873
0.116743
0.120486
0.123175
0.124897
0.125731
0.125728
0.12497
0.123508
0.121402
0.118698
0.115455
0.111705
0.107494
0.102865
0.0978512
0.0924881
0.086797
0.0808195
0.0745767
0.068082
0.0613753
0.0544529
0.047332
0.0400583
0.0325155
0.0247624
0.0166542
0.00810267
0.00204423
1.48862
1.35111
1.31026
1.26718
1.22257
1.18217
1.14068
1.09714
1.05083
1.00119
0.947791
0.890244
0.828378
0.761818
0.690828
0.61515
0.535175
0.451222
0.363728
0.273627
0.181793
0.0896635
-0.00155254
-0.0903904
-0.174667
-0.252529
-0.322856
-0.38407
-0.434658
-0.473902
-0.501788
-0.518385
-0.52428
-0.520426
-0.508037
-0.488431
-0.462936
-0.432894
-0.399557
-0.364039
-0.327342
-0.290287
-0.253569
-0.21774
-0.183228
-0.150347
-0.119317
-0.0902901
-0.0633419
-0.0385095
-0.0157777
0.00488409
0.0235404
0.0402863
0.0551964
0.068396
0.0800213
0.0901562
0.0988553
0.106181
0.112229
0.117062
0.120761
0.123422
0.125118
0.125917
0.1259
0.125114
0.123642
0.121515
0.118796
0.115542
0.111777
0.107565
0.102923
0.0979021
0.0925324
0.0868365
0.0808566
0.074609
0.0681238
0.0614143
0.0545058
0.0473995
0.0401119
0.032591
0.0247845
0.0166002
0.00811543
0.002091
1.49022
1.35274
1.31193
1.26889
1.2242
1.184
1.14292
1.09955
1.05336
1.00397
0.950866
0.893706
0.83217
0.766226
0.695685
0.620684
0.54142
0.458139
0.371533
0.282296
0.191356
0.100081
0.0097665
-0.0782171
-0.1617
-0.239124
-0.309104
-0.369913
-0.420448
-0.459763
-0.487793
-0.50475
-0.511058
-0.507845
-0.496105
-0.477198
-0.452452
-0.423159
-0.390583
-0.355804
-0.319819
-0.283454
-0.24738
-0.212169
-0.178216
-0.145857
-0.115312
-0.086719
-0.0601728
-0.0356848
-0.0132744
0.0070944
0.0254995
0.0420142
0.0567256
0.0697509
0.0812183
0.0912174
0.0997904
0.10701
0.112957
0.117696
0.121323
0.12391
0.125543
0.126294
0.126228
0.125406
0.12389
0.121737
0.118993
0.115707
0.111928
0.10769
0.10304
0.0980016
0.0926191
0.0869164
0.080925
0.0746657
0.0681637
0.0614451
0.0545147
0.0473791
0.0400902
0.0325392
0.0248112
0.0167036
0.00809565
0.0020069
1.49262
1.35517
1.31441
1.27146
1.22696
1.18693
1.14598
1.10285
1.05708
1.00801
0.955396
0.898748
0.837906
0.772591
0.702943
0.628865
0.550573
0.468495
0.383016
0.29502
0.205383
0.115388
0.0263458
-0.0604107
-0.142814
-0.219438
-0.288722
-0.349107
-0.399381
-0.438818
-0.46715
-0.484589
-0.491656
-0.489215
-0.478438
-0.460569
-0.436914
-0.40875
-0.377285
-0.343615
-0.308697
-0.273349
-0.238246
-0.203918
-0.170813
-0.139229
-0.109382
-0.0814405
-0.055466
-0.0315207
-0.00957877
0.0103732
0.0283949
0.0445701
0.058986
0.0717508
0.0829957
0.0927862
0.101169
0.108223
0.114021
0.118633
0.122142
0.124636
0.126181
0.126852
0.126714
0.125833
0.124267
0.122066
0.119279
0.115959
0.112147
0.107884
0.103208
0.0981491
0.0927445
0.0870211
0.0810151
0.0747411
0.068234
0.0615017
0.0545791
0.0474483
0.0401557
0.032641
0.0248738
0.0167417
0.00813383
0.00202055
1.4958
1.3584
1.31769
1.27487
1.23057
1.19068
1.15
1.10726
1.06184
1.01333
0.961304
0.90533
0.84527
0.780956
0.712328
0.639409
0.562458
0.481769
0.397891
0.311521
0.223583
0.135218
0.0478402
-0.0372874
-0.118333
-0.193754
-0.262207
-0.321969
-0.371987
-0.411515
-0.440182
-0.458259
-0.466172
-0.464893
-0.455363
-0.438844
-0.416623
-0.389918
-0.35992
-0.327685
-0.294157
-0.260146
-0.22629
-0.193157
-0.16114
-0.130561
-0.101649
-0.0745388
-0.0493339
-0.0260758
-0.00475777
0.0146348
0.0321677
0.0479052
0.0619264
0.0743607
0.0853062
0.0948269
0.102973
0.109811
0.115411
0.11986
0.123217
0.125576
0.127002
0.127568
0.127346
0.12639
0.124752
0.12249
0.119653
0.116284
0.112433
0.108129
0.103421
0.098332
0.0929026
0.0871611
0.081136
0.0748501
0.0683178
0.0615818
0.0546249
0.0474879
0.0401747
0.0326157
0.0248436
0.0166972
0.00811439
0.00201572
1.49974
1.36238
1.32177
1.27909
1.23492
1.19534
1.15491
1.11257
1.06772
1.01978
0.968447
0.913332
0.85426
0.791045
0.723638
0.652193
0.576809
0.497878
0.415836
0.331405
0.245457
0.159156
0.0737735
-0.00947861
-0.0888146
-0.162883
-0.230088
-0.289172
-0.338813
-0.378337
-0.407469
-0.426262
-0.435321
-0.435251
-0.427238
-0.412375
-0.39188
-0.366969
-0.338751
-0.308277
-0.276443
-0.244052
-0.211744
-0.180035
-0.149356
-0.120011
-0.0922171
-0.066139
-0.0418611
-0.0194468
0.00111097
0.0198412
0.0367674
0.0519668
0.0655268
0.0775443
0.0881295
0.0973175
0.105157
0.11174
0.117104
0.121337
0.124516
0.126713
0.128002
0.128449
0.128112
0.127056
0.12534
0.123003
0.1201
0.116674
0.112775
0.108434
0.103684
0.0985666
0.0931007
0.087337
0.0812819
0.0749749
0.0684222
0.0616622
0.054697
0.0475411
0.0402175
0.0326646
0.0248558
0.0166593
0.00815061
0.00210818
1.50442
1.36712
1.32659
1.28405
1.2401
1.20075
1.16073
1.11882
1.07454
1.02726
0.976798
0.922585
0.864598
0.802655
0.736734
0.66687
0.593311
0.516287
0.436412
0.35418
0.270602
0.186565
0.103421
0.0224703
-0.055041
-0.127293
-0.193206
-0.251316
-0.300474
-0.340024
-0.369572
-0.389235
-0.399432
-0.400933
-0.394645
-0.381679
-0.363186
-0.340326
-0.314174
-0.285733
-0.255872
-0.225367
-0.194831
-0.164802
-0.135667
-0.107748
-0.0812668
-0.0563759
-0.0331779
-0.0117348
0.00794804
0.0258811
0.0421163
0.0566923
0.069693
0.0812451
0.0914042
0.100209
0.107714
0.113981
0.119073
0.12307
0.12603
0.128041
0.129165
0.129463
0.129002
0.127843
0.126018
0.123597
0.120622
0.117134
0.113173
0.108778
0.103985
0.0988202
0.0933284
0.0875253
0.0814595
0.0751205
0.0685484
0.0617782
0.0548043
0.0476404
0.0403106
0.0327461
0.0249444
0.0167574
0.00815515
0.00203283
1.50985
1.37258
1.3322
1.28976
1.24608
1.20701
1.16723
1.12587
1.08223
1.03575
0.986111
0.932924
0.876202
0.815574
0.751244
0.683184
0.611581
0.536753
0.459181
0.379421
0.298377
0.216899
0.136292
0.0577273
-0.017543
-0.0879722
-0.152249
-0.209328
-0.257933
-0.297411
-0.327377
-0.347919
-0.359412
-0.362494
-0.358122
-0.347266
-0.331
-0.310449
-0.286606
-0.260441
-0.232789
-0.204392
-0.17587
-0.147697
-0.120311
-0.093987
-0.068976
-0.0454232
-0.0234428
-0.00309583
0.0156054
0.0326707
0.0481198
0.0620044
0.0744008
0.0854165
0.0950952
0.103462
0.110579
0.116501
0.121285
0.124996
0.12773
0.129525
0.130469
0.130607
0.130006
0.12871
0.12679
0.12427
0.121207
0.117643
0.113617
0.109173
0.104328
0.0991238
0.0935886
0.0877564
0.0816467
0.0752846
0.0686906
0.0618862
0.054878
0.0476897
0.040337
0.0327999
0.0250043
0.0168293
0.00818266
0.00198267
1.51594
1.37876
1.33845
1.29616
1.25251
1.21388
1.17476
1.13387
1.09077
1.04502
0.99627
0.94424
0.888682
0.829654
0.766979
0.700774
0.631319
0.558736
0.483672
0.406563
0.328169
0.249532
0.171548
0.0955697
0.02271
-0.0456199
-0.108219
-0.164022
-0.211925
-0.251244
-0.281619
-0.303086
-0.315932
-0.320788
-0.318444
-0.30985
-0.296
-0.27792
-0.256577
-0.232879
-0.207625
-0.181529
-0.155166
-0.129043
-0.10354
-0.0789701
-0.0555556
-0.0334586
-0.0128031
0.00636377
0.0239892
0.0400938
0.0546853
0.067811
0.0795501
0.0899871
0.0991278
0.107022
0.113715
0.119252
0.123701
0.127125
0.129589
0.131155
0.131896
0.131852
0.131099
0.129676
0.127622
0.125001
0.12185
0.118203
0.114109
0.109596
0.104693
0.0994486
0.0938656
0.0879942
0.081857
0.0754647
0.0688428
0.0620259
0.0550108
0.0478056
0.0404573
0.0328664
0.0250177
0.0168124
0.00819632
0.00204466
1.52276
1.38565
1.34544
1.30326
1.26003
1.2216
1.18269
1.14232
1.09993
1.05499
1.00716
0.95625
0.902074
0.844505
0.78356
0.719355
0.652006
0.58193
0.509412
0.435014
0.359519
0.28365
0.20856
0.135279
0.064979
-0.00122559
-0.0619257
-0.116422
-0.163529
-0.202649
-0.233431
-0.255736
-0.26996
-0.276583
-0.276345
-0.270109
-0.258775
-0.243311
-0.224611
-0.203525
-0.180814
-0.157149
-0.133104
-0.109139
-0.0856566
-0.0629352
-0.0412289
-0.0206817
-0.0014354
0.0164487
0.0329371
0.0480153
0.0617047
0.074026
0.085075
0.0948791
0.103453
0.110833
0.117065
0.122199
0.126284
0.129387
0.131572
0.132896
0.133418
0.133191
0.13227
0.130691
0.128523
0.125786
0.122535
0.118807
0.114629
0.110056
0.105094
0.0997926
0.0941718
0.08826
0.0820811
0.0756553
0.0690061
0.0621584
0.0551096
0.0478848
0.0404768
0.032851
0.0249687
0.0167106