/*--------------------------------*- C++ -*----------------------------------*\
  =========                 |
  \\      /  F ield         | OpenFOAM: The Open Source CFD Toolbox
   \\    /   O peration     | Website:  https://openfoam.org
    \\  /    A nd           | Version:  11
     \\/     M anipulation  |
\*---------------------------------------------------------------------------*/
FoamFile
{
    format      ascii;
    class       volScalarField;
    location    "0.06";
    object      k;
}
// * * * * * * * * * * * * * * * * * * * * * * * * * * * * * * * * * * * * * //

dimensions      [0 2 -2 0 0 0 0];

internalField   nonuniform List<scalar> 
287084
(
0.381281
0.395453
0.408348
0.417195
0.42175
0.423152
0.423255
0.423211
0.423078
0.423153
0.423355
0.42326
0.423328
0.423366
0.423339
0.423326
0.423207
0.423197
0.423124
0.423217
0.423465
0.423324
0.423402
0.423458
0.423441
0.423438
0.423266
0.42334
0.423486
0.42345
0.423447
0.42346
0.423448
0.42328
0.423169
0.423134
0.423072
0.423091
0.423098
0.423059
0.422908
0.422931
0.422952
0.422886
0.422884
0.422835
0.422687
0.422706
0.422891
0.422746
0.422806
0.422985
0.422984
0.422975
0.422862
0.42272
0.422765
0.422819
0.422705
0.422806
0.422865
0.42277
0.422693
0.422827
0.423043
0.423051
0.42305
0.422847
0.422893
0.42302
0.423009
0.423001
0.422839
0.422872
0.42289
0.422973
0.423026
0.423003
0.422941
0.422918
0.423027
0.422977
0.42307
0.423116
0.423092
0.423073
0.422815
0.422824
0.42291
0.422735
0.381335
0.395366
0.408139
0.417073
0.421717
0.423211
0.423322
0.42318
0.423255
0.423473
0.42347
0.423463
0.423369
0.423357
0.423311
0.423146
0.423175
0.423287
0.423277
0.42321
0.423189
0.423453
0.423632
0.423635
0.423636
0.42359
0.423512
0.423463
0.423308
0.423352
0.423481
0.423378
0.423409
0.423417
0.423368
0.42337
0.423312
0.423124
0.423072
0.423278
0.423334
0.42328
0.423156
0.423067
0.42318
0.423282
0.423231
0.423238
0.423239
0.423252
0.42319
0.422929
0.422949
0.423004
0.422937
0.422949
0.422911
0.42277
0.422755
0.422903
0.422852
0.422975
0.423083
0.423034
0.42303
0.422918
0.423016
0.423158
0.423118
0.422967
0.422963
0.423202
0.423282
0.423255
0.423222
0.423194
0.422957
0.422975
0.423129
0.423037
0.423027
0.423025
0.42294
0.422924
0.423082
0.423135
0.423078
0.423086
0.423052
0.422802
0.381339
0.395352
0.408134
0.417047
0.421613
0.423318
0.423551
0.423515
0.423372
0.423371
0.423493
0.423421
0.423435
0.423432
0.423379
0.423313
0.423439
0.423564
0.423531
0.423477
0.423347
0.423383
0.423409
0.423548
0.423685
0.423676
0.423674
0.423584
0.423593
0.42357
0.423536
0.42349
0.423426
0.423375
0.423329
0.423241
0.423181
0.423194
0.423178
0.423285
0.423321
0.423184
0.42324
0.423258
0.423229
0.423224
0.423093
0.423179
0.423266
0.423242
0.423238
0.42315
0.423089
0.422934
0.422838
0.422954
0.423002
0.422856
0.422879
0.423009
0.422985
0.423018
0.423007
0.422897
0.422851
0.423042
0.42319
0.423187
0.423187
0.423117
0.423126
0.423079
0.422971
0.422876
0.42293
0.422971
0.422891
0.422897
0.42295
0.42295
0.422812
0.422884
0.423113
0.423045
0.423009
0.422982
0.422946
0.422916
0.422872
0.422743
0.381313
0.395391
0.408125
0.416948
0.421619
0.423389
0.423646
0.423612
0.423463
0.423445
0.423611
0.423632
0.423594
0.423425
0.423375
0.423545
0.423638
0.423589
0.423601
0.4236
0.423602
0.423524
0.423488
0.423377
0.423399
0.423418
0.423388
0.42336
0.423309
0.423518
0.423636
0.423616
0.423612
0.423518
0.423474
0.423441
0.423429
0.423399
0.42317
0.423218
0.423288
0.423245
0.423111
0.423141
0.423265
0.42325
0.423254
0.423215
0.423165
0.422976
0.423021
0.423057
0.423041
0.423039
0.422945
0.422928
0.422835
0.422783
0.422994
0.42315
0.42313
0.423115
0.422936
0.422904
0.422877
0.423023
0.423181
0.42299
0.423074
0.423217
0.423108
0.423009
0.423029
0.423061
0.42294
0.423006
0.423161
0.423261
0.423284
0.423267
0.423263
0.423029
0.423045
0.423187
0.423183
0.423148
0.422969
0.423014
0.423047
0.42286
0.38131
0.395398
0.408099
0.416937
0.421694
0.423164
0.423183
0.42329
0.423512
0.423381
0.423324
0.423459
0.423526
0.423479
0.423322
0.423357
0.423457
0.42335
0.423368
0.423332
0.423309
0.423262
0.423337
0.423414
0.423491
0.423473
0.423412
0.423416
0.423431
0.423447
0.423421
0.423371
0.423338
0.42331
0.423265
0.423172
0.423216
0.423497
0.423559
0.423529
0.423502
0.423342
0.423288
0.423231
0.423196
0.42319
0.423138
0.423117
0.423038
0.422908
0.42291
0.422981
0.422951
0.422928
0.422944
0.422895
0.422887
0.422833
0.422911
0.422949
0.422899
0.422901
0.422892
0.42282
0.422774
0.422827
0.422814
0.422908
0.422937
0.422918
0.422865
0.422977
0.423252
0.42323
0.423193
0.423124
0.42311
0.423005
0.422974
0.422938
0.422921
0.422944
0.422938
0.422815
0.422868
0.423086
0.423003
0.422949
0.422936
0.422834
0.381303
0.395378
0.408136
0.417023
0.421529
0.422797
0.422851
0.423001
0.423441
0.42344
0.423408
0.423408
0.423344
0.423111
0.423076
0.42326
0.423253
0.423315
0.42337
0.423396
0.423365
0.423335
0.423259
0.423332
0.42342
0.423239
0.423301
0.423521
0.423562
0.423522
0.423394
0.423409
0.423352
0.423329
0.423245
0.42332
0.423368
0.423295
0.423313
0.423315
0.423319
0.423243
0.423151
0.423066
0.423035
0.422931
0.422953
0.42305
0.423108
0.423071
0.42303
0.422922
0.422938
0.423127
0.423116
0.423116
0.423111
0.422996
0.42301
0.423077
0.423073
0.42307
0.422958
0.422954
0.422861
0.422953
0.423178
0.423174
0.423174
0.423092
0.423045
0.423001
0.422898
0.422989
0.42319
0.423133
0.423158
0.42314
0.423108
0.423038
0.422994
0.422855
0.422906
0.423126
0.423113
0.423112
0.423009
0.422997
0.422994
0.422876
0.381275
0.395398
0.40814
0.417013
0.421555
0.42288
0.423258
0.423286
0.423274
0.423271
0.423057
0.423071
0.423563
0.423747
0.423617
0.423718
0.423887
0.423894
0.423895
0.423759
0.423763
0.423751
0.423605
0.423596
0.423779
0.423797
0.423755
0.423563
0.4236
0.423653
0.423441
0.42341
0.423482
0.423472
0.423488
0.423493
0.423469
0.423246
0.423303
0.423457
0.423453
0.423445
0.423228
0.423277
0.423339
0.423291
0.423135
0.423147
0.423209
0.423202
0.423199
0.42303
0.423067
0.423081
0.423048
0.423004
0.42305
0.42316
0.423104
0.423116
0.423081
0.423042
0.422869
0.422926
0.423088
0.422992
0.423012
0.422973
0.422929
0.422836
0.422912
0.422992
0.422889
0.422848
0.422992
0.423154
0.423116
0.42312
0.423093
0.422886
0.422885
0.423066
0.423036
0.423004
0.422982
0.422896
0.423005
0.423165
0.423124
0.422966
0.381297
0.395401
0.408162
0.416807
0.421568
0.423586
0.423963
0.424106
0.424115
0.424097
0.424057
0.424072
0.424088
0.424077
0.424077
0.424039
0.423934
0.423938
0.423987
0.423852
0.423905
0.423952
0.423902
0.423898
0.423869
0.423794
0.423812
0.423861
0.423837
0.423844
0.423795
0.423753
0.423674
0.423412
0.423406
0.42346
0.423332
0.423272
0.423459
0.42358
0.423551
0.423531
0.423351
0.423395
0.423483
0.423405
0.423402
0.42339
0.423201
0.423197
0.423336
0.423208
0.423305
0.423409
0.423301
0.423309
0.42327
0.423307
0.423316
0.423286
0.423286
0.423232
0.423019
0.423025
0.423031
0.422869
0.422832
0.422991
0.423102
0.423057
0.423062
0.423063
0.423065
0.423069
0.422941
0.423045
0.423203
0.423207
0.423207
0.423118
0.423098
0.42292
0.422975
0.423181
0.423191
0.423185
0.422973
0.423023
0.423095
0.42287
0.381289
0.395387
0.408151
0.416976
0.421516
0.423139
0.423313
0.423303
0.423299
0.423102
0.423098
0.423471
0.423674
0.423745
0.423723
0.423739
0.423686
0.423676
0.423921
0.424009
0.423978
0.423971
0.423971
0.423809
0.423871
0.423919
0.423911
0.423911
0.423874
0.423854
0.423706
0.423621
0.423561
0.423387
0.423419
0.423478
0.423365
0.423283
0.42325
0.423217
0.423359
0.423488
0.423277
0.42334
0.423484
0.423449
0.42345
0.423429
0.423419
0.423373
0.423308
0.423058
0.422987
0.422959
0.42291
0.422829
0.42294
0.423089
0.42308
0.423074
0.42288
0.422966
0.423084
0.42308
0.423078
0.422956
0.422939
0.422826
0.422894
0.423212
0.423223
0.42318
0.423042
0.422962
0.422975
0.422908
0.423013
0.42329
0.423296
0.423306
0.423237
0.423199
0.423148
0.422986
0.423058
0.423159
0.423052
0.423061
0.423042
0.422862
0.381295
0.395316
0.408269
0.416927
0.421485
0.423044
0.423181
0.423164
0.423114
0.423242
0.423462
0.423465
0.423461
0.423266
0.42337
0.423563
0.423484
0.423478
0.423477
0.423431
0.423326
0.423426
0.423508
0.423463
0.423435
0.423401
0.423327
0.423371
0.42357
0.423573
0.423573
0.423594
0.423548
0.423363
0.423429
0.423493
0.423468
0.423462
0.423421
0.423409
0.423362
0.423317
0.423258
0.423161
0.42289
0.422865
0.422955
0.422983
0.422985
0.422785
0.422798
0.422916
0.422928
0.422916
0.422713
0.422772
0.422844
0.422661
0.42267
0.422989
0.423062
0.423008
0.422864
0.422822
0.422875
0.422735
0.422758
0.422926
0.422908
0.422921
0.42293
0.422928
0.422776
0.422849
0.422953
0.42277
0.422778
0.423053
0.423097
0.423059
0.423004
0.422894
0.423022
0.423235
0.423211
0.423174
0.42302
0.42298
0.422985
0.422846
0.381305
0.395361
0.408156
0.416946
0.421599
0.423141
0.423267
0.423239
0.42319
0.423269
0.423356
0.423252
0.423231
0.42339
0.42346
0.423331
0.423449
0.423695
0.423583
0.423692
0.423759
0.423725
0.42372
0.423565
0.423637
0.423684
0.423481
0.423552
0.423596
0.423565
0.423482
0.423485
0.423629
0.423638
0.423649
0.423526
0.423497
0.423539
0.423525
0.423455
0.423424
0.423304
0.422981
0.422959
0.422995
0.422838
0.422932
0.423148
0.423125
0.423124
0.423066
0.42309
0.423097
0.423087
0.422916
0.422937
0.422957
0.422806
0.422775
0.422949
0.423047
0.422996
0.42281
0.422798
0.422987
0.423009
0.42297
0.422775
0.422788
0.422936
0.422964
0.422978
0.422911
0.423
0.423017
0.422986
0.422993
0.422895
0.422982
0.423195
0.422987
0.422993
0.423163
0.423224
0.423186
0.423003
0.423052
0.423095
0.423045
0.422886
0.381281
0.395404
0.408123
0.416967
0.421563
0.423177
0.423447
0.423457
0.423458
0.423397
0.423336
0.423464
0.423659
0.423777
0.423894
0.423776
0.423789
0.423781
0.423653
0.423716
0.423886
0.423704
0.423677
0.423764
0.423736
0.423841
0.423907
0.423891
0.423894
0.423865
0.423851
0.423806
0.423754
0.423678
0.423626
0.423567
0.423507
0.423392
0.42323
0.423118
0.42303
0.422962
0.422931
0.422872
0.422973
0.423027
0.422995
0.422902
0.422918
0.423089
0.422985
0.423073
0.423187
0.42318
0.423176
0.423044
0.422891
0.422911
0.422939
0.422772
0.42276
0.422889
0.422825
0.422935
0.423132
0.423133
0.423126
0.422891
0.422897
0.423153
0.423176
0.423124
0.422926
0.422944
0.42308
0.423113
0.423073
0.422836
0.422847
0.423066
0.423087
0.423053
0.422943
0.423038
0.423146
0.423113
0.423066
0.422924
0.422903
0.422804
0.381298
0.395396
0.408174
0.41677
0.421619
0.423536
0.423826
0.423803
0.423696
0.423791
0.423935
0.423724
0.423778
0.423931
0.423748
0.423833
0.423977
0.423972
0.423972
0.423784
0.42388
0.424021
0.423795
0.423807
0.424008
0.424021
0.42399
0.424017
0.42398
0.423909
0.423733
0.423669
0.423591
0.423551
0.423485
0.423529
0.423596
0.423581
0.42357
0.42332
0.423345
0.423393
0.423361
0.423345
0.423172
0.423239
0.423347
0.423306
0.423302
0.423309
0.423328
0.4233
0.423227
0.422984
0.422956
0.423076
0.423146
0.42311
0.422884
0.422947
0.423172
0.423153
0.423117
0.423043
0.423027
0.42292
0.422857
0.422978
0.423066
0.423027
0.423037
0.423046
0.423049
0.423042
0.422937
0.423043
0.423197
0.423188
0.423182
0.422994
0.423064
0.423148
0.423135
0.423131
0.422977
0.422944
0.423033
0.42306
0.423023
0.422875
0.381296
0.395348
0.408168
0.417048
0.4215
0.422849
0.423136
0.423178
0.423042
0.423143
0.423208
0.423108
0.423168
0.42319
0.423068
0.423155
0.423413
0.423297
0.423409
0.423516
0.42333
0.423332
0.423536
0.42351
0.423641
0.42386
0.423699
0.423772
0.423803
0.423754
0.423607
0.423615
0.423625
0.423537
0.423439
0.423491
0.423546
0.423395
0.423427
0.423475
0.423466
0.423472
0.423441
0.423431
0.423396
0.423354
0.423243
0.423298
0.423326
0.423301
0.423281
0.423039
0.422984
0.423044
0.423126
0.423093
0.42286
0.422859
0.42306
0.423085
0.423045
0.422897
0.422846
0.422962
0.422999
0.42297
0.422889
0.422953
0.4231
0.423064
0.423085
0.423097
0.423083
0.422949
0.422852
0.422938
0.422904
0.423011
0.423231
0.423066
0.423157
0.42326
0.423265
0.423266
0.423122
0.423053
0.423191
0.423298
0.423246
0.423046
0.381298
0.3954
0.40816
0.416808
0.421544
0.423617
0.42399
0.423976
0.423889
0.42395
0.424068
0.42388
0.423958
0.424038
0.423916
0.423915
0.423914
0.423787
0.423842
0.423977
0.423862
0.423914
0.423958
0.423996
0.424
0.423982
0.423935
0.423901
0.423907
0.423911
0.423873
0.423834
0.423802
0.423773
0.423703
0.423641
0.423579
0.423461
0.423278
0.423197
0.423132
0.422939
0.422961
0.423165
0.423212
0.423173
0.423093
0.423074
0.422876
0.422933
0.423064
0.422862
0.422886
0.42312
0.423138
0.423105
0.423077
0.422996
0.422963
0.422864
0.422925
0.423195
0.423203
0.423204
0.423071
0.423162
0.423218
0.423215
0.423214
0.42298
0.423018
0.423065
0.423051
0.423049
0.422885
0.423032
0.423195
0.423178
0.423164
0.422987
0.423071
0.423193
0.423111
0.42312
0.423102
0.422976
0.422892
0.422983
0.423018
0.422869
0.381328
0.3954
0.40806
0.416959
0.421606
0.423051
0.423483
0.423507
0.423271
0.423263
0.423421
0.423502
0.42347
0.423295
0.423376
0.423573
0.423578
0.423579
0.423438
0.423499
0.423553
0.423431
0.423496
0.423673
0.423652
0.423592
0.423659
0.423724
0.423537
0.423581
0.423683
0.423462
0.423479
0.423589
0.423594
0.423592
0.42348
0.423464
0.423462
0.423461
0.423407
0.423361
0.423327
0.423334
0.423291
0.423184
0.422868
0.422788
0.422911
0.422836
0.422945
0.423031
0.422998
0.422946
0.42289
0.423074
0.423089
0.423163
0.423514
0.423553
0.4235
0.423323
0.423314
0.423422
0.423418
0.423377
0.423412
0.423422
0.423382
0.423375
0.423292
0.423056
0.423058
0.423178
0.423168
0.423134
0.423003
0.423018
0.423028
0.422895
0.422933
0.423166
0.423229
0.423183
0.423067
0.423008
0.423047
0.423065
0.423019
0.422866
0.381303
0.395415
0.408146
0.416805
0.421466
0.423625
0.424159
0.424162
0.424162
0.42413
0.424077
0.424146
0.42418
0.424134
0.424045
0.423997
0.423952
0.423765
0.42381
0.423962
0.423865
0.42379
0.42376
0.423743
0.423879
0.423962
0.423958
0.423955
0.423844
0.423831
0.423764
0.423738
0.423686
0.423592
0.423562
0.423515
0.423499
0.423458
0.423411
0.423366
0.423273
0.423055
0.422892
0.422968
0.423007
0.42295
0.422803
0.422761
0.422836
0.422725
0.422822
0.422982
0.422933
0.422815
0.422845
0.423084
0.423247
0.423295
0.423076
0.423109
0.423266
0.423083
0.423141
0.423272
0.423153
0.423167
0.423128
0.423093
0.423095
0.423043
0.422869
0.422925
0.423122
0.423113
0.423108
0.423044
0.422898
0.422998
0.423151
0.423135
0.423151
0.423143
0.423119
0.422893
0.422901
0.42306
0.422908
0.42293
0.423075
0.422902
0.381298
0.395403
0.40815
0.416843
0.421459
0.423707
0.424187
0.424184
0.424131
0.424149
0.424167
0.424161
0.42416
0.423958
0.42402
0.42408
0.423869
0.423943
0.42407
0.423847
0.42388
0.424037
0.42402
0.423989
0.424033
0.424071
0.424055
0.424051
0.423951
0.423942
0.423898
0.423829
0.423768
0.423711
0.423672
0.423629
0.423559
0.423415
0.423262
0.423169
0.423104
0.422972
0.422874
0.422863
0.42284
0.42284
0.422767
0.422869
0.423038
0.423033
0.423032
0.422952
0.422832
0.422878
0.422965
0.423055
0.423248
0.423114
0.423215
0.423314
0.4232
0.42327
0.423304
0.423252
0.423138
0.423047
0.42308
0.423093
0.422995
0.423028
0.423268
0.423289
0.42326
0.423258
0.423205
0.423082
0.42309
0.423166
0.423152
0.423154
0.42311
0.422954
0.423057
0.423167
0.423154
0.423148
0.422946
0.422994
0.42306
0.422866
0.381303
0.395414
0.408154
0.416778
0.421534
0.42357
0.423948
0.424114
0.424113
0.423918
0.423994
0.424049
0.42401
0.423888
0.423918
0.424006
0.423772
0.42379
0.423931
0.423877
0.423855
0.423844
0.423784
0.423875
0.423931
0.423852
0.423863
0.423852
0.423879
0.423828
0.423791
0.423738
0.423502
0.423411
0.423445
0.423338
0.423413
0.423497
0.423488
0.423483
0.423384
0.42335
0.423289
0.423192
0.423087
0.42298
0.422902
0.422717
0.422642
0.422869
0.422959
0.422947
0.422943
0.422759
0.422795
0.42309
0.423336
0.423338
0.423155
0.423248
0.423344
0.423216
0.423293
0.423338
0.423288
0.423123
0.423101
0.42318
0.423187
0.42311
0.423138
0.423198
0.423032
0.423118
0.42318
0.423135
0.422991
0.422965
0.423118
0.423177
0.423145
0.4231
0.42305
0.422821
0.422815
0.422966
0.42296
0.422961
0.422942
0.422784
0.381287
0.395469
0.408049
0.416886
0.421589
0.423408
0.42365
0.423618
0.42353
0.423487
0.423602
0.423633
0.423589
0.423437
0.423509
0.423672
0.423527
0.423625
0.423702
0.423685
0.423634
0.423633
0.423867
0.423848
0.423965
0.424025
0.424004
0.424
0.423917
0.423907
0.423868
0.423812
0.423758
0.423702
0.423639
0.423581
0.423493
0.423426
0.423366
0.423264
0.423146
0.423075
0.422933
0.422821
0.42279
0.422756
0.422817
0.422831
0.422792
0.422683
0.422672
0.423224
0.423597
0.42359
0.423541
0.423594
0.423743
0.423724
0.423668
0.423426
0.423433
0.423515
0.423429
0.423414
0.423436
0.423446
0.423408
0.423303
0.423357
0.423435
0.423427
0.423427
0.423369
0.423353
0.423152
0.423189
0.423228
0.423115
0.42314
0.423097
0.422979
0.422931
0.422935
0.42291
0.422915
0.422919
0.422932
0.422931
0.422884
0.422747
0.381307
0.395373
0.408137
0.416971
0.421571
0.422986
0.423096
0.423015
0.423078
0.423267
0.423301
0.423263
0.423165
0.423089
0.42327
0.423484
0.423483
0.423492
0.423383
0.423543
0.424063
0.424109
0.424056
0.424069
0.424071
0.424037
0.423885
0.423815
0.423809
0.42383
0.423829
0.423755
0.423688
0.423619
0.423526
0.423318
0.423344
0.423395
0.423362
0.423343
0.423189
0.423141
0.423114
0.42306
0.42286
0.422874
0.422999
0.423029
0.42299
0.42294
0.422934
0.422886
0.422807
0.422714
0.422733
0.422707
0.42278
0.422832
0.422813
0.422793
0.422763
0.422773
0.422772
0.422739
0.422628
0.422728
0.422887
0.42278
0.422713
0.422856
0.423106
0.423065
0.423119
0.423181
0.423153
0.423106
0.422975
0.423065
0.423225
0.423132
0.423128
0.423124
0.423072
0.422948
0.422974
0.422997
0.422847
0.422917
0.423024
0.422824
0.381299
0.395395
0.408179
0.416759
0.421639
0.423546
0.4238
0.423786
0.423776
0.423772
0.42368
0.423775
0.423933
0.423897
0.423901
0.423873
0.423881
0.423842
0.423843
0.423753
0.423861
0.424086
0.424044
0.424052
0.424078
0.424107
0.42409
0.42404
0.423907
0.423886
0.423804
0.423531
0.42355
0.423595
0.423583
0.423571
0.423405
0.423382
0.423333
0.423245
0.423184
0.423136
0.423082
0.423044
0.422972
0.422804
0.422687
0.422784
0.422911
0.422881
0.422835
0.422725
0.42293
0.423497
0.423478
0.423476
0.42343
0.423556
0.423685
0.423599
0.423617
0.42361
0.423487
0.423548
0.4236
0.423342
0.423333
0.423411
0.423232
0.423275
0.423432
0.423275
0.42335
0.423505
0.423469
0.42349
0.423513
0.423492
0.423498
0.423502
0.423456
0.423406
0.423076
0.423045
0.423126
0.423136
0.423126
0.423003
0.422953
0.422791
0.381298
0.395401
0.408157
0.416821
0.421517
0.423667
0.424028
0.423881
0.42398
0.424101
0.42396
0.423947
0.423946
0.423952
0.423844
0.423933
0.424069
0.423845
0.42387
0.424028
0.424031
0.424015
0.424011
0.42422
0.424277
0.42419
0.424183
0.424178
0.424125
0.424093
0.424037
0.423918
0.423821
0.423756
0.423663
0.423444
0.42338
0.423316
0.423093
0.423117
0.423308
0.4233
0.423255
0.423044
0.422985
0.423009
0.422912
0.423017
0.423103
0.423085
0.423077
0.422877
0.422985
0.42348
0.42345
0.423589
0.42374
0.423696
0.423696
0.423653
0.423638
0.423514
0.423606
0.423676
0.423431
0.42346
0.423553
0.423345
0.423407
0.423553
0.42348
0.423523
0.42354
0.42348
0.423536
0.423555
0.423509
0.423502
0.423351
0.423388
0.4234
0.423372
0.423385
0.423355
0.423292
0.423036
0.423
0.4231
0.423104
0.422961
0.381312
0.395343
0.408165
0.417025
0.421438
0.423135
0.423324
0.423283
0.423292
0.423204
0.423236
0.423249
0.423098
0.423098
0.423489
0.423646
0.423593
0.423855
0.424149
0.424132
0.424142
0.424116
0.424119
0.424062
0.424068
0.424024
0.423905
0.423958
0.423984
0.423924
0.423909
0.42387
0.423862
0.423831
0.423703
0.423628
0.423534
0.423347
0.423065
0.423097
0.423197
0.423077
0.423129
0.423143
0.423075
0.423069
0.423052
0.422897
0.422924
0.423016
0.422777
0.422765
0.42285
0.422879
0.422883
0.422736
0.422852
0.422995
0.422944
0.422976
0.422937
0.422827
0.422846
0.423175
0.423267
0.423229
0.423165
0.423036
0.423031
0.423009
0.423131
0.42319
0.423158
0.423062
0.423094
0.423163
0.422954
0.422979
0.423148
0.423124
0.423131
0.423083
0.422975
0.42289
0.423051
0.423168
0.423144
0.423142
0.423078
0.422858
0.381287
0.395436
0.408094
0.416868
0.421648
0.423355
0.423767
0.423744
0.423582
0.423581
0.42372
0.423711
0.423712
0.42371
0.423732
0.423703
0.423709
0.423647
0.423689
0.423754
0.423724
0.423632
0.423723
0.423943
0.423743
0.423776
0.423978
0.424023
0.423994
0.423951
0.423886
0.423541
0.4235
0.423518
0.423525
0.423522
0.423445
0.423432
0.423377
0.423301
0.423113
0.423034
0.42297
0.422844
0.422679
0.422706
0.422783
0.422764
0.422759
0.422586
0.422668
0.422929
0.422939
0.422887
0.422668
0.422699
0.422819
0.422637
0.422689
0.422896
0.422828
0.422869
0.422933
0.422905
0.42291
0.422917
0.422924
0.422899
0.422694
0.422766
0.422983
0.422968
0.422897
0.422942
0.423005
0.422793
0.422868
0.423005
0.422994
0.422995
0.422872
0.42301
0.42316
0.423124
0.423123
0.423124
0.423118
0.423026
0.422952
0.422728
0.381298
0.395398
0.408169
0.416782
0.421607
0.423558
0.423828
0.423814
0.423758
0.423863
0.424002
0.423825
0.423917
0.424047
0.424033
0.424017
0.424027
0.424044
0.42394
0.423899
0.423883
0.423854
0.424009
0.424156
0.424127
0.424123
0.424126
0.424122
0.424016
0.423994
0.423908
0.423812
0.42374
0.423673
0.423564
0.423311
0.423249
0.423224
0.423185
0.423186
0.423189
0.42316
0.423121
0.42308
0.423022
0.422935
0.422723
0.422619
0.422767
0.422871
0.42284
0.422741
0.422716
0.422819
0.422883
0.422847
0.422787
0.422682
0.422773
0.422864
0.422767
0.422724
0.42289
0.423074
0.423004
0.423027
0.423034
0.423016
0.422811
0.422816
0.422884
0.422717
0.42274
0.423068
0.423139
0.423125
0.423128
0.423101
0.423113
0.423076
0.423002
0.422806
0.422746
0.422985
0.42307
0.423024
0.422861
0.422903
0.423052
0.42285
0.381297
0.395403
0.40815
0.416845
0.42146
0.423713
0.424151
0.42417
0.424171
0.423974
0.424048
0.424124
0.423959
0.424047
0.424113
0.423913
0.42399
0.424126
0.423903
0.423924
0.424083
0.424032
0.423985
0.424099
0.424235
0.424165
0.42416
0.424153
0.424156
0.424147
0.424148
0.424116
0.424075
0.424006
0.423793
0.423513
0.423411
0.423353
0.423325
0.423319
0.423283
0.423251
0.423192
0.423151
0.423096
0.42292
0.422942
0.422972
0.422958
0.422954
0.422745
0.422721
0.423231
0.423676
0.423547
0.423648
0.423753
0.423675
0.423674
0.423667
0.423692
0.423664
0.42369
0.423643
0.42351
0.423434
0.423406
0.42327
0.423346
0.423498
0.423388
0.423411
0.42336
0.423335
0.423327
0.42318
0.423224
0.42331
0.423292
0.423296
0.423268
0.423244
0.42304
0.42309
0.423229
0.423246
0.423205
0.423149
0.423128
0.422841
0.381298
0.395401
0.408157
0.41682
0.421517
0.423668
0.424031
0.423883
0.423983
0.424104
0.42396
0.423999
0.424047
0.424006
0.423865
0.423939
0.424072
0.423846
0.423869
0.424026
0.423936
0.424056
0.424175
0.424044
0.424131
0.424172
0.424159
0.424156
0.42409
0.424088
0.424026
0.423924
0.423704
0.42361
0.423552
0.42344
0.423398
0.42333
0.423116
0.42312
0.4233
0.423302
0.423258
0.423046
0.422986
0.423008
0.422943
0.423032
0.423085
0.423061
0.423054
0.422889
0.423039
0.423475
0.423475
0.423429
0.423508
0.423583
0.423574
0.423571
0.423331
0.423377
0.423501
0.423292
0.423356
0.423475
0.423359
0.423374
0.423332
0.423174
0.423162
0.423359
0.423429
0.423405
0.423421
0.423384
0.423329
0.423296
0.423222
0.422976
0.422986
0.423136
0.422951
0.423017
0.423155
0.42311
0.423123
0.423132
0.423114
0.422853
0.381299
0.395394
0.40818
0.416758
0.421643
0.423525
0.42375
0.42387
0.423937
0.423814
0.423844
0.423849
0.423714
0.423774
0.423937
0.42393
0.423918
0.423859
0.423851
0.42379
0.423909
0.424017
0.423973
0.423816
0.423801
0.423886
0.423701
0.423697
0.423926
0.424004
0.423963
0.423885
0.423882
0.423845
0.423802
0.423768
0.423718
0.423626
0.423435
0.423177
0.423091
0.423057
0.422988
0.422951
0.422935
0.422872
0.422703
0.422814
0.422958
0.422953
0.422951
0.422783
0.422982
0.423463
0.423464
0.423473
0.423419
0.423512
0.423624
0.423614
0.423609
0.423418
0.423447
0.423508
0.423491
0.42349
0.423417
0.423385
0.423234
0.423144
0.423304
0.423391
0.423379
0.423376
0.423174
0.423159
0.423251
0.423164
0.423267
0.423336
0.423324
0.423323
0.423226
0.42322
0.423195
0.423004
0.423011
0.423132
0.423111
0.422954
0.381309
0.395366
0.408153
0.416952
0.421547
0.423074
0.423252
0.423219
0.4231
0.423197
0.423431
0.423417
0.423416
0.423314
0.423307
0.423264
0.4234
0.423548
0.423379
0.423426
0.423722
0.423918
0.42395
0.423751
0.42377
0.423922
0.42392
0.423832
0.423877
0.423924
0.4239
0.423894
0.423822
0.423816
0.423766
0.423687
0.423422
0.423359
0.423327
0.423156
0.423232
0.423298
0.423179
0.423171
0.423159
0.423135
0.423111
0.423133
0.42315
0.423066
0.423092
0.423129
0.423116
0.423108
0.422943
0.42293
0.422868
0.422721
0.422623
0.422819
0.42299
0.422988
0.422986
0.422815
0.422908
0.423147
0.423135
0.42312
0.423101
0.422981
0.422992
0.423162
0.4231
0.423226
0.423325
0.423153
0.423232
0.423288
0.423146
0.423209
0.423241
0.423191
0.423091
0.423
0.423108
0.423176
0.423245
0.423243
0.423174
0.422929
0.381334
0.395386
0.408072
0.416968
0.421592
0.42303
0.423466
0.423496
0.423453
0.42345
0.42341
0.423393
0.423205
0.423223
0.423568
0.423643
0.423619
0.423612
0.423563
0.423394
0.42337
0.423757
0.423938
0.423929
0.423923
0.423725
0.423762
0.423852
0.423788
0.423783
0.423754
0.423605
0.423507
0.423548
0.423563
0.423507
0.423316
0.423326
0.423331
0.423277
0.423299
0.423228
0.423191
0.423192
0.42319
0.423156
0.423135
0.423096
0.423042
0.422983
0.422825
0.422712
0.422805
0.422892
0.422867
0.422791
0.422859
0.422917
0.423008
0.423229
0.423212
0.423177
0.423139
0.423186
0.423193
0.423159
0.42302
0.423109
0.423182
0.422998
0.423088
0.423205
0.423211
0.423212
0.422993
0.423032
0.423209
0.423239
0.4232
0.42316
0.423137
0.422935
0.42299
0.423104
0.423076
0.423055
0.422879
0.422929
0.422974
0.422804
0.381328
0.395399
0.408062
0.41696
0.421607
0.423051
0.423477
0.423501
0.423282
0.423345
0.423408
0.423382
0.423376
0.423277
0.423489
0.423643
0.423615
0.42357
0.423445
0.423628
0.423835
0.423811
0.423805
0.423783
0.423827
0.423827
0.42383
0.42375
0.423711
0.423636
0.423446
0.423385
0.423563
0.423644
0.423614
0.423615
0.423556
0.423442
0.4233
0.423257
0.423212
0.423194
0.42314
0.422963
0.422824
0.422872
0.422923
0.42287
0.422739
0.422688
0.422937
0.422984
0.422996
0.423321
0.42344
0.423422
0.42341
0.423196
0.423255
0.423411
0.423322
0.423329
0.423323
0.423221
0.423145
0.423139
0.423032
0.423124
0.423274
0.423258
0.423261
0.423236
0.42322
0.422986
0.423013
0.42313
0.423146
0.423148
0.423047
0.423041
0.423017
0.423024
0.42302
0.423032
0.422985
0.422805
0.422858
0.423047
0.423023
0.422875
0.381298
0.395402
0.408154
0.416826
0.421501
0.423673
0.424063
0.424037
0.424033
0.423929
0.424025
0.424121
0.424008
0.42408
0.424121
0.424074
0.423915
0.423956
0.424068
0.423846
0.423881
0.42404
0.423908
0.423987
0.424051
0.423944
0.424005
0.424019
0.423961
0.423834
0.423775
0.423697
0.423449
0.423481
0.423543
0.423381
0.423276
0.42327
0.423323
0.423296
0.423239
0.423107
0.423067
0.423159
0.423047
0.423137
0.423276
0.423083
0.423161
0.423258
0.423259
0.423259
0.423156
0.423131
0.422931
0.422944
0.423151
0.423103
0.423114
0.423113
0.423141
0.423138
0.423154
0.423113
0.422964
0.423007
0.42314
0.423126
0.423037
0.423034
0.423267
0.423288
0.42326
0.423253
0.423116
0.423088
0.423149
0.423218
0.423182
0.423091
0.423074
0.422901
0.422971
0.423182
0.423195
0.423189
0.422969
0.423022
0.423099
0.422874
0.381303
0.395417
0.408142
0.416816
0.421432
0.423689
0.424137
0.424067
0.424101
0.424107
0.424009
0.424068
0.424126
0.424111
0.424085
0.424118
0.424184
0.424175
0.424164
0.424154
0.424173
0.42417
0.424171
0.42401
0.424067
0.424099
0.424009
0.424026
0.424019
0.423977
0.423937
0.423935
0.423926
0.42385
0.42352
0.423491
0.423539
0.423536
0.423522
0.423256
0.423244
0.42328
0.423255
0.423127
0.423145
0.423191
0.423086
0.422998
0.423083
0.423245
0.423182
0.423213
0.423175
0.423128
0.423042
0.423155
0.423265
0.423248
0.42324
0.423081
0.423054
0.423012
0.42312
0.423357
0.423212
0.423287
0.423452
0.423395
0.423425
0.423386
0.423332
0.423217
0.423225
0.423333
0.423347
0.423347
0.423238
0.423128
0.423148
0.423224
0.423203
0.423204
0.423144
0.422993
0.42286
0.422917
0.422999
0.422987
0.42298
0.422792
0.381289
0.395461
0.408073
0.416835
0.421638
0.423406
0.423598
0.423556
0.423557
0.423531
0.423339
0.423339
0.423489
0.42331
0.423292
0.423464
0.423556
0.423521
0.4234
0.423511
0.423752
0.423708
0.423716
0.423729
0.423755
0.423738
0.423684
0.423529
0.423434
0.42359
0.423666
0.42361
0.423464
0.423415
0.423517
0.423532
0.423495
0.423508
0.423464
0.423383
0.423321
0.423221
0.422992
0.4228
0.422886
0.422948
0.422904
0.422765
0.422739
0.422991
0.42304
0.423014
0.423008
0.422906
0.422915
0.422873
0.422906
0.423302
0.423406
0.423329
0.423355
0.423319
0.423265
0.423151
0.42311
0.423091
0.423221
0.423291
0.423202
0.42322
0.423208
0.423058
0.423109
0.4232
0.422989
0.423059
0.423193
0.423086
0.422983
0.423013
0.423176
0.423201
0.423189
0.423213
0.42317
0.422955
0.42298
0.423129
0.423112
0.42296
0.381298
0.395401
0.408158
0.416814
0.42154
0.423603
0.424051
0.424137
0.424114
0.424138
0.424076
0.42409
0.424107
0.423899
0.423951
0.424035
0.42387
0.423977
0.424095
0.423887
0.423958
0.424079
0.423995
0.42404
0.424058
0.424022
0.423978
0.423764
0.42373
0.423812
0.423752
0.423791
0.423795
0.423759
0.423729
0.423684
0.423535
0.423373
0.423284
0.423217
0.423123
0.423053
0.422896
0.422821
0.422872
0.422791
0.422794
0.422897
0.422824
0.422916
0.423173
0.423165
0.423159
0.423113
0.422967
0.423027
0.42316
0.423128
0.423016
0.423058
0.423158
0.422947
0.422979
0.423118
0.422961
0.422921
0.422984
0.423007
0.422969
0.423032
0.423182
0.423237
0.423216
0.423204
0.423095
0.423052
0.423114
0.423131
0.423095
0.422949
0.423034
0.42318
0.42314
0.423139
0.423094
0.422975
0.42289
0.422976
0.423011
0.422864
0.38129
0.395368
0.408169
0.417
0.421523
0.422976
0.423087
0.42296
0.422975
0.423275
0.423357
0.423328
0.423311
0.423129
0.423278
0.423628
0.423618
0.423559
0.423612
0.423824
0.423772
0.42373
0.423885
0.424076
0.42398
0.424056
0.424082
0.424058
0.424032
0.423807
0.423757
0.423688
0.423652
0.423601
0.423424
0.423495
0.423527
0.423465
0.423366
0.423362
0.423404
0.423368
0.42329
0.423202
0.423155
0.423071
0.423177
0.423242
0.423224
0.423221
0.423131
0.423086
0.422886
0.422792
0.422968
0.42304
0.422992
0.422874
0.422833
0.42295
0.42302