/*--------------------------------*- C++ -*----------------------------------*\
  =========                 |
  \\      /  F ield         | OpenFOAM: The Open Source CFD Toolbox
   \\    /   O peration     | Website:  https://openfoam.org
    \\  /    A nd           | Version:  11
     \\/     M anipulation  |
\*---------------------------------------------------------------------------*/
FoamFile
{
    format      ascii;
    class       volScalarField;
    location    "0.06";
    object      nut;
}
// * * * * * * * * * * * * * * * * * * * * * * * * * * * * * * * * * * * * * //

dimensions      [0 2 -1 0 0 0 0];

internalField   nonuniform List<scalar> 
287084
(
0.000835874
0.000867788
0.000897617
0.000918744
0.000930032
0.000934002
0.000934743
0.000934939
0.000934795
0.000935011
0.000935446
0.000935219
0.000935345
0.000935389
0.000935275
0.000935179
0.000934842
0.000934746
0.000934513
0.000934649
0.000935136
0.000934776
0.000934903
0.000934997
0.000934949
0.000934939
0.000934567
0.000934748
0.000935076
0.000935027
0.000935096
0.000935283
0.000935461
0.000935276
0.000935201
0.000935292
0.000935321
0.000935529
0.000935706
0.000935779
0.000935594
0.000935787
0.000935967
0.00093594
0.000936046
0.00093604
0.000935798
0.000935915
0.000936389
0.000936125
0.000936296
0.000936706
0.000936711
0.000936694
0.000936436
0.000936115
0.000936198
0.000936303
0.000936037
0.000936255
0.000936375
0.000936146
0.000935961
0.000936238
0.000936693
0.000936694
0.000936663
0.000936176
0.000936261
0.000936527
0.000936487
0.000936424
0.000936048
0.000936115
0.000936143
0.000936317
0.000936416
0.000936352
0.000936203
0.000936137
0.000936368
0.000936248
0.000936434
0.000936528
0.000936453
0.000936385
0.000935807
0.000935843
0.000936039
0.000935618
0.00118156
0.00122516
0.00126525
0.00129347
0.00130833
0.00131329
0.00131383
0.0013135
0.00131379
0.00131448
0.00131444
0.00131437
0.00131402
0.0013139
0.00131365
0.00131303
0.00131302
0.00131326
0.00131312
0.00131282
0.00131267
0.00131341
0.00131391
0.00131388
0.00131387
0.00131372
0.00131351
0.00131344
0.00131303
0.00131327
0.00131382
0.00131368
0.00131396
0.00131419
0.00131425
0.00131448
0.00131453
0.00131418
0.00131424
0.00131511
0.00131549
0.00131552
0.00131532
0.00131522
0.00131573
0.00131618
0.00131615
0.00131627
0.00131637
0.00131649
0.00131636
0.0013156
0.0013157
0.00131591
0.00131571
0.00131575
0.00131563
0.00131518
0.00131511
0.00131556
0.00131539
0.00131575
0.00131606
0.00131589
0.00131584
0.00131546
0.00131575
0.00131616
0.00131601
0.00131552
0.00131549
0.00131621
0.00131644
0.00131634
0.00131622
0.00131612
0.00131536
0.00131539
0.00131586
0.00131555
0.0013155
0.00131547
0.00131518
0.00131511
0.00131559
0.00131576
0.00131558
0.00131559
0.00131549
0.00131471
0.00118162
0.00122532
0.00126547
0.00129364
0.00130821
0.00131377
0.00131464
0.0013146
0.00131419
0.00131418
0.00131453
0.00131425
0.00131421
0.00131411
0.00131384
0.00131353
0.0013138
0.00131408
0.00131387
0.00131359
0.0013131
0.00131314
0.00131316
0.00131355
0.00131396
0.00131394
0.00131398
0.00131376
0.00131389
0.00131394
0.00131398
0.001314
0.00131399
0.00131403
0.00131411
0.00131406
0.00131411
0.00131439
0.00131457
0.00131513
0.00131546
0.00131523
0.0013156
0.00131583
0.00131589
0.00131602
0.00131573
0.0013161
0.00131647
0.00131647
0.00131652
0.00131629
0.00131614
0.00131569
0.00131541
0.00131579
0.00131594
0.00131548
0.00131554
0.00131592
0.00131583
0.00131593
0.00131587
0.0013155
0.00131534
0.0013159
0.00131633
0.0013163
0.00131628
0.00131605
0.00131605
0.00131589
0.00131553
0.00131522
0.00131537
0.00131547
0.00131521
0.00131521
0.00131535
0.00131534
0.00131489
0.0013151
0.0013158
0.00131557
0.00131545
0.00131536
0.00131524
0.00131514
0.001315
0.00131456
0.00118156
0.00122557
0.0012657
0.00129367
0.00130859
0.0013143
0.00131518
0.00131508
0.0013146
0.00131449
0.00131495
0.00131493
0.00131472
0.00131409
0.00131382
0.00131423
0.00131439
0.00131412
0.00131405
0.00131394
0.00131385
0.00131352
0.00131335
0.00131296
0.00131301
0.00131308
0.00131303
0.00131301
0.00131295
0.00131373
0.00131425
0.00131436
0.00131454
0.00131446
0.00131456
0.0013147
0.0013149
0.00131505
0.00131458
0.00131496
0.0013154
0.00131547
0.00131525
0.00131552
0.00131606
0.00131615
0.00131628
0.00131627
0.0013162
0.00131569
0.00131589
0.00131605
0.00131603
0.00131605
0.00131578
0.00131573
0.00131545
0.00131528
0.00131593
0.0013164
0.00131633
0.00131626
0.00131568
0.00131556
0.00131545
0.00131588
0.00131635
0.00131573
0.00131596
0.00131638
0.00131602
0.00131569
0.00131572
0.0013158
0.0013154
0.00131559
0.00131605
0.00131634
0.0013164
0.00131633
0.0013163
0.00131556
0.0013156
0.00131603
0.00131601
0.00131589
0.00131532
0.00131545
0.00131555
0.00131492
0.00118157
0.00122568
0.00126574
0.00129378
0.00130896
0.00131373
0.00131385
0.00131417
0.00131481
0.00131434
0.00131409
0.00131441
0.00131451
0.00131425
0.00131364
0.00131362
0.0013138
0.00131334
0.00131327
0.00131305
0.00131287
0.00131264
0.00131281
0.001313
0.00131322
0.00131317
0.00131302
0.00131311
0.00131326
0.00131345
0.00131353
0.00131356
0.00131367
0.00131381
0.00131391
0.00131388
0.00131427
0.00131539
0.00131584
0.00131598
0.00131613
0.00131584
0.00131587
0.00131587
0.00131592
0.00131603
0.00131599
0.00131603
0.00131587
0.00131553
0.0013156
0.00131586
0.0013158
0.00131575
0.00131582
0.00131567
0.00131564
0.00131547
0.0013157
0.0013158
0.00131563
0.00131561
0.00131556
0.00131531
0.00131514
0.00131528
0.00131522
0.00131548
0.00131555
0.00131546
0.00131527
0.00131559
0.00131642
0.00131633
0.0013162
0.00131596
0.0013159
0.00131555
0.00131544
0.00131531
0.00131524
0.0013153
0.00131526
0.00131487
0.00131503
0.0013157
0.00131543
0.00131525
0.0013152
0.00131485
0.00118155
0.00122564
0.00126591
0.00129415
0.00130857
0.00131273
0.00131293
0.00131337
0.00131467
0.00131458
0.00131438
0.00131427
0.00131394
0.00131309
0.00131284
0.00131328
0.00131312
0.00131318
0.00131322
0.00131317
0.00131297
0.00131278
0.00131247
0.00131265
0.0013129
0.00131235
0.00131258
0.00131335
0.00131358
0.00131361
0.00131338
0.00131363
0.00131368
0.00131385
0.00131385
0.00131435
0.00131477
0.00131481
0.00131513
0.00131538
0.00131563
0.00131561
0.00131552
0.00131544
0.0013155
0.00131531
0.0013155
0.0013159
0.00131616
0.00131612
0.00131604
0.00131574
0.00131582
0.00131643
0.0013164
0.0013164
0.00131638
0.00131601
0.00131604
0.00131623
0.0013162
0.00131616
0.00131579
0.00131575
0.00131543
0.00131569
0.00131636
0.00131632
0.00131629
0.00131601
0.00131584
0.00131568
0.00131533
0.00131559
0.00131619
0.00131599
0.00131605
0.00131597
0.00131586
0.00131562
0.00131547
0.00131502
0.00131517
0.00131584
0.00131579
0.00131578
0.00131545
0.0013154
0.00131539
0.00131498
0.00118147
0.00122573
0.00126597
0.00129417
0.00130873
0.00131305
0.00131426
0.00131431
0.00131419
0.00131408
0.0013133
0.00131322
0.00131462
0.00131505
0.00131449
0.00131466
0.00131503
0.00131491
0.00131477
0.00131422
0.00131411
0.00131397
0.00131344
0.00131336
0.0013139
0.00131397
0.00131388
0.00131337
0.0013136
0.00131392
0.00131345
0.00131357
0.00131404
0.00131428
0.00131461
0.00131491
0.00131513
0.00131472
0.00131517
0.00131591
0.00131614
0.00131634
0.00131586
0.0013162
0.00131655
0.00131654
0.00131617
0.0013163
0.00131657
0.00131661
0.00131665
0.00131616
0.00131629
0.00131635
0.00131625
0.00131611
0.00131624
0.00131657
0.00131638
0.00131639
0.00131625
0.0013161
0.00131554
0.00131568
0.00131616
0.00131583
0.00131586
0.00131571
0.00131554
0.00131522
0.00131543
0.00131565
0.00131531
0.00131516
0.00131558
0.00131606
0.00131592
0.00131592
0.00131581
0.00131515
0.00131513
0.00131568
0.00131558
0.00131546
0.00131538
0.00131511
0.00131544
0.00131593
0.00131579
0.00131526
0.00118154
0.00122575
0.00126606
0.00129357
0.00130882
0.0013153
0.00131651
0.0013169
0.00131684
0.00131667
0.00131642
0.00131633
0.00131623
0.00131604
0.00131588
0.0013156
0.00131511
0.00131496
0.00131496
0.0013144
0.00131443
0.00131447
0.00131423
0.00131416
0.00131404
0.00131382
0.00131392
0.00131416
0.00131422
0.00131441
0.00131447
0.00131458
0.0013146
0.00131408
0.00131436
0.00131484
0.00131475
0.00131487
0.00131574
0.00131639
0.00131655
0.00131672
0.00131637
0.00131669
0.00131712
0.00131701
0.00131711
0.00131717
0.00131665
0.0013167
0.00131717
0.0013168
0.00131712
0.00131744
0.0013171
0.00131712
0.00131698
0.00131707
0.00131708
0.00131696
0.00131693
0.00131673
0.00131603
0.00131602
0.00131601
0.00131547
0.00131532
0.00131578
0.00131609
0.00131592
0.00131591
0.00131588
0.00131586
0.00131585
0.00131543
0.00131573
0.0013162
0.00131619
0.00131617
0.00131588
0.0013158
0.00131523
0.00131539
0.00131602
0.00131604
0.00131601
0.00131534
0.00131549
0.0013157
0.00131496
0.00118151
0.00122571
0.00126604
0.00129412
0.00130868
0.00131395
0.00131452
0.00131443
0.00131433
0.00131359
0.00131343
0.00131445
0.00131492
0.00131497
0.00131473
0.0013146
0.00131426
0.00131406
0.00131465
0.00131476
0.00131453
0.00131439
0.0013143
0.00131373
0.00131389
0.00131405
0.00131408
0.00131418
0.00131421
0.00131433
0.0013141
0.0013141
0.00131421
0.00131398
0.00131441
0.00131493
0.00131491
0.00131498
0.00131518
0.00131537
0.00131607
0.00131671
0.00131627
0.00131665
0.00131726
0.00131728
0.00131739
0.00131741
0.00131745
0.00131735
0.00131718
0.00131643
0.00131621
0.00131612
0.00131596
0.00131569
0.00131602
0.00131645
0.0013164
0.00131634
0.0013157
0.00131594
0.00131627
0.00131622
0.00131618
0.00131576
0.00131567
0.00131529
0.00131546
0.00131642
0.00131642
0.00131626
0.0013158
0.00131553
0.00131554
0.00131531
0.00131562
0.00131646
0.00131645
0.00131647
0.00131624
0.0013161
0.00131593
0.00131541
0.00131562
0.00131593
0.00131558
0.0013156
0.00131553
0.00131493
0.00118153
0.00122549
0.00126641
0.00129399
0.00130861
0.00131367
0.00131413
0.00131402
0.00131376
0.00131402
0.00131456
0.00131441
0.00131422
0.00131343
0.00131357
0.00131398
0.00131354
0.00131334
0.00131315
0.00131284
0.00131236
0.00131254
0.0013127
0.00131249
0.00131237
0.00131228
0.0013121
0.00131234
0.00131312
0.00131334
0.00131359
0.00131394
0.00131412
0.00131389
0.00131445
0.00131501
0.00131529
0.00131562
0.00131582
0.00131609
0.00131622
0.00131632
0.00131636
0.00131624
0.00131556
0.00131561
0.00131599
0.00131616
0.00131622
0.00131564
0.00131571
0.00131609
0.00131613
0.00131608
0.00131543
0.00131558
0.00131578
0.00131518
0.00131517
0.00131613
0.00131631
0.00131611
0.00131562
0.00131544
0.00131557
0.0013151
0.00131513
0.00131562
0.00131553
0.00131553
0.00131553
0.00131549
0.00131498
0.00131519
0.00131548
0.00131489
0.00131489
0.00131572
0.00131584
0.00131571
0.00131552
0.00131516
0.00131554
0.00131619
0.00131611
0.00131598
0.00131549
0.00131536
0.00131536
0.00131489
0.00118156
0.00122563
0.00126607
0.00129405
0.00130898
0.00131399
0.00131441
0.00131426
0.00131399
0.0013141
0.00131421
0.00131371
0.00131347
0.00131377
0.00131379
0.00131318
0.00131334
0.0013139
0.00131336
0.00131351
0.00131355
0.0013133
0.00131318
0.00131261
0.00131281
0.00131296
0.0013124
0.00131274
0.00131305
0.00131318
0.0013132
0.00131353
0.00131432
0.00131473
0.00131515
0.00131517
0.00131546
0.00131596
0.00131626
0.00131637
0.00131656
0.00131644
0.00131566
0.00131577
0.00131605
0.00131568
0.00131607
0.00131682
0.0013168
0.00131683
0.00131666
0.00131674
0.00131675
0.0013167
0.00131614
0.00131618
0.00131621
0.00131569
0.00131555
0.00131605
0.00131631
0.00131611
0.00131548
0.0013154
0.00131595
0.00131598
0.00131581
0.00131516
0.00131517
0.00131559
0.00131565
0.00131566
0.00131542
0.00131566
0.00131569
0.00131557
0.00131556
0.00131524
0.00131549
0.00131613
0.00131547
0.00131547
0.00131598
0.00131616
0.00131603
0.00131545
0.00131559
0.00131572
0.00131555
0.00131502
0.00118149
0.00122577
0.00126597
0.00129412
0.00130887
0.0013141
0.00131497
0.00131493
0.00131482
0.00131448
0.00131412
0.00131434
0.00131475
0.0013149
0.00131505
0.00131446
0.00131429
0.00131405
0.00131343
0.00131343
0.00131378
0.00131306
0.00131285
0.00131303
0.00131291
0.00131325
0.00131352
0.00131361
0.00131381
0.00131397
0.00131423
0.00131444
0.00131467
0.00131484
0.00131511
0.00131535
0.00131558
0.00131562
0.00131548
0.00131547
0.00131549
0.00131555
0.00131568
0.00131568
0.00131615
0.00131644
0.00131643
0.0013162
0.0013163
0.00131685
0.00131654
0.0013168
0.00131714
0.00131709
0.00131704
0.00131659
0.00131607
0.00131609
0.00131613
0.00131555
0.00131547
0.00131582
0.00131557
0.00131586
0.00131643
0.00131639
0.00131632
0.00131555
0.00131553
0.00131628
0.00131632
0.00131613
0.00131548
0.0013155
0.00131589
0.00131597
0.00131582
0.00131506
0.00131507
0.00131574
0.00131578
0.00131566
0.0013153
0.00131558
0.00131591
0.00131579
0.00131563
0.00131518
0.00131511
0.00131475
0.00118154
0.00122575
0.00126613
0.00129351
0.00130904
0.00131522
0.00131615
0.001316
0.00131554
0.00131568
0.00131596
0.0013151
0.00131506
0.00131531
0.00131452
0.00131455
0.00131475
0.0013145
0.00131428
0.00131348
0.00131358
0.00131385
0.00131301
0.00131296
0.00131354
0.0013136
0.00131358
0.00131381
0.00131391
0.00131396
0.00131375
0.00131394
0.00131412
0.00131444
0.0013147
0.0013153
0.00131595
0.00131633
0.00131668
0.00131626
0.00131665
0.00131707
0.00131719
0.00131733
0.00131694
0.00131727
0.00131769
0.00131762
0.00131764
0.00131768
0.00131773
0.00131763
0.00131738
0.00131658
0.00131645
0.00131677
0.00131694
0.00131678
0.00131601
0.00131615
0.0013168
0.00131669
0.00131652
0.00131623
0.00131613
0.00131575
0.00131551
0.00131584
0.00131607
0.00131591
0.0013159
0.0013159
0.00131587
0.00131582
0.00131546
0.00131576
0.00131622
0.00131616
0.00131612
0.00131551
0.00131572
0.00131596
0.0013159
0.00131588
0.00131538
0.00131527
0.00131554
0.00131561
0.00131549
0.00131498
0.00118153
0.0012256
0.00126611
0.00129437
0.00130867
0.00131308
0.001314
0.00131404
0.00131349
0.00131364
0.00131366
0.00131314
0.0013131
0.00131294
0.00131232
0.00131234
0.00131288
0.00131228
0.00131237
0.00131247
0.00131169
0.00131151
0.001312
0.00131182
0.00131218
0.00131288
0.00131247
0.00131286
0.00131318
0.00131334
0.00131325
0.00131369
0.00131419
0.0013144
0.00131459
0.00131525
0.00131589
0.00131587
0.00131638
0.0013169
0.0013172
0.0013175
0.00131763
0.00131779
0.00131782
0.0013178
0.00131754
0.00131776
0.00131787
0.00131779
0.00131772
0.00131694
0.00131673
0.00131687
0.00131707
0.00131691
0.00131612
0.00131606
0.00131662
0.00131664
0.00131645
0.00131593
0.00131571
0.00131602
0.00131608
0.00131593
0.00131563
0.00131578
0.0013162
0.00131604
0.00131607
0.00131607
0.00131599
0.00131554
0.0013152
0.00131544
0.00131531
0.00131562
0.00131628
0.00131575
0.00131601
0.00131631
0.00131631
0.0013163
0.00131584
0.00131561
0.00131603
0.00131636
0.00131618
0.00131552
0.00118154
0.00122576
0.00126608
0.00129362
0.00130881
0.00131545
0.00131664
0.00131651
0.0013161
0.00131612
0.00131629
0.00131549
0.00131549
0.0013155
0.00131486
0.00131459
0.00131432
0.00131365
0.00131356
0.00131373
0.00131315
0.00131311
0.00131309
0.0013131
0.00131307
0.00131304
0.00131298
0.00131306
0.00131333
0.00131367
0.00131396
0.0013143
0.0013147
0.00131513
0.00131545
0.00131579
0.0013161
0.00131621
0.00131608
0.00131621
0.00131634
0.00131602
0.00131633
0.00131715
0.00131744
0.00131742
0.00131724
0.00131722
0.00131662
0.00131679
0.00131717
0.00131651
0.00131653
0.00131721
0.0013172
0.00131703
0.00131688
0.00131655
0.00131638
0.001316
0.00131613
0.0013169
0.00131686
0.00131681
0.00131633
0.00131656
0.00131668
0.00131662
0.00131657
0.0013158
0.00131587
0.00131598
0.0013159
0.00131586
0.00131532
0.00131574
0.00131622
0.00131615
0.00131608
0.0013155
0.00131574
0.00131611
0.00131584
0.00131585
0.00131578
0.00131537
0.0013151
0.00131537
0.00131547
0.00131497
0.00118163
0.00122576
0.00126577
0.00129409
0.00130899
0.00131369
0.00131504
0.00131503
0.00131415
0.00131395
0.00131424
0.00131426
0.00131392
0.00131311
0.00131309
0.00131342
0.00131315
0.00131287
0.00131215
0.00131207
0.001312
0.00131141
0.00131144
0.00131188
0.00131177
0.00131161
0.00131192
0.00131232
0.00131201
0.00131251
0.00131326
0.00131307
0.00131367
0.00131457
0.00131516
0.00131572
0.00131591
0.00131636
0.00131681
0.0013172
0.00131738
0.00131753
0.00131765
0.00131786
0.00131786
0.00131763
0.00131671
0.00131648
0.00131687
0.00131662
0.00131693
0.00131715
0.00131699
0.00131676
0.00131651
0.00131702
0.00131699
0.00131714
0.00131816
0.0013182
0.00131797
0.00131734
0.00131725
0.00131752
0.00131744
0.00131726
0.00131731
0.00131729
0.00131711
0.00131704
0.00131674
0.00131596
0.00131593
0.00131627
0.00131621
0.00131607
0.00131563
0.00131565
0.00131566
0.00131522
0.00131532
0.00131603
0.0013162
0.00131605
0.00131567
0.00131548
0.00131559
0.00131563
0.00131548
0.00131496
0.00118155
0.00122581
0.00126603
0.0012936
0.00130855
0.00131546
0.00131713
0.00131705
0.0013169
0.00131661
0.00131624
0.00131621
0.00131606
0.00131564
0.00131508
0.00131463
0.00131419
0.00131331
0.00131315
0.00131334
0.00131278
0.00131232
0.00131205
0.00131188
0.00131225
0.00131254
0.00131264
0.00131284
0.0013128
0.00131315
0.00131342
0.00131387
0.00131428
0.00131459
0.00131511
0.00131556
0.00131608
0.00131647
0.0013168
0.00131707
0.00131714
0.00131675
0.00131648
0.0013169
0.00131716
0.00131707
0.00131667
0.00131656
0.00131679
0.00131641
0.00131667
0.00131711
0.00131689
0.00131644
0.00131646
0.00131712
0.00131755
0.00131761
0.00131685
0.00131687
0.00131728
0.00131664
0.00131674
0.00131708
0.00131664
0.00131663
0.00131645
0.00131628
0.00131623
0.00131603
0.00131544
0.00131557
0.00131614
0.00131608
0.00131603
0.00131579
0.00131531
0.0013156
0.00131605
0.00131598
0.001316
0.00131596
0.00131586
0.00131515
0.00131516
0.00131564
0.00131516
0.00131522
0.00131566
0.00131507
0.00118154
0.00122577
0.00126604
0.00129372
0.00130852
0.00131571
0.0013172
0.0013171
0.00131677
0.00131664
0.00131647
0.0013162
0.00131593
0.00131502
0.00131491
0.00131479
0.00131382
0.00131372
0.00131381
0.00131282
0.00131264
0.00131289
0.00131265
0.00131243
0.00131252
0.00131267
0.00131275
0.00131296
0.00131298
0.00131337
0.00131374
0.0013141
0.00131452
0.00131498
0.00131551
0.001316
0.00131638
0.00131648
0.00131649
0.00131662
0.00131678
0.00131667
0.0013166
0.00131675
0.0013168
0.00131689
0.00131671
0.00131704
0.00131755
0.0013175
0.00131744
0.00131712
0.00131667
0.00131673
0.00131692
0.00131711
0.00131762
0.00131711
0.00131733
0.00131756
0.00131712
0.00131725
0.00131728
0.00131705
0.00131663
0.00131628
0.00131632
0.0013163
0.00131594
0.00131599
0.00131669
0.00131671
0.00131658
0.00131654
0.00131634
0.00131592
0.00131592
0.00131613
0.00131605
0.00131604
0.00131588
0.00131537
0.00131568
0.001316
0.00131595
0.00131591
0.00131527
0.00131541
0.0013156
0.00131496
0.00118155
0.0012258
0.00126605
0.00129351
0.00130874
0.00131527
0.00131645
0.00131686
0.00131669
0.00131588
0.00131589
0.00131581
0.00131541
0.00131473
0.00131451
0.00131446
0.0013134
0.00131312
0.00131323
0.00131275
0.0013124
0.00131211
0.00131173
0.00131188
0.001312
0.0013118
0.00131198
0.00131219
0.00131262
0.00131291
0.00131333
0.00131376
0.00131368
0.00131407
0.00131485
0.00131517
0.00131603
0.00131685
0.00131733
0.00131775
0.00131781
0.00131801
0.00131805
0.00131793
0.00131773
0.00131747
0.00131727
0.00131669
0.00131644
0.0013171
0.00131732
0.00131721
0.00131711
0.00131644
0.00131646
0.00131728
0.00131795
0.00131786
0.0013172
0.00131739
0.0013176
0.00131712
0.00131728
0.00131734
0.00131712
0.00131654
0.0013164
0.00131659
0.00131655
0.00131626
0.0013163
0.00131644
0.00131588
0.00131611
0.00131626
0.00131609
0.00131561
0.0013155
0.00131595
0.00131611
0.00131599
0.00131583
0.00131566
0.00131493
0.00131489
0.00131535
0.00131532
0.00131532
0.00131525
0.00131471
0.00118151
0.00122597
0.00126572
0.00129384
0.00130891
0.00131476
0.00131551
0.0013153
0.00131485
0.00131452
0.00131464
0.00131447
0.00131404
0.00131327
0.00131317
0.00131333
0.00131253
0.00131249
0.00131239
0.00131201
0.00131155
0.0013113
0.00131182
0.00131163
0.00131194
0.00131216
0.00131226
0.0013125
0.00131261
0.00131306
0.0013135
0.00131396
0.00131447
0.001315
0.0013155
0.00131601
0.00131637
0.00131674
0.00131707
0.00131721
0.00131721
0.00131729
0.00131709
0.00131692
0.00131694
0.00131691
0.00131713
0.00131717
0.00131702
0.00131662
0.00131651
0.00131816
0.00131923
0.00131911
0.00131885
0.00131891
0.00131927
0.00131911
0.00131884
0.00131799
0.00131792
0.00131808
0.00131773
0.0013176
0.0013176
0.00131756
0.00131738
0.00131699
0.0013171
0.00131728
0.00131721
0.00131716
0.00131694
0.00131685
0.00131619
0.00131627
0.00131636
0.00131598
0.00131602
0.00131587
0.00131548
0.00131531
0.0013153
0.00131521
0.00131521
0.00131521
0.00131524
0.00131522
0.00131507
0.0013146
0.00118157
0.00122568
0.001266
0.0012941
0.00130885
0.00131344
0.00131377
0.0013134
0.00131343
0.00131381
0.00131367
0.00131328
0.00131268
0.00131213
0.00131236
0.00131267
0.00131231
0.00131198
0.00131128
0.00131145
0.00131275
0.00131263
0.00131225
0.00131216
0.00131211
0.00131206
0.00131174
0.0013118
0.00131217
0.00131273
0.00131332
0.00131375
0.00131425
0.00131476
0.0013152
0.00131525
0.00131599
0.00131675
0.00131717
0.00131757
0.00131747
0.00131763
0.00131778
0.00131778
0.00131728
0.00131739
0.0013178
0.00131789
0.00131773
0.00131751
0.00131742
0.00131718
0.00131683
0.00131644
0.00131639
0.0013162
0.00131632
0.00131637
0.00131621
0.00131604
0.00131586
0.0013158
0.00131571
0.00131552
0.0013151
0.00131534
0.00131577
0.00131537
0.0013151
0.00131549
0.00131622
0.00131604
0.00131617
0.00131632
0.00131619
0.00131601
0.00131557
0.00131582
0.00131629
0.00131598
0.00131594
0.00131591
0.00131573
0.00131532
0.00131539
0.00131545
0.00131497
0.00131518
0.0013155
0.00131483
0.00118154
0.00122574
0.00126613
0.00129344
0.00130905
0.00131517
0.00131595
0.00131579
0.00131558
0.00131535
0.00131482
0.00131484
0.00131503
0.00131459
0.00131426
0.00131381
0.00131347
0.00131298
0.00131262
0.001312
0.00131201
0.00131244
0.00131209
0.00131197
0.001312
0.00131215
0.00131226
0.0013124
0.00131239
0.00131284
0.0013132
0.00131303
0.00131382
0.00131471
0.00131541
0.00131609
0.00131625
0.00131678
0.00131717
0.00131736
0.00131755
0.00131771
0.00131778
0.00131783
0.00131772
0.00131726
0.00131692
0.00131721
0.00131756
0.0013174
0.00131717
0.00131674
0.00131727
0.00131893
0.00131876
0.00131864
0.00131838
0.00131866
0.00131896
0.00131859
0.00131854
0.00131843
0.00131796
0.00131806
0.00131814
0.00131727
0.00131717
0.00131735
0.00131673
0.00131681
0.00131724
0.0013167
0.00131689
0.00131733
0.00131718
0.00131721
0.00131725
0.00131716
0.00131715
0.00131713
0.00131697
0.00131679
0.00131574
0.00131563
0.00131587
0.00131589
0.00131584
0.00131545
0.00131529
0.00131474
0.00118154
0.00122576
0.00126606
0.00129363
0.00130867
0.00131554
0.00131665
0.00131607
0.0013162
0.00131636
0.00131567
0.00131535
0.00131504
0.00131473
0.00131404
0.00131395
0.001314
0.00131292
0.00131263
0.00131277
0.00131245
0.00131212
0.00131189
0.00131239
0.00131252
0.00131231
0.00131248
0.00131276
0.00131301
0.00131344
0.00131389
0.00131422
0.00131466
0.00131522
0.00131569
0.00131574
0.00131622
0.00131665
0.00131649
0.00131704
0.00131802
0.0013183
0.0013184
0.00131791
0.00131784
0.00131797
0.00131769
0.001318
0.00131822
0.00131809
0.00131798
0.00131725
0.00131748
0.00131892
0.00131871
0.00131902
0.00131937
0.00131913
0.00131902
0.00131878
0.00131863
0.00131815
0.00131834
0.00131847
0.00131763
0.00131764
0.00131786
0.00131715
0.00131728
0.00131768
0.0013174
0.00131748
0.00131749
0.00131726
0.0013174
0.00131742
0.00131724
0.00131719
0.00131669
0.00131678
0.0013168
0.00131669
0.00131671
0.0013166
0.00131638
0.00131557
0.00131545
0.00131575
0.00131576
0.00131527
0.00118158
0.00122558
0.00126608
0.00129427
0.00130842
0.00131388
0.00131446
0.00131421
0.00131405
0.00131356
0.00131341
0.00131316
0.00131238
0.00131204
0.00131291
0.00131303
0.00131248
0.00131291
0.00131345
0.00131304
0.00131274
0.00131237
0.00131216
0.00131183
0.0013118
0.00131173
0.00131154
0.00131201
0.00131252
0.00131287
0.00131346
0.00131405
0.00131479
0.00131547
0.00131584
0.00131634
0.00131674
0.00131678
0.00131645
0.00131702
0.00131773
0.00131766
0.00131806
0.00131827
0.00131817
0.00131821
0.00131817
0.00131767
0.0013177
0.00131792
0.00131708
0.00131694
0.0013171
0.00131707
0.00131696
0.00131638
0.00131663
0.00131696
0.00131669
0.00131668
0.00131646
0.00131602
0.00131598
0.00131692
0.00131713
0.00131693
0.00131666
0.00131619
0.00131611
0.00131599
0.00131631
0.00131645
0.0013163
0.00131596
0.00131602
0.0013162
0.00131552
0.00131556
0.00131606
0.00131596
0.00131596
0.00131579
0.00131544
0.00131515
0.00131564
0.00131599
0.0013159
0.00131588
0.00131567
0.00131494
0.00118151
0.00122587
0.00126586
0.00129377
0.00130907
0.00131456
0.00131583
0.00131564
0.00131495
0.00131473
0.0013149
0.00131459
0.00131428
0.00131394
0.00131365
0.00131318
0.00131282
0.00131224
0.00131199
0.00131183
0.00131141
0.00131084
0.0013109
0.00131143
0.00131076
0.00131094
0.00131174
0.00131218
0.00131252
0.00131294
0.00131338
0.00131303
0.00131366
0.0013145
0.0013153
0.00131603
0.00131648
0.00131707
0.00131745
0.00131768
0.00131749
0.00131755
0.00131759
0.00131737
0.00131696
0.0013171
0.00131736
0.00131727
0.00131721
0.00131659
0.00131676
0.00131747
0.00131739
0.00131711
0.0013163
0.00131628
0.00131653
0.00131585
0.0013159
0.00131644
0.00131612
0.00131615
0.00131626
0.00131608
0.00131602
0.00131596
0.00131591
0.00131577
0.00131507
0.00131523
0.00131585
0.00131576
0.00131549
0.00131559
0.00131574
0.00131505
0.00131525
0.00131564
0.00131558
0.00131556
0.00131515
0.00131556
0.00131601
0.00131588
0.00131586
0.00131585
0.00131582
0.00131552
0.00131528
0.00131454
0.00118154
0.00122575
0.00126609
0.00129351
0.00130895
0.00131519
0.00131602
0.00131585
0.0013155
0.0013156
0.00131578
0.00131494
0.00131491
0.00131498
0.00131458
0.00131416
0.00131381
0.00131348
0.00131277
0.00131228
0.0013119
0.00131153
0.00131178
0.0013121
0.00131195
0.00131202
0.00131219
0.00131249
0.00131259
0.00131307
0.00131345
0.00131387
0.00131441
0.00131498
0.00131542
0.00131537
0.00131587
0.00131642
0.00131685
0.00131733
0.00131772
0.00131794
0.00131806
0.0013181
0.00131803
0.00131782
0.00131717
0.00131682
0.00131723
0.00131748
0.0013173
0.00131688
0.00131669
0.00131689
0.00131697
0.00131674
0.00131643
0.00131599
0.00131616
0.00131634
0.00131593
0.0013157
0.00131612
0.00131661
0.00131631
0.0013163
0.00131626
0.00131613
0.00131543
0.00131539
0.00131555
0.00131498
0.001315
0.00131598
0.00131616
0.00131608
0.00131606
0.00131594
0.00131595
0.00131581
0.00131556
0.00131492
0.00131472
0.00131544
0.0013157
0.00131554
0.00131502
0.00131514
0.0013156
0.00131492
0.00118154
0.00122577
0.00126604
0.00129371
0.00130849
0.00131567
0.00131703
0.00131697
0.00131679
0.00131595
0.00131593
0.00131588
0.00131505
0.00131499
0.00131484
0.00131385
0.00131371
0.00131375
0.00131269
0.00131239
0.00131256
0.00131211
0.00131175
0.00131195
0.00131232
0.00131217
0.00131234
0.00131262
0.00131306
0.00131357
0.00131421
0.00131482
0.00131545
0.00131601
0.00131612
0.00131599
0.00131636
0.0013168
0.00131726
0.00131771
0.00131799
0.0013182
0.00131826
0.0013183
0.00131823
0.00131775
0.00131783
0.0013179
0.00131781
0.00131772
0.00131698
0.0013168
0.00131828
0.00131955
0.00131903
0.00131923
0.00131944
0.00131908
0.00131896
0.00131883
0.00131881
0.00131862
0.00131861
0.00131838
0.00131788
0.00131757
0.00131741
0.00131692
0.00131709
0.00131751
0.00131711
0.00131714
0.00131693
0.00131681
0.00131675
0.00131625
0.00131636
0.00131659
0.00131651
0.0013165
0.00131639
0.00131629
0.00131563
0.00131577
0.00131619
0.00131623
0.00131609
0.00131591
0.00131583
0.00131489
0.00118154
0.00122576
0.00126605
0.00129363
0.00130866
0.00131554
0.00131666
0.00131608
0.00131621
0.00131637
0.00131567
0.00131551
0.00131535
0.00131489
0.00131411
0.00131397
0.00131401
0.00131293
0.00131263
0.00131276
0.00131216
0.00131225
0.0013124
0.00131185
0.00131207
0.00131226
0.00131239
0.00131268
0.0013129
0.00131342
0.00131385
0.00131423
0.0013143
0.00131477
0.00131535
0.00131573
0.00131628
0.00131669
0.00131657
0.00131704
0.00131799
0.00131831
0.00131841
0.00131792
0.00131784
0.00131797
0.00131779
0.00131805
0.00131816
0.00131802
0.00131791
0.00131729
0.00131765
0.0013189
0.00131878
0.00131852
0.00131865
0.00131877
0.00131863
0.00131852
0.00131767
0.00131772
0.00131801
0.00131728
0.0013174
0.00131769
0.00131726
0.00131724
0.00131705
0.0013165
0.00131641
0.00131697
0.00131714
0.00131703
0.00131704
0.00131688
0.00131668
0.00131655
0.00131629
0.0013155
0.00131551
0.00131595
0.00131536
0.00131555
0.00131596
0.00131581
0.00131584
0.00131585
0.00131579
0.00131493
0.00118154
0.00122574
0.00126613
0.00129344
0.00130906
0.0013151
0.0013158
0.00131605
0.00131608
0.00131548
0.00131533
0.00131507
0.00131435
0.00131421
0.00131437
0.00131399
0.00131359
0.00131304
0.00131264
0.00131211
0.00131216
0.00131222
0.00131187
0.00131124
0.00131115
0.00131147
0.00131106
0.00131134
0.00131245
0.00131321
0.00131369
0.00131413
0.00131485
0.00131549
0.0013161
0.00131671
0.00131722
0.00131754
0.00131749
0.00131714
0.00131726
0.00131747
0.00131749
0.00131754
0.00131761
0.00131747
0.00131697
0.0013173
0.00131771
0.00131763
0.00131754
0.00131692
0.00131743
0.00131882
0.00131871
0.00131863
0.00131835
0.00131853
0.00131877
0.00131863
0.00131852
0.00131783
0.00131783
0.00131794
0.00131781
0.00131773
0.00131743
0.00131726
0.00131673
0.0013164
0.00131684
0.00131706
0.00131698
0.00131693
0.00131626
0.00131618
0.00131644
0.00131614
0.00131643
0.00131662
0.00131656
0.00131653
0.00131621
0.00131617
0.00131608
0.00131547
0.00131548
0.00131585
0.00131577
0.00131524
0.00118157
0.00122565
0.00126605
0.00129405
0.00130877
0.00131371
0.00131426
0.00131404
0.0013135
0.00131358
0.00131407
0.00131376
0.00131346
0.00131283
0.00131247
0.00131199
0.00131206
0.00131216
0.00131128
0.00131109
0.00131169
0.00131203
0.00131192
0.00131117
0.00131117
0.0013117
0.00131185
0.00131185
0.00131238
0.00131303
0.00131354
0.00131418
0.00131466
0.00131537
0.00131594
0.0013164
0.00131623
0.00131663
0.00131706
0.00131699
0.0013176
0.00131811
0.00131798
0.00131813
0.00131821
0.0013182
0.00131815
0.00131821
0.00131823
0.0013179
0.00131791
0.00131793
0.00131779
0.00131766
0.00131704
0.00131689
0.00131659
0.00131603
0.00131562
0.00131613
0.00131657
0.00131647
0.00131637
0.00131576
0.00131597
0.00131664
0.00131654
0.00131643
0.00131631
0.00131588
0.00131586
0.00131634