/*--------------------------------*- C++ -*----------------------------------*\
  =========                 |
  \\      /  F ield         | OpenFOAM: The Open Source CFD Toolbox
   \\    /   O peration     | Website:  https://openfoam.org
    \\  /    A nd           | Version:  11
     \\/     M anipulation  |
\*---------------------------------------------------------------------------*/
FoamFile
{
    format      ascii;
    class       volScalarField;
    location    "0.06";
    object      omega;
}
// * * * * * * * * * * * * * * * * * * * * * * * * * * * * * * * * * * * * * //

dimensions      [0 0 -1 0 0 0 0];

internalField   nonuniform List<scalar> 
287084
(
54.996
56.0167
56.9034
57.482
57.7631
57.8396
57.8434
57.8404
57.8313
57.8381
57.8513
57.8457
57.8493
57.8513
57.8489
57.8459
57.8372
57.836
57.8339
57.8425
57.8588
57.8494
57.8542
57.8574
57.8558
57.8555
57.845
57.8503
57.8597
57.8589
57.8591
57.8574
57.8556
57.8426
57.8341
57.832
57.8309
57.8329
57.8332
57.8327
57.8215
57.8223
57.8236
57.8184
57.8179
57.8151
57.8057
57.8088
57.8223
57.8111
57.8157
57.8279
57.8261
57.8235
57.8147
57.8072
57.8116
57.8149
57.8085
57.815
57.8181
57.81
57.8056
57.8174
57.8311
57.8307
57.8303
57.8172
57.8209
57.8294
57.8275
57.8251
57.8161
57.8185
57.819
57.8255
57.829
57.8274
57.8232
57.8236
57.8322
57.8276
57.8328
57.8351
57.8329
57.8308
57.814
57.816
57.8221
57.8097
55
56.0101
56.8892
57.4745
57.7614
57.8434
57.8471
57.8385
57.8443
57.8592
57.8583
57.8554
57.8476
57.8463
57.8453
57.8358
57.8384
57.8461
57.8447
57.8398
57.8402
57.8589
57.869
57.8684
57.8684
57.8647
57.8565
57.8539
57.8458
57.8499
57.8585
57.8526
57.8533
57.8537
57.8499
57.8474
57.8452
57.8312
57.8301
57.8468
57.8489
57.845
57.8334
57.8299
57.8398
57.8458
57.8442
57.8452
57.8426
57.8403
57.8376
57.8211
57.823
57.8267
57.8212
57.8212
57.8209
57.8116
57.8117
57.8234
57.8181
57.826
57.8323
57.8307
57.8308
57.8221
57.8287
57.8375
57.8347
57.8239
57.8257
57.8416
57.8427
57.8434
57.8408
57.8372
57.8227
57.8259
57.8369
57.8303
57.8304
57.8301
57.8206
57.8204
57.8331
57.8353
57.8334
57.8345
57.8298
57.8117
55.0003
56.0091
56.8889
57.4724
57.7549
57.8524
57.8635
57.8607
57.8506
57.8523
57.8615
57.856
57.8578
57.855
57.848
57.8461
57.8568
57.8642
57.8611
57.854
57.848
57.8514
57.8524
57.8636
57.8724
57.871
57.8707
57.8638
57.8625
57.8607
57.8583
57.8551
57.8507
57.8473
57.8449
57.8386
57.8373
57.8415
57.8402
57.8463
57.8478
57.8398
57.8428
57.8436
57.8414
57.8411
57.8337
57.8395
57.8448
57.8426
57.8403
57.8337
57.8289
57.8178
57.8145
57.8243
57.8265
57.8176
57.8198
57.8291
57.8276
57.8304
57.8277
57.8166
57.8156
57.8314
57.8398
57.8389
57.8389
57.8335
57.8316
57.8292
57.8211
57.8169
57.8218
57.8241
57.8204
57.8207
57.8217
57.8224
57.8144
57.8201
57.8357
57.8281
57.8232
57.8214
57.8189
57.8168
57.8166
57.8095
54.9984
56.012
56.8877
57.4657
57.7563
57.8579
57.8703
57.8676
57.857
57.8578
57.868
57.8686
57.868
57.8522
57.8504
57.8644
57.8692
57.8677
57.869
57.866
57.8628
57.8572
57.8553
57.8505
57.8523
57.8534
57.8515
57.8466
57.8456
57.8628
57.869
57.867
57.8645
57.8576
57.8574
57.8579
57.8545
57.85
57.8365
57.8412
57.8457
57.8427
57.8335
57.8369
57.8454
57.8431
57.8404
57.8375
57.8368
57.8252
57.8282
57.8302
57.8289
57.8286
57.8213
57.82
57.8128
57.8109
57.8284
57.8373
57.8349
57.831
57.8213
57.8219
57.8201
57.8298
57.8393
57.8264
57.8326
57.8417
57.832
57.8262
57.8283
57.8303
57.8234
57.8277
57.8353
57.8416
57.8456
57.8442
57.8439
57.8284
57.8306
57.838
57.8385
57.8384
57.8249
57.8274
57.8293
57.8172
54.9983
56.0124
56.8858
57.4655
57.7605
57.8425
57.8402
57.8468
57.8614
57.8496
57.847
57.8581
57.8615
57.8583
57.8472
57.8503
57.8569
57.8479
57.847
57.8469
57.8459
57.8432
57.8488
57.851
57.856
57.857
57.8551
57.856
57.8544
57.8524
57.8503
57.8469
57.8448
57.8429
57.8429
57.8388
57.8426
57.8606
57.8642
57.8615
57.8576
57.8461
57.8422
57.8415
57.8418
57.841
57.8344
57.8308
57.8248
57.8191
57.8203
57.8221
57.8227
57.8211
57.8193
57.8158
57.8154
57.8146
57.8209
57.8228
57.8215
57.8221
57.8193
57.8111
57.8103
57.8173
57.8159
57.8207
57.8218
57.8203
57.8168
57.8267
57.8417
57.8417
57.8415
57.8337
57.8324
57.8244
57.824
57.824
57.823
57.825
57.8222
57.8134
57.8187
57.8339
57.8251
57.8221
57.824
57.8162
54.9977
56.0112
56.889
57.4706
57.747
57.8138
57.8144
57.8279
57.8544
57.8552
57.8528
57.8498
57.8463
57.8323
57.8324
57.8471
57.8449
57.8472
57.8479
57.8492
57.8495
57.8473
57.8422
57.8484
57.8538
57.842
57.847
57.8594
57.8602
57.8603
57.8506
57.8496
57.8487
57.85
57.8438
57.8479
57.8507
57.8477
57.8498
57.8472
57.8443
57.8387
57.8324
57.8269
57.8249
57.8208
57.8234
57.8274
57.8308
57.8309
57.8282
57.8209
57.824
57.8378
57.8369
57.837
57.8354
57.8268
57.8283
57.8329
57.8312
57.8302
57.8217
57.8196
57.8161
57.8247
57.8394
57.8381
57.8377
57.8312
57.8258
57.8255
57.8204
57.827
57.84
57.8347
57.834
57.8324
57.83
57.8251
57.8224
57.8156
57.8213
57.8365
57.8336
57.8334
57.8281
57.8282
57.828
57.8188
54.9956
56.0128
56.8891
57.47
57.7493
57.8213
57.8415
57.8446
57.8446
57.8444
57.8297
57.8326
57.8683
57.8772
57.869
57.876
57.8867
57.8864
57.8864
57.8784
57.8799
57.8771
57.8665
57.8677
57.879
57.8794
57.8782
57.8638
57.8663
57.8697
57.8527
57.8526
57.8612
57.8599
57.8614
57.8589
57.855
57.8418
57.8474
57.8577
57.8567
57.856
57.8421
57.8457
57.8496
57.8463
57.8354
57.8372
57.8415
57.84
57.8398
57.8294
57.8313
57.8319
57.8291
57.8263
57.8306
57.8378
57.8329
57.8329
57.8325
57.8286
57.8169
57.8223
57.833
57.8248
57.8239
57.8237
57.8201
57.8142
57.821
57.8258
57.8172
57.8153
57.8274
57.8373
57.8363
57.837
57.8327
57.8178
57.82
57.8337
57.8279
57.823
57.8212
57.8183
57.828
57.838
57.835
57.8237
54.9973
56.013
56.8897
57.4557
57.7545
57.8735
57.8907
57.8989
57.9018
57.9007
57.8981
57.8991
57.9
57.8991
57.8991
57.8965
57.8893
57.8904
57.8939
57.8848
57.8875
57.8903
57.8889
57.889
57.8836
57.8786
57.8806
57.8838
57.8818
57.8793
57.8758
57.8729
57.868
57.8524
57.8538
57.8579
57.8465
57.8437
57.8593
57.866
57.8632
57.8584
57.8492
57.8539
57.8597
57.856
57.8566
57.8547
57.8406
57.842
57.8525
57.8422
57.8487
57.855
57.8488
57.8504
57.8473
57.8478
57.8481
57.8457
57.8428
57.8407
57.8278
57.828
57.8283
57.8154
57.8143
57.8274
57.8336
57.8323
57.8331
57.833
57.8305
57.828
57.8218
57.8307
57.8407
57.8402
57.84
57.833
57.8314
57.8209
57.8261
57.8404
57.84
57.839
57.8246
57.8282
57.8328
57.8176
54.9966
56.012
56.8898
57.4673
57.748
57.8397
57.8471
57.8456
57.8452
57.8328
57.8343
57.8613
57.8698
57.8766
57.8763
57.8751
57.8721
57.8736
57.89
57.8913
57.8917
57.8912
57.8911
57.8812
57.8851
57.8877
57.8869
57.8869
57.8839
57.8814
57.8702
57.8635
57.8603
57.8511
57.8543
57.8582
57.8489
57.8444
57.8451
57.8429
57.8523
57.86
57.8458
57.8506
57.8601
57.8567
57.8565
57.8549
57.8547
57.851
57.8441
57.8263
57.822
57.8203
57.8167
57.8141
57.8239
57.8331
57.8317
57.8307
57.8186
57.8252
57.8325
57.8316
57.8313
57.8217
57.8212
57.8154
57.8213
57.8411
57.8414
57.8401
57.8268
57.823
57.8271
57.8217
57.8293
57.8479
57.8464
57.8439
57.8389
57.8363
57.8336
57.8249
57.831
57.8373
57.8312
57.8329
57.8296
57.8164
54.9967
56.0075
56.8982
57.4631
57.7457
57.8327
57.8378
57.8366
57.8332
57.8438
57.8578
57.857
57.8562
57.8439
57.8521
57.8644
57.86
57.8603
57.8593
57.8524
57.8463
57.8549
57.8596
57.8555
57.8539
57.8542
57.8487
57.8519
57.8663
57.8662
57.8636
57.8622
57.8616
57.8505
57.8553
57.8593
57.8571
57.8571
57.854
57.8506
57.8473
57.8443
57.84
57.8326
57.8172
57.8185
57.8255
57.8253
57.8251
57.8123
57.8142
57.8229
57.8214
57.8189
57.8067
57.8114
57.8159
57.804
57.806
57.828
57.8308
57.8271
57.814
57.8137
57.8207
57.8093
57.8116
57.8239
57.8223
57.8234
57.8213
57.8191
57.8108
57.8167
57.8232
57.8111
57.8131
57.8314
57.8328
57.83
57.823
57.818
57.8296
57.8401
57.8403
57.8402
57.8256
57.8243
57.8276
57.8167
54.9977
56.0101
56.8902
57.4655
57.754
57.8393
57.8437
57.8408
57.8377
57.8446
57.8499
57.8412
57.8407
57.8535
57.8568
57.8491
57.8578
57.8736
57.8664
57.8733
57.8769
57.8738
57.8734
57.8642
57.8688
57.8713
57.858
57.8628
57.8652
57.8632
57.8576
57.8597
57.8706
57.8688
57.8661
57.8607
57.8609
57.8615
57.8616
57.8562
57.8514
57.8418
57.8232
57.8241
57.827
57.8163
57.8234
57.8375
57.8347
57.8347
57.833
57.8355
57.8331
57.8298
57.8204
57.8222
57.8235
57.8114
57.8106
57.8248
57.8299
57.8263
57.8131
57.8144
57.8263
57.8269
57.8259
57.8113
57.8135
57.8243
57.8239
57.8235
57.8211
57.8269
57.8272
57.8248
57.8235
57.8191
57.8265
57.8404
57.8259
57.8276
57.8378
57.8385
57.8385
57.8271
57.8301
57.8326
57.8291
57.818
54.9961
56.0131
56.8878
57.467
57.7515
57.8428
57.8569
57.8564
57.8564
57.8514
57.8478
57.859
57.8689
57.8766
57.8869
57.8798
57.8818
57.8791
57.8697
57.8751
57.8861
57.8708
57.8705
57.8801
57.8771
57.883
57.8866
57.8851
57.8848
57.8826
57.8825
57.879
57.8729
57.8678
57.8645
57.8606
57.8565
57.8482
57.8372
57.83
57.8242
57.823
57.8238
57.8195
57.8255
57.8284
57.8261
57.8198
57.8227
57.8353
57.8272
57.8328
57.8399
57.8397
57.8393
57.8273
57.8181
57.8205
57.8222
57.8117
57.8122
57.8222
57.8163
57.8236
57.8362
57.8353
57.8342
57.8189
57.8213
57.838
57.8383
57.8354
57.8211
57.8235
57.8304
57.8308
57.8308
57.8152
57.8176
57.8313
57.832
57.8319
57.8236
57.8299
57.8364
57.8333
57.8267
57.82
57.8217
57.8141
54.9974
56.0127
56.8904
57.4533
57.7581
57.8691
57.8831
57.8811
57.8735
57.881
57.8901
57.8757
57.88
57.8902
57.8774
57.8835
57.8925
57.8914
57.8913
57.8793
57.8862
57.895
57.8794
57.8816
57.8937
57.8941
57.8917
57.8908
57.8899
57.8854
57.8713
57.8668
57.8648
57.865
57.8604
57.8625
57.8669
57.8653
57.8644
57.8482
57.8502
57.8534
57.8506
57.8474
57.838
57.8439
57.8508
57.8498
57.8499
57.8479
57.8462
57.8438
57.8393
57.8248
57.8255
57.8324
57.8337
57.8338
57.819
57.8245
57.8367
57.8368
57.8366
57.8283
57.8264
57.8182
57.816
57.8261
57.8311
57.8303
57.8314
57.8308
57.8281
57.8264
57.8217
57.8306
57.8403
57.8388
57.8379
57.8263
57.8314
57.8365
57.835
57.8347
57.8226
57.8218
57.8291
57.8301
57.8294
57.8183
54.9969
56.0093
56.8916
57.4721
57.7452
57.8189
57.8327
57.8373
57.8292
57.836
57.8396
57.8341
57.837
57.8379
57.831
57.8376
57.8551
57.8466
57.8539
57.8601
57.8478
57.8492
57.8646
57.8613
57.8699
57.8838
57.8731
57.8777
57.8792
57.8758
57.8659
57.8667
57.8676
57.8604
57.8547
57.8596
57.8632
57.8541
57.8557
57.8589
57.8581
57.8577
57.8555
57.853
57.8504
57.8495
57.8442
57.8477
57.8491
57.847
57.845
57.8263
57.8251
57.8304
57.8325
57.8327
57.8174
57.819
57.8315
57.8323
57.8313
57.8173
57.8154
57.8249
57.8263
57.8241
57.8186
57.8241
57.8337
57.8329
57.8349
57.8328
57.8288
57.8189
57.8153
57.8252
57.8218
57.8287
57.843
57.8317
57.838
57.8443
57.8442
57.8441
57.8326
57.8292
57.8408
57.8469
57.8432
57.829
54.9974
56.0129
56.8896
57.4557
57.7531
57.8758
57.8948
57.8934
57.8871
57.8916
57.8992
57.8867
57.8919
57.8967
57.8895
57.8904
57.8898
57.8799
57.8837
57.8925
57.8851
57.8874
57.8882
57.8906
57.8924
57.8909
57.8879
57.8882
57.8862
57.8835
57.8809
57.8806
57.8789
57.8749
57.8698
57.8658
57.8615
57.853
57.8407
57.8359
57.8323
57.8216
57.8254
57.8375
57.8382
57.8383
57.8321
57.8306
57.8185
57.8231
57.8316
57.8179
57.8209
57.8354
57.8361
57.8361
57.8311
57.8227
57.8203
57.8165
57.8234
57.842
57.8403
57.8402
57.8326
57.8384
57.8415
57.8409
57.8408
57.8253
57.8278
57.8307
57.8294
57.8292
57.8193
57.8303
57.8402
57.838
57.8346
57.8248
57.8321
57.8398
57.8355
57.837
57.8338
57.8214
57.818
57.8257
57.8273
57.8182
54.9997
56.0123
56.8833
57.467
57.7539
57.834
57.8572
57.8599
57.8441
57.8453
57.8549
57.8568
57.8571
57.8462
57.8522
57.8651
57.8642
57.8636
57.8555
57.8591
57.8621
57.855
57.8595
57.8714
57.8677
57.8638
57.8697
57.8737
57.8617
57.8648
57.8718
57.8568
57.8591
57.8672
57.8659
57.8655
57.8599
57.8602
57.8577
57.8546
57.8508
57.8507
57.8484
57.8465
57.8434
57.8365
57.8133
57.8116
57.8243
57.8173
57.8242
57.8291
57.8269
57.8203
57.8187
57.836
57.8354
57.8406
57.8633
57.8647
57.8611
57.8486
57.8497
57.855
57.8551
57.8546
57.8549
57.8553
57.8521
57.8513
57.844
57.8288
57.8315
57.8402
57.8374
57.8317
57.8256
57.8274
57.8279
57.8202
57.8236
57.8379
57.8419
57.8394
57.8281
57.8261
57.8295
57.8304
57.828
57.817
54.9978
56.0139
56.8885
57.4551
57.7477
57.8776
57.9071
57.905
57.905
57.9053
57.9015
57.9047
57.9063
57.9026
57.8935
57.8898
57.8897
57.8779
57.8816
57.8919
57.882
57.8776
57.8782
57.877
57.8855
57.8899
57.8892
57.8889
57.8804
57.8792
57.8744
57.8739
57.8704
57.8623
57.8612
57.8582
57.857
57.8542
57.8509
57.8479
57.8416
57.8258
57.8182
57.8252
57.8273
57.8235
57.8103
57.81
57.8188
57.8094
57.816
57.8261
57.821
57.8132
57.8179
57.8329
57.8417
57.847
57.8325
57.8358
57.8468
57.8331
57.8373
57.8458
57.8357
57.8347
57.8346
57.8321
57.8295
57.8264
57.8169
57.8226
57.8359
57.8352
57.8318
57.8251
57.8182
57.8274
57.8371
57.8352
57.835
57.8342
57.8337
57.8191
57.8211
57.833
57.8209
57.8231
57.8337
57.8202
54.9974
56.0131
56.889
57.4577
57.7474
57.8834
57.9059
57.9064
57.9051
57.9054
57.9065
57.9048
57.9046
57.8915
57.8957
57.8991
57.885
57.8904
57.8983
57.8829
57.8861
57.897
57.8932
57.8911
57.8949
57.8972
57.8958
57.8954
57.8878
57.8854
57.8822
57.8777
57.8738
57.8703
57.8679
57.8651
57.8603
57.8501
57.84
57.8341
57.8299
57.8207
57.8174
57.8198
57.8181
57.8184
57.8127
57.8194
57.8301
57.829
57.8285
57.8217
57.8145
57.819
57.8223
57.8293
57.845
57.8359
57.8427
57.8485
57.8419
57.8458
57.8475
57.8437
57.8327
57.8291
57.8321
57.8326
57.8276
57.8305
57.8454
57.8461
57.8437
57.8434
57.8388
57.8311
57.8331
57.8384
57.8363
57.8335
57.8298
57.8221
57.8313
57.8379
57.8364
57.8356
57.8228
57.8262
57.8303
57.8176
54.9978
56.0139
56.8889
57.4535
57.7523
57.8724
57.8898
57.8995
57.9016
57.8892
57.8944
57.8974
57.8946
57.886
57.8887
57.8944
57.8781
57.8804
57.8905
57.8835
57.8793
57.8781
57.8768
57.8844
57.8874
57.8839
57.8855
57.882
57.8809
57.8804
57.8808
57.875
57.8553
57.8526
57.8587
57.8503
57.8551
57.8604
57.8596
57.8591
57.8515
57.8473
57.8429
57.8361
57.8289
57.8216
57.8171
57.8038
57.8017
57.8202
57.8243
57.8229
57.8224
57.8109
57.815
57.835
57.8481
57.8498
57.8383
57.8449
57.8506
57.8428
57.8475
57.8498
57.8463
57.8348
57.8353
57.8415
57.839
57.8336
57.8361
57.84
57.8294
57.8352
57.8387
57.8355
57.8255
57.8259
57.8354
57.8384
57.8357
57.8298
57.8283
57.8139
57.8153
57.8268
57.8258
57.8259
57.8222
57.8109
54.9968
56.0174
56.8818
57.4618
57.7548
57.8596
57.8706
57.8681
57.859
57.8582
57.8676
57.8686
57.8662
57.8552
57.861
57.8714
57.8619
57.8683
57.8725
57.8712
57.8676
57.8693
57.8869
57.8841
57.8908
57.8939
57.892
57.8917
57.8854
57.8829
57.8802
57.8766
57.8732
57.8696
57.8655
57.8618
57.856
57.8517
57.8476
57.8406
57.8327
57.828
57.8181
57.8138
57.8147
57.8124
57.8148
57.8152
57.8128
57.8052
57.8067
57.8487
57.8697
57.869
57.8653
57.8688
57.8756
57.8765
57.8737
57.8559
57.8577
57.8636
57.8551
57.8548
57.8566
57.8571
57.8545
57.8473
57.8517
57.8565
57.8555
57.8554
57.8508
57.8496
57.8371
57.8395
57.8419
57.833
57.8326
57.832
57.8228
57.8209
57.8242
57.8222
57.8228
57.8226
57.8208
57.8206
57.8176
57.8085
54.9979
56.0109
56.8889
57.4672
57.7511
57.8278
57.8318
57.8278
57.832
57.842
57.8426
57.8427
57.8348
57.8303
57.8456
57.8586
57.8574
57.8558
57.8505
57.8648
57.8968
57.8997
57.8981
57.8995
57.8966
57.8906
57.8799
57.8789
57.8818
57.8809
57.8805
57.8748
57.8682
57.8637
57.8569
57.8462
57.8498
57.8533
57.8507
57.8484
57.837
57.8331
57.8313
57.8297
57.8176
57.8197
57.8259
57.826
57.826
57.8222
57.8222
57.8185
57.81
57.8065
57.8111
57.8089
57.8123
57.8152
57.8133
57.8121
57.8125
57.811
57.8078
57.8066
57.8013
57.8091
57.8191
57.8097
57.806
57.8187
57.8345
57.8329
57.835
57.8358
57.8364
57.8332
57.8243
57.832
57.8422
57.8369
57.8374
57.8363
57.829
57.8217
57.8244
57.8258
57.8167
57.8212
57.828
57.8146
54.9974
56.0126
56.8907
57.4526
57.7595
57.8696
57.881
57.8802
57.8768
57.8747
57.8713
57.8798
57.8897
57.8889
57.8894
57.8842
57.8835
57.8804
57.8784
57.8749
57.8846
57.8989
57.8973
57.8982
57.8975
57.8962
57.8947
57.894
57.8841
57.8827
57.8775
57.86
57.8626
57.8659
57.8651
57.8642
57.8516
57.849
57.8455
57.8396
57.8358
57.8327
57.8291
57.8265
57.8218
57.8096
57.8047
57.8135
57.8214
57.8186
57.8122
57.8073
57.8264
57.8636
57.8622
57.8622
57.8586
57.8667
57.8744
57.8698
57.8719
57.8692
57.8603
57.8649
57.8679
57.8503
57.8512
57.8571
57.8433
57.8469
57.8578
57.8464
57.8516
57.8616
57.8608
57.8627
57.8615
57.8598
57.8604
57.8606
57.8568
57.8516
57.8303
57.831
57.8374
57.8353
57.8317
57.8228
57.8204
57.8116
54.9974
56.013
56.8894
57.4564
57.7513
57.8795
57.8973
57.8869
57.8938
57.9013
57.8925
57.8927
57.8926
57.893
57.8844
57.89
57.8984
57.8828
57.8856
57.8968
57.8967
57.8952
57.8953
57.909
57.9111
57.9069
57.9072
57.9041
57.8975
57.8954
57.8916
57.8835
57.8773
57.8731
57.8671
57.8521
57.8484
57.8462
57.8327
57.8362
57.8472
57.8474
57.8464
57.8275
57.8256
57.8305
57.8228
57.8295
57.8344
57.8326
57.8315
57.8189
57.8292
57.8642
57.8602
57.8693
57.8784
57.8742
57.8738
57.8704
57.87
57.8632
57.8694
57.8733
57.8566
57.8591
57.8654
57.8508
57.8555
57.8651
57.8613
57.8627
57.8634
57.8613
57.8636
57.8644
57.8607
57.8602
57.8513
57.8531
57.8536
57.8514
57.8495
57.8471
57.8444
57.8282
57.8282
57.8364
57.835
57.8241
54.9981
56.0088
56.8912
57.4702
57.7424
57.8399
57.8479
57.8466
57.8477
57.8409
57.8414
57.842
57.8327
57.8339
57.862
57.8694
57.8672
57.8865
57.9041
57.904
57.9047
57.8996
57.8988
57.8945
57.8931
57.8931
57.8869
57.8897
57.8911
57.8865
57.8863
57.8864
57.8861
57.8811
57.8699
57.865
57.8585
57.8449
57.8293
57.8338
57.8407
57.8336
57.8363
57.8368
57.8342
57.8344
57.8313
57.8201
57.8227
57.829
57.8121
57.8127
57.8193
57.8187
57.8186
57.8098
57.8181
57.8269
57.8223
57.8219
57.8219
57.8162
57.8184
57.8411
57.8452
57.8416
57.834
57.8281
57.831
57.8293
57.8365
57.8395
57.8372
57.8306
57.8331
57.8375
57.8236
57.8266
57.8387
57.8343
57.8319
57.8284
57.8206
57.8179
57.8314
57.838
57.8356
57.8353
57.8312
57.8158
54.9967
56.0152
56.885
57.4606
57.7587
57.8562
57.8795
57.8775
57.8656
57.8671
57.8775
57.8765
57.8765
57.8736
57.8728
57.8704
57.8696
57.8681
57.8717
57.8756
57.8734
57.8669
57.8744
57.8887
57.875
57.8783
57.8902
57.8906
57.8916
57.8883
57.8817
57.8602
57.8605
57.8626
57.8613
57.8608
57.8552
57.8542
57.85
57.8431
57.8302
57.8255
57.8211
57.812
57.804
57.8073
57.8124
57.8105
57.8099
57.7993
57.806
57.8208
57.8226
57.82
57.804
57.8072
57.8154
57.8026
57.8072
57.8216
57.8167
57.8184
57.8225
57.8222
57.8229
57.8225
57.8201
57.8174
57.8052
57.8118
57.8262
57.8248
57.8197
57.8227
57.8267
57.8125
57.8182
57.8269
57.8254
57.8239
57.8176
57.8286
57.8376
57.8369
57.8371
57.8344
57.8306
57.8239
57.8196
57.8066
54.9974
56.0129
56.8901
57.4541
57.7573
57.8707
57.883
57.8821
57.8781
57.886
57.8946
57.8828
57.8893
57.8973
57.8954
57.8942
57.895
57.8959
57.8872
57.8851
57.8867
57.8843
57.8945
57.9031
57.9029
57.903
57.9005
57.8996
57.8916
57.8891
57.8829
57.8762
57.8718
57.8674
57.8597
57.8426
57.8425
57.8439
57.8413
57.842
57.8397
57.8348
57.832
57.8291
57.8249
57.8193
57.804
57.8002
57.8127
57.8185
57.8163
57.8093
57.8095
57.8153
57.8159
57.8159
57.8109
57.8042
57.8121
57.8175
57.8093
57.8072
57.8211
57.8323
57.8287
57.8311
57.8286
57.8249
57.8129
57.8145
57.8194
57.8078
57.8107
57.833
57.8359
57.8345
57.8343
57.8323
57.8307
57.8277
57.8234
57.8091
57.808
57.8274
57.8311
57.8279
57.8164
57.8206
57.8308
57.8164
54.9973
56.0131
56.889
57.4579
57.7475
57.8836
57.9061
57.9057
57.9054
57.8929
57.8981
57.9026
57.892
57.8978
57.9014
57.8881
57.8936
57.9021
57.8866
57.8891
57.9005
57.8933
57.8905
57.9002
57.9085
57.9053
57.9056
57.9052
57.9058
57.9024
57.8998
57.8992
57.8971
57.8918
57.8752
57.856
57.8503
57.85
57.8511
57.851
57.8456
57.8408
57.8368
57.834
57.8308
57.8213
57.8233
57.8252
57.8239
57.8236
57.81
57.81
57.8495
57.8755
57.866
57.8728
57.8791
57.8752
57.8758
57.8752
57.8772
57.8721
57.871
57.8695
57.8593
57.8559
57.8567
57.8463
57.8514
57.8612
57.852
57.8514
57.8507
57.8517
57.8507
57.8394
57.8422
57.8477
57.8469
57.8443
57.8443
57.8453
57.8295
57.8332
57.8395
57.8398
57.8398
57.8355
57.8339
57.8148
54.9973
56.013
56.8894
57.4564
57.7513
57.8797
57.8975
57.8871
57.894
57.9015
57.8925
57.8942
57.8971
57.8947
57.8845
57.8903
57.8986
57.8829
57.8856
57.8967
57.8897
57.8974
57.9044
57.8964
57.9017
57.9038
57.9026
57.9023
57.8974
57.8953
57.8908
57.8832
57.8685
57.8631
57.8594
57.852
57.8508
57.847
57.8339
57.8365
57.8472
57.8475
57.8465
57.8277
57.8257
57.8304
57.8252
57.8303
57.8331
57.8309
57.8298
57.82
57.8329
57.8587
57.8595
57.8585
57.8628
57.8672
57.8661
57.8657
57.8498
57.8536
57.8618
57.8473
57.852
57.8596
57.85
57.849
57.8486
57.8392
57.8397
57.8527
57.856
57.8538
57.8521
57.8516
57.8474
57.843
57.8384
57.8237
57.8267
57.8375
57.8236
57.8283
57.8372
57.8358
57.8372
57.8368
57.8344
57.8156
54.9974
56.0126
56.8908
57.4525
57.7597
57.8678
57.8751
57.8827
57.8898
57.8827
57.8833
57.8833
57.8755
57.8797
57.8906
57.8891
57.885
57.8828
57.885
57.8802
57.8875
57.8936
57.8904
57.8793
57.8801
57.8867
57.8723
57.8736
57.8889
57.893
57.8906
57.8828
57.8821
57.8814
57.8785
57.875
57.8732
57.8664
57.8513
57.834
57.8294
57.8272
57.8256
57.8258
57.8225
57.8145
57.8056
57.8158
57.8247
57.8236
57.8232
57.8129
57.8296
57.8609
57.8588
57.8586
57.8571
57.8633
57.8701
57.8688
57.8679
57.856
57.8579
57.8619
57.8601
57.86
57.8542
57.8497
57.8387
57.8356
57.849
57.8534
57.8521
57.8517
57.8388
57.8393
57.8465
57.8392
57.8456
57.8494
57.8482
57.848
57.8432
57.8437
57.8397
57.8261
57.8283
57.8371
57.8345
57.8231
54.998
56.0104
56.89
57.4657
57.75
57.8348
57.8429
57.8404
57.8321
57.8404
57.8557
57.8556
57.8555
57.848
57.8483
57.8448
57.8536
57.8623
57.8511
57.8554
57.8748
57.8844
57.8885
57.8757
57.878
57.8892
57.8887
57.8821
57.8844
57.8874
57.8856
57.8851
57.8799
57.8786
57.875
57.8703
57.8512
57.8504
57.8511
57.8383
57.8435
57.8475
57.8407
57.8412
57.8376
57.8361
57.8371
57.8364
57.8353
57.8319
57.8336
57.8358
57.8346
57.8336
57.8208
57.8186
57.8144
57.8038
57.8
57.8165
57.8265
57.8255
57.8251
57.8146
57.822
57.8377
57.8367
57.8328
57.8313
57.8254
57.8277
57.8402
57.8351
57.8433
57.8489
57.8377
57.843
57.8461
57.8374
57.8411
57.8427
57.8389
57.8289
57.8255
57.8346
57.8364
57.841
57.8426
57.838
57.8206
55.0001
56.0113
56.8842
57.4674
57.7528
57.8325
57.8561
57.8591
57.8556
57.8554
57.8522
57.8511
57.8395
57.8425
57.866
57.869
57.8666
57.8629
57.86
57.8507
57.8514
57.8796
57.8885
57.8869
57.8859
57.8736
57.8765
57.8826
57.8799
57.8803
57.8763
57.8626
57.8588
57.8629
57.8639
57.8609
57.8476
57.8484
57.8489
57.845
57.844
57.8419
57.842
57.8425
57.841
57.8357
57.833
57.8302
57.8263
57.824
57.8119
57.8064
57.8145
57.8196
57.8178
57.8126
57.8178
57.8198
57.8273
57.8436
57.8422
57.8368
57.8357
57.8396
57.8397
57.8396
57.8291
57.8348
57.8391
57.8271
57.8335
57.8408
57.8407
57.8406
57.8263
57.8299
57.8394
57.8395
57.8395
57.8365
57.8328
57.8212
57.8262
57.8336
57.8308
57.8258
57.8167
57.8216
57.8243
57.8135
54.9997
56.0123
56.8834
57.467
57.754
57.834
57.8568
57.8594
57.8451
57.8495
57.8533
57.8508
57.8472
57.8432
57.8608
57.8694
57.8664
57.8598
57.8539
57.8695
57.882
57.8789
57.8785
57.879
57.8825
57.88
57.8769
57.8713
57.8698
57.8656
57.8512
57.8503
57.8652
57.8695
57.867
57.8659
57.8619
57.8525
57.8429
57.8421
57.8391
57.8367
57.8353
57.8214
57.8139
57.8186
57.8217
57.8182
57.806
57.805
57.8249
57.8252
57.8283
57.8512
57.8576
57.8555
57.8539
57.8404
57.8454
57.8557
57.8506
57.8518
57.8505
57.8397
57.8359
57.8385
57.8302
57.8363
57.8457
57.8438
57.8436
57.8416
57.8407
57.8255
57.8283
57.8365
57.8362
57.8362
57.831
57.8315
57.8296
57.8304
57.8273
57.825
57.8236
57.813
57.8179
57.8309
57.8283
57.8176
54.9974
56.013
56.8892
57.4567
57.7502
57.8802
57.8999
57.896
57.8958
57.8906
57.8969
57.9026
57.896
57.9
57.902
57.8988
57.8876
57.891
57.8983
57.8828
57.8862
57.8972
57.8874
57.8922
57.8958
57.89
57.8931
57.8936
57.8897
57.878
57.8737
57.8694
57.8548
57.8584
57.8626
57.8495
57.844
57.8445
57.8454
57.8464
57.8432
57.8312
57.831
57.8411
57.8317
57.8376
57.8464
57.8334
57.839
57.845
57.8446
57.8444
57.8362
57.8345
57.8222
57.8249
57.8403
57.8359
57.8371
57.8369
57.8391
57.8359
57.834
57.8336
57.825
57.8283
57.8374
57.8345
57.8284
57.8307
57.8456
57.8461
57.8437
57.843
57.8323
57.8319
57.8371
57.8382
57.8383
57.8313
57.83
57.8197
57.8257
57.84
57.8394
57.8383
57.8242
57.8282
57.833
57.8178
54.9978
56.0141
56.8882
57.4557
57.7456
57.8821
57.9052
57.9006
57.9011
57.9013
57.8964
57.8993
57.9027
57.9011
57.8993
57.9022
57.9062
57.9051
57.9042
57.9046
57.9059
57.9041
57.904
57.8942
57.8974
57.8991
57.8949
57.8971
57.8935
57.8908
57.8909
57.8906
57.8885
57.8809
57.8596
57.8605
57.8646
57.8626
57.8611
57.8438
57.8445
57.8473
57.8445
57.8355
57.837
57.84
57.8312
57.8261
57.8339
57.8443
57.8388
57.8384
57.8383
57.8344
57.8291
57.8388
57.8453
57.8434
57.8415
57.8324
57.8325
57.8295
57.8368
57.8522
57.8423
57.8475
57.8582
57.853
57.8525
57.8523
57.8477
57.8405
57.843
57.8507
57.8501
57.8495
57.8406
57.8343
57.8367
57.8418
57.8397
57.8368
57.8334
57.822
57.8156
57.821
57.8262
57.8248
57.8239
57.8122
54.9969
56.0169
56.8833
57.4584
57.7585
57.859
57.8669
57.8655
57.866
57.8619
57.8482
57.8502
57.8614
57.8472
57.8473
57.8584
57.8631
57.8609
57.8521
57.8612
57.8767
57.8748
57.8757
57.8738
57.8724
57.8708
57.8693
57.8575
57.853
57.8662
57.8702
57.8665
57.8535
57.853
57.8615
57.8619
57.8593
57.8576
57.8571
57.851
57.8447
57.8376
57.8212
57.8117
57.8197
57.8233
57.8202
57.8105
57.811
57.8283
57.8296
57.8273
57.825
57.8177
57.8176
57.8176
57.8227
57.8497
57.855
57.8485
57.8479
57.8473
57.8428
57.8362
57.8362
57.835
57.843
57.8465
57.842
57.8441
57.8413
57.8304
57.8345
57.8402
57.8261
57.8313
57.8399
57.8304
57.8243
57.828
57.8364
57.8399
57.8389
57.8376
57.8371
57.8234
57.8263
57.837
57.835
57.8237
54.9974
56.013
56.8894
57.456
57.7527
57.8752
57.8969
57.9036
57.9016
57.9009
57.8993
57.9003
57.9012
57.8877
57.8911
57.8963
57.8857
57.8932
57.9002
57.8861
57.8912
57.8987
57.8942
57.8957
57.8964
57.8956
57.8888
57.8752
57.8759
57.8826
57.878
57.8791
57.8792
57.8784
57.8737
57.8686
57.8579
57.8472
57.8417
57.8372
57.8308
57.827
57.8158
57.8136
57.8208
57.8141
57.8147
57.8226
57.8165
57.8231
57.8406
57.8405
57.8372
57.8306
57.8236
57.8295
57.8381
57.8359
57.828
57.8312
57.8377
57.8235
57.8266
57.8362
57.8219
57.8206
57.8284
57.8267
57.8238
57.8295
57.8367
57.8426
57.8415
57.8384
57.8296
57.8294
57.8345
57.8351
57.8348
57.8237
57.8297
57.839
57.8352
57.835
57.8334
57.822
57.8178
57.8252
57.8268
57.8178
54.9966
56.0108
56.8913
57.4688
57.7477
57.8274
57.8312
57.8236
57.8257
57.8462
57.8499
57.8472
57.8432
57.8332
57.8468
57.8695
57.8687
57.8642
57.8686
57.8834
57.8765
57.874
57.887
57.8987
57.893
57.8972
57.8983
57.8962
57.8935
57.8766
57.8727
57.8682
57.866
57.8655
57.855
57.86
57.8618
57.8565
57.8505
57.8516
57.8549
57.851
57.8427
57.8367
57.8366
57.833
57.8399
57.8435
57.8418
57.8414
57.8342
57.8301
57.8153
57.8117
57.8262
57.8296
57.8263
57.8151
57.8146
57.8243
57.828
57.8258
57.816
57.8229
57.8282
57.8267
57.8263
57.8164
57.8204
57.8304
57.8238
57.8264
57.8295
57.8282
57.8262
57.8176
57.8227
57.8269
57.8128
57.8135
57.8327
57.8385
57.8367
57.8352
57.8326
57.8286
57.8276
57.8269
57.8239
57.8104
54.9974
56.0129
56.89
57.454
57.7573
57.8683
57.8759
57.8856
57.8989
57.897
57.8944
57.8824
57.8873
57.8921
57.8824
57.8864
57.8897
57.8869
57.8887
57.8882
57.8769
57.8799
57.888
57.8859
57.886
57.8867
57.8879
57.8868
57.884
57.8648
57.8636
57.874
57.8751
57.8724
57.8572
57.856
57.8606
57.8512
57.8555
57.8608
57.8607
57.8602
57.845
57.8417
57.8448
57.8348
57.8366
57.8509
57.8521
57.8491
57.8378
57.8328
57.8308
57.8283
57.8283
57.8258
57.8223
57.816
57.8185
57.8192
57.8222
57.8231
57.8172
57.8152
57.8193
57.8158
57.8231
57.835
57.8225
57.8201
57.8343
57.8392
57.8369
57.8349
57.8244
57.8315
57.8398
57.8376
57.8343
57.8248
57.8324
57.8399
57.8356
57.8371
57.8339
57.8215
57.8181
57.8258
57.8273
57.8183
54.9961
56.0132
56.8878
57.467
57.7515
57.8427
57.8567
57.8563
57.8563
57.8513
57.848
57.8578
57.8655
57.8725
57.8925
57.8927
57.8911
57.8763
57.8773
57.8864
57.8724
57.875
57.8847
57.8835
57.8841
57.8846
57.8807
57.8831
57.8852
57.8838
57.8835
57.8776
57.8764
57.8705
57.8686
57.8629
57.8491
57.84
57.8422
57.836
57.8418
57.8515
57.8397
57.8356
57.845
57.8495
57.8482
57.8481
57.844
57.8307
57.8324
57.8354
57.8284
57.8301
57.8272
57.8192
57.8162
57.8166
57.8169
57.8115
57.8161
57.8274
57.8252
57.817
57.8194
57.8239
57.8205
57.8145
57.8176
57.8341
57.8339
57.8334
57.8202
57.8223
57.832
57.832
57.831
57.8159
57.8161
57.838
57.8417
57.8385
57.8313
57.8267
57.8269
57.8187
57.8206
57.8323
57.8324
57.8267
54.997
56.009
56.8924
57.4697
57.7485
57.8194
57.8204
57.8197
57.8385
57.8652
57.8554
57.8621
57.8734
57.8614
57.8675
57.8727
57.861
57.8675
57.8737
57.8602
57.8659
57.874
57.8636
57.8677
57.8693
57.8664
57.8577
57.8591
57.8693
57.8713
57.8683
57.8632
57.863
57.8626
57.8632
57.8599
57.8565
57.8545
57.8517
57.8483
57.8463
57.8437
57.8377
57.8211
57.8158
57.8213
57.822
57.8172
57.821
57.8257
57.8131
57.8142
57.833
57.836
57.8338
57.8328
57.8227
57.8262
57.8334
57.832
57.832
57.828
57.8194
57.8138
57.8186
57.8201
57.8135
57.8178
57.8334
57.8335
57.834
57.8344
57.8301
57.8144
57.8124
57.8253
57.8214
57.8277
57.8482
57.8479
57.8457
57.8455
57.8412
57.8306
57.8236
57.8232
57.821
57.821
57.821
57.8135
54.9974
56.0128
56.8876
57.4659
57.7498
57.8285
57.8499
57.8485
57.8428
57.8367
57.8425
57.8619
57.859
57.8586
57.8562
57.8543
57.851
57.8609
57.8693
57.8681
57.8677
57.8571
57.8646
57.8758
57.8709
57.8706
57.8709
57.8699
57.8562
57.8588
57.8638
57.8604
57.8492
57.8477
57.8527
57.8451
57.8422
57.8391
57.8351
57.8369
57.8371
57.8342
57.8232
57.8244
57.8251
57.8152
57.8225
57.8433
57.8436
57.8412
57.8394
57.8368
57.8337
57.8301
57.8193
57.8228
57.8308
57.8277
57.8162
57.8145
57.8314
57.8347
57.832
57.8278
57.8196
57.8245
57.8494
57.8507
57.8493
57.8485
57.8497
57.8502
57.845
57.842
57.8379
57.825
57.8234
57.8423
57.8473
57.8439
57.8324
57.8351
57.8412
57.8412
57.841
57.8233
57.8233
57.8297
57.8285
57.818
54.9985
56.0102
56.8903
57.4643
57.7475
57.8453
57.8543
57.8538
57.8536
57.8411
57.8378
57.8565
57.8655
57.8739
57.8858
57.8728
57.8785
57.8878
57.8758
57.8824
57.8899
57.8891
57.8888
57.8762
57.8776
57.8803
57.8734
57.874
57.8741
57.8734
57.8717
57.8695