/*--------------------------------*- C++ -*----------------------------------*\
  =========                 |
  \\      /  F ield         | OpenFOAM: The Open Source CFD Toolbox
   \\    /   O peration     | Website:  https://openfoam.org
    \\  /    A nd           | Version:  11
     \\/     M anipulation  |
\*---------------------------------------------------------------------------*/
FoamFile
{
    format      ascii;
    class       volScalarField;
    location    "0.06";
    object      p;
}
// * * * * * * * * * * * * * * * * * * * * * * * * * * * * * * * * * * * * * //

dimensions      [0 2 -2 0 0 0 0];

internalField   nonuniform List<scalar> 
287084
(
1.71601
1.43047
1.36999
1.30243
1.23305
1.18096
1.13157
1.08593
1.04203
0.998107
0.955123
0.912962
0.870109
0.826457
0.781812
0.736412
0.690826
0.64504
0.599194
0.553527
0.508221
0.463623
0.419905
0.377479
0.33599
0.296493
0.26194
0.231129
0.203183
0.178484
0.155743
0.136022
0.118061
0.102332
0.0906877
0.082252
0.0765978
0.0734014
0.0723524
0.0731544
0.0755241
0.0791822
0.083848
0.089288
0.0952587
0.101567
0.108
0.114387
0.12064
0.12594
0.131211
0.13796
0.143687
0.146637
0.150329
0.154907
0.158958
0.161199
0.162173
0.162838
0.163123
0.162731
0.161453
0.159906
0.157822
0.155317
0.152353
0.148879
0.145023
0.140518
0.136245
0.132394
0.127235
0.120635
0.114367
0.108041
0.101496
0.0940928
0.0864135
0.0791011
0.0719861
0.0651044
0.057336
0.0484977
0.0384336
0.0284141
0.021284
0.0154813
0.00744957
0.00254357
1.58016
1.38902
1.33975
1.28212
1.22158
1.17321
1.12635
1.08213
1.03913
0.995943
0.953423
0.911263
0.867897
0.823735
0.779089
0.733819
0.688156
0.642197
0.596145
0.55024
0.504729
0.459895
0.416009
0.373611
0.332102
0.293052
0.259529
0.229237
0.199522
0.172543
0.148654
0.128153
0.11102
0.0968688
0.0858863
0.0778868
0.0725689
0.0696854
0.068932
0.0700224
0.072667
0.0765899
0.0815068
0.087186
0.0933825
0.0998993
0.106551
0.113191
0.119686
0.1259
0.131849
0.137676
0.142727
0.146148
0.149884
0.15473
0.157894
0.159793
0.161315
0.162186
0.162422
0.162118
0.16119
0.159666
0.157767
0.155312
0.152242
0.148888
0.145071
0.141019
0.136344
0.131622
0.126852
0.120895
0.114391
0.108008
0.101712
0.09449
0.0868572
0.0795184
0.0719549
0.064244
0.0563094
0.0474722
0.0390681
0.0317932
0.0236174
0.0163976
0.00931095
0.00331231
1.554
1.3824
1.33217
1.27642
1.21814
1.17002
1.12344
1.07922
1.03603
0.993055
0.9503
0.907386
0.863858
0.81961
0.774655
0.729068
0.683
0.636595
0.590074
0.543673
0.497669
0.452404
0.408152
0.365386
0.324404
0.285691
0.249951
0.217392
0.187919
0.161345
0.138198
0.11821
0.101265
0.0875238
0.0769588
0.0693929
0.0645837
0.062222
0.062014
0.063652
0.0668358
0.0712787
0.0767044
0.0828593
0.089506
0.096445
0.103484
0.110489
0.117274
0.123742
0.129779
0.135501
0.140919
0.145505
0.149622
0.153636
0.156703
0.159
0.160553
0.16147
0.16183
0.16157
0.160695
0.159288
0.157313
0.154991
0.152158
0.148745
0.144942
0.140793
0.136083
0.131255
0.126241
0.120396
0.114234
0.108028
0.101467
0.0946346
0.0876011
0.0802743
0.0729068
0.0652658
0.0571927
0.0490122
0.0405668
0.0323391
0.0244974
0.0163353
0.00804538
0.00250696
1.50683
1.34821
1.30367
1.25344
1.20094
1.15653
1.11288
1.07066
1.02881
0.986749
0.944376
0.901458
0.857763
0.813206
0.767907
0.721857
0.67524
0.628212
0.580994
0.533869
0.487127
0.441107
0.396196
0.352787
0.311233
0.27208
0.235995
0.202902
0.172842
0.146073
0.122674
0.102722
0.0862414
0.0731906
0.063363
0.0565959
0.0525844
0.0510624
0.0516944
0.0541743
0.058176
0.0634067
0.0695811
0.0764471
0.0837577
0.091312
0.0989251
0.106443
0.113733
0.120681
0.127236
0.133353
0.138959
0.143805
0.148078
0.152018
0.155246
0.157674
0.159417
0.160526
0.16096
0.160815
0.160112
0.158783
0.156991
0.154674
0.151747
0.148458
0.144735
0.140555
0.135991
0.131102
0.125897
0.120198
0.114177
0.107892
0.101349
0.0945594
0.0874887
0.0802713
0.0728807
0.0652039
0.0574883
0.0495664
0.0413377
0.0331756
0.0249341
0.0164968
0.0082093
0.00279993
1.48394
1.33351
1.29155
1.24322
1.19276
1.14917
1.10611
1.06412
1.02234
0.980213
0.937646
0.894381
0.850256
0.805205
0.759277
0.712514
0.665103
0.617168
0.569019
0.520887
0.473126
0.426118
0.380217
0.335925
0.29359
0.253717
0.216742
0.182956
0.152524
0.125586
0.102381
0.0828602
0.0669666
0.0546295
0.0456616
0.0398273
0.0368437
0.0363837
0.038103
0.0416669
0.0467398
0.0530091
0.0601787
0.0679793
0.0761663
0.0845317
0.0928949
0.101102
0.10901
0.116534
0.123575
0.130086
0.136037
0.141322
0.145982
0.150075
0.153416
0.156044
0.157983
0.159257
0.159898
0.159902
0.159278
0.158097
0.156342
0.15407
0.151348
0.148108
0.144423
0.140318
0.135795
0.130908
0.125697
0.120058
0.11407
0.107833
0.101341
0.0945755
0.0875894
0.0803655
0.0729679
0.0654141
0.0576659
0.0497863
0.0417537
0.0336422
0.0253416
0.0167047
0.00811396
0.00263674
1.45992
1.31134
1.27115
1.22517
1.1773
1.13576
1.09445
1.05376
1.01286
0.971215
0.928781
0.885346
0.840863
0.795233
0.748603
0.700975
0.652559
0.603553
0.5542
0.504833
0.455797
0.40749
0.360372
0.314871
0.271492
0.230659
0.192883
0.158422
0.127596
0.100559
0.0774606
0.0583199
0.0430743
0.0316224
0.0237095
0.0190795
0.0173785
0.0182682
0.0213587
0.0262937
0.0327048
0.0402623
0.0486579
0.0576139
0.0668788
0.0762431
0.0855195
0.0945567
0.10323
0.111434
0.119096
0.126157
0.132584
0.13831
0.143335
0.147686
0.151321
0.15422
0.156392
0.157864
0.158661
0.158809
0.158346
0.157281
0.155659
0.153507
0.150807
0.147612
0.143981
0.139908
0.135437
0.130583
0.12538
0.119806
0.113894
0.107699
0.101227
0.094517
0.0875664
0.0804034
0.0730679
0.0655343
0.0578435
0.0500356
0.0420476
0.0339455
0.0256278
0.0169313
0.00823886
0.00274176
1.442
1.29589
1.2574
1.21271
1.16621
1.12549
1.08479
1.04438
1.00361
0.961865
0.919164
0.875291
0.830172
0.78377
0.736186
0.687463
0.637847
0.587469
0.5367
0.485813
0.435228
0.385394
0.336739
0.28984
0.245127
0.203169
0.164407
0.129227
0.0979762
0.0708148
0.0479463
0.0293401
0.0149251
0.00452845
-0.00212292
-0.00534086
-0.00551917
-0.00303544
0.00167733
0.00822189
0.0162125
0.0252928
0.035137
0.0454562
0.0559891
0.0665205
0.076871
0.0868885
0.0964416
0.105445
0.113817
0.121513
0.128492
0.134718
0.140187
0.144909
0.148855
0.152036
0.154473
0.15619
0.157206
0.157544
0.157241
0.156326
0.154822
0.152756
0.150174
0.147088
0.143534
0.13953
0.135109
0.13029
0.125112
0.119579
0.113717
0.107558
0.10113
0.0944462
0.0875333
0.0804062
0.0730929
0.0656007
0.0579441
0.0501616
0.0422029
0.0341071
0.0257482
0.0170001
0.0082791
0.0027636
1.4255
1.2798
1.24197
1.19839
1.15293
1.11316
1.0732
1.03333
0.992791
0.951125
0.908189
0.863821
0.818019
0.770706
0.722045
0.672066
0.621015
0.569111
0.51665
0.464024
0.41164
0.359984
0.309587
0.260988
0.21478
0.171481
0.131643
0.0956795
0.0639592
0.0367208
0.0141051
-0.00387823
-0.0173499
-0.026512
-0.0316869
-0.0332549
-0.0316508
-0.0273156
-0.0207232
-0.0123099
-0.00249986
0.00832847
0.019832
0.0317029
0.0436788
0.0555429
0.0671085
0.0782276
0.0887839
0.0986879
0.107867
0.116275
0.123889
0.130677
0.13664
0.141783
0.146111
0.149635
0.152373
0.154346
0.155591
0.156133
0.156009
0.155252
0.153883
0.151944
0.149466
0.146468
0.142988
0.139052
0.134691
0.129931
0.124799
0.119316
0.113503
0.10739
0.101
0.0943557
0.0874756
0.080383
0.0731004
0.0656441
0.0580238
0.0502652
0.0423195
0.0342057
0.025809
0.0170433
0.00836108
0.00284672
1.41104
1.266
1.22889
1.18595
1.14115
1.10184
1.06223
1.02244
0.98184
0.939912
0.896514
0.851481
0.804777
0.756401
0.706449
0.655007
0.60234
0.54863
0.494281
0.439643
0.385202
0.331506
0.27908
0.228613
0.180655
0.135876
0.0948273
0.0579838
0.0258037
-0.00152415
-0.0237751
-0.0410229
-0.0533738
-0.0611082
-0.0646039
-0.0642901
-0.060679
-0.0542572
-0.0455546
-0.03505
-0.0231994
-0.0104205
0.00292674
0.0165308
0.0301086
0.0434438
0.0563558
0.0686954
0.0803522
0.0912423
0.101304
0.110503
0.118813
0.126222
0.132732
0.138358
0.143106
0.146997
0.150061
0.152325
0.153827
0.154594
0.154668
0.154078
0.152863
0.151054
0.14869
0.145794
0.142408
0.138551
0.134256
0.129553
0.12447
0.119037
0.113269
0.107199
0.100852
0.0942405
0.0873948
0.0803317
0.0730785
0.065649
0.0580478
0.0503085
0.0423998
0.0343145
0.0260015
0.0172509
0.00835465
0.00275645
1.39781
1.25295
1.21617
1.17363
1.12922
1.09026
1.05084
1.01111
0.970321
0.928043
0.884063
0.838216
0.790513
0.740899
0.689524
0.636453
0.581953
0.526282
0.469793
0.412949
0.356229
0.300234
0.245599
0.192995
0.143149
0.0967052
0.0543367
0.0165832
-0.0161209
-0.0434654
-0.0653179
-0.0816984
-0.0927918
-0.0989229
-0.100521
-0.0981134
-0.0922534
-0.0835185
-0.0724771
-0.0596671
-0.0455865
-0.0306711
-0.0153093
0.000169625
0.0154899
0.0304263
0.0447909
0.0584515
0.0712974
0.083256
0.0942746
0.104316
0.113376
0.121446
0.128541
0.134679
0.139879
0.144172
0.147593
0.150168
0.151939
0.152944
0.153226
0.152826
0.15177
0.1501
0.147859
0.145072
0.141775
0.138
0.133779
0.129142
0.124119
0.118738
0.113017
0.10699
0.100681
0.0941092
0.0872967
0.0802671
0.0730407
0.0656394
0.0580642
0.0503443
0.0424245
0.0343519
0.0259564
0.0171406
0.0083887
0.00284516
1.38569
1.24097
1.20441
1.16214
1.11795
1.07909
1.03967
0.999753
0.958638
0.915845
0.871125
0.824357
0.775485
0.724512
0.671528
0.61666
0.560171
0.502305
0.44351
0.384216
0.324998
0.266517
0.209425
0.154557
0.102603
0.0543959
0.0106085
-0.0281422
-0.0613268
-0.0886942
-0.110016
-0.125417
-0.135082
-0.139423
-0.138944
-0.134229
-0.12593
-0.114679
-0.101119
-0.0858273
-0.0693405
-0.052136
-0.0346181
-0.0171269
4.60433e-05
0.0166764
0.0325906
0.047644
0.0617449
0.0748261
0.086848
0.0977889
0.10764
0.116414
0.124129
0.130814
0.136493
0.141206
0.144998
0.147899
0.149958
0.151212
0.151717
0.151508
0.150622
0.1491
0.146987
0.144311
0.141116
0.13743
0.133284
0.128715
0.123751
0.118423
0.112751
0.106769
0.100498
0.0939592
0.087183
0.0801807
0.0729802
0.0656041
0.0580435
0.0503374
0.0424431
0.0343751
0.0260037
0.0172037
0.00840672
0.00284929
1.37448
1.2298
1.19335
1.15118
1.10702
1.06816
1.0286
0.988422
0.946827
0.903372
0.857832
0.809995
0.759863
0.707379
0.65268
0.595868
0.537218
0.477034
0.415725
0.353842
0.291938
0.230768
0.17109
0.113735
0.0595873
0.00946764
-0.0358073
-0.0755658
-0.109268
-0.13656
-0.157313
-0.171602
-0.179708
-0.182101
-0.179354
-0.172161
-0.161229
-0.147291
-0.131035
-0.113107
-0.0940856
-0.0744662
-0.0546855
-0.0350961
-0.0159858
0.00241791
0.0199358
0.0364467
0.0518592
0.0661122
0.0791766
0.0910437
0.101718
0.111216
0.119569
0.126813
0.132991
0.138144
0.142316
0.145556
0.147913
0.149429
0.15016
0.15015
0.149436
0.148067
0.146084
0.143529
0.140436
0.136837
0.132771
0.128269
0.123367
0.118095
0.112473
0.106535
0.1003
0.0938011
0.0870574
0.0800855
0.0729101
0.0655479
0.0580132
0.0503236
0.0424337
0.0343824
0.0260372
0.0172266
0.00839266
0.00282856
1.36409
1.21942
1.18297
1.14084
1.09664
1.05761
1.0178
0.977212
0.935057
0.890879
0.844369
0.795399
0.743876
0.689799
0.63325
0.574381
0.513451
0.450777
0.386845
0.322172
0.257459
0.193459
0.131017
0.071108
0.0146136
-0.0374628
-0.0842813
-0.125073
-0.159228
-0.186434
-0.206482
-0.219561
-0.22596
-0.22625
-0.221096
-0.21127
-0.197581
-0.180825
-0.161766
-0.141096
-0.119438
-0.0973252
-0.0752067
-0.0534507
-0.0323468
-0.0121269
0.00704267
0.025038
0.0417828
0.0572295
0.0713581
0.08417
0.0956805
0.105924
0.114934
0.122756
0.129438
0.135033
0.139596
0.143179
0.145837
0.147615
0.148575
0.148763
0.14823
0.147016
0.145172
0.142733
0.139741
0.136236
0.132249
0.127823
0.122981
0.11776
0.112191
0.106296
0.100103
0.0936343
0.0869176
0.0799757
0.0728266
0.065491
0.0579681
0.0502935
0.0424203
0.034371
0.0259979
0.0171943
0.00841699
0.00287814
1.35446
1.20976
1.17327
1.13109
1.0867
1.04748
1.00731
0.966233
0.923454
0.878455
0.83094
0.780718
0.727754
0.671979
0.613525
0.5525
0.489199
0.423964
0.357275
0.289762
0.222086
0.155173
0.0898873
0.0272913
-0.0315766
-0.0856845
-0.134051
-0.175855
-0.210458
-0.237472
-0.256769
-0.268519
-0.273117
-0.2712
-0.263521
-0.25096
-0.234407
-0.214745
-0.192799
-0.169325
-0.144983
-0.120333
-0.0958454
-0.0718947
-0.0487814
-0.0267268
-0.00589574
0.0136007
0.0316901
0.048338
0.0635342
0.0772955
0.0896504
0.100635
0.110298
0.118694
0.125884
0.131927
0.136878
0.140801
0.143756
0.145799
0.146994
0.147385
0.147025
0.145967
0.144257
0.141938
0.13905
0.135634
0.131728
0.12737
0.122592
0.117425
0.111904
0.106052
0.0998947
0.0934666
0.08678
0.079861
0.0727365
0.0654154
0.0579104
0.050248
0.0423753
0.0343439
0.0259638
0.0171632
0.00841643
0.00288591
1.34555
1.20081
1.16423
1.12196
1.07739
1.03785
0.997284
0.955664
0.912168
0.866276
0.817694
0.766209
0.711735
0.654236
0.593795
0.530574
0.464836
0.396966
0.32749
0.25702
0.186383
0.116463
0.0482937
-0.016993
-0.0782846
-0.134396
-0.184302
-0.227084
-0.262055
-0.288835
-0.307275
-0.317628
-0.320331
-0.316123
-0.305858
-0.290505
-0.271051
-0.248458
-0.223611
-0.19732
-0.17029
-0.143105
-0.11625
-0.0901198
-0.0650067
-0.0411354
-0.0186593
0.0023189
0.0217366
0.0395736
0.0558256
0.0705213
0.0837034
0.0954219
0.105729
0.114694
0.122381
0.128862
0.134201
0.138464
0.14172
0.144022
0.145438
0.146025
0.14584
0.144935
0.143357
0.141152
0.138364
0.13504
0.131215
0.126928
0.122209
0.117095
0.111621
0.10581
0.0996936
0.0932924
0.0866348
0.079747
0.072643
0.0653475
0.057857
0.0502139
0.0423548
0.0343242
0.0259542
0.0171618
0.00842666
0.0028955
1.33735
1.19257
1.15589
1.11346
1.06862
1.02878
0.987742
0.945562
0.901322
0.854533
0.804854
0.752061
0.696065
0.636816
0.574404
0.50896
0.440795
0.370289
0.297992
0.224618
0.150955
0.0780789
0.00701442
-0.0609563
-0.124626
-0.182716
-0.234099
-0.277804
-0.313087
-0.33955
-0.357088
-0.365977
-0.366749
-0.360231
-0.347366
-0.329226
-0.306885
-0.28138
-0.253667
-0.224605
-0.194933
-0.165264
-0.136101
-0.107836
-0.080772
-0.055126
-0.0310448
-0.00862131
0.0120877
0.0310754
0.0483566
0.0639619
0.0779485
0.0903745
0.101312
0.110829
0.119
0.125904
0.131612
0.136198
0.139733
0.142287
0.143929
0.14471
0.144692
0.143934
0.142486
0.140394
0.137707
0.134468
0.130716
0.126496
0.12184
0.116776
0.111344
0.105571
0.0994892
0.0931218
0.0864926
0.0796261
0.0725447
0.0652623
0.0577873
0.0501507
0.0423024
0.0342759
0.0259326
0.0171556
0.00841892
0.00290084
1.32987
1.18505
1.14825
1.10563
1.06056
1.02035
0.978858
0.93604
0.891068
0.843365
0.792594
0.738505
0.68101
0.620029
0.555656
0.488038
0.41746
0.344362
0.269313
0.193039
0.116469
0.0406472
-0.0332093
-0.103792
-0.169755
-0.229726
-0.282514
-0.327039
-0.362564
-0.388647
-0.405231
-0.412637
-0.411475
-0.40266
-0.38724
-0.366375
-0.341228
-0.312904
-0.282424
-0.250689
-0.218478
-0.186422
-0.155037
-0.12473
-0.0957987
-0.0684572
-0.0428453
-0.0190431
0.00289787
0.0229835
0.041241
0.0577128
0.0724596
0.0855665
0.0971003
0.107143
0.115775
0.12308
0.129144
0.134046
0.137856
0.140649
0.142498
0.143459
0.1436
0.142981
0.141656
0.139672
0.137079
0.133922
0.130245
0.126089
0.121484
0.11647
0.111081
0.105346
0.0993008
0.0929623
0.0863593
0.0795167
0.0724508
0.0651927
0.0577307
0.0501195
0.0422796
0.0342582
0.025901
0.017123
0.00842236
0.00290459
1.32315
1.17825
1.14132
1.09855
1.05315
1.01262
0.970627
0.927254
0.881541
0.832933
0.781098
0.725768
0.666802
0.604169
0.537912
0.468188
0.395317
0.31972
0.242013
0.162989
0.0835845
0.00499864
-0.0715675
-0.144602
-0.212742
-0.274475
-0.328533
-0.373803
-0.409472
-0.435141
-0.450746
-0.456687
-0.453644
-0.442622
-0.424758
-0.401295
-0.373483
-0.342489
-0.309389
-0.275135
-0.240527
-0.206225
-0.172759
-0.140533
-0.10985
-0.0809178
-0.0538676
-0.0287782
-0.00568367
0.0154294
0.0346001
0.0518827
0.0673528
0.0810859
0.0931741
0.103707
0.112767
0.12045
0.126845
0.132033
0.136097
0.139113
0.141155
0.142288
0.142579
0.142095
0.140884
0.138999
0.136495
0.133418
0.129806
0.125705
0.121153
0.116183
0.110835
0.105135
0.0991166
0.0928035
0.0862226
0.0794
0.0723531
0.0651104
0.0576634
0.0500587
0.0422298
0.034241
0.0259124
0.0171615
0.00839941
0.00284907
1.31718
1.17221
1.13514
1.0922
1.04656
1.00565
0.963223
0.919289
0.872852
0.82341
0.770567
0.714047
0.653728
0.589514
0.52149
0.449794
0.37474
0.296815
0.216622
0.135003
0.0529921
-0.0282234
-0.107248
-0.182587
-0.252701
-0.316026
-0.37123
-0.417098
-0.452865
-0.478058
-0.492713
-0.497242
-0.492419
-0.479316
-0.459168
-0.433295
-0.403015
-0.369563
-0.334058
-0.297491
-0.26069
-0.224333
-0.188958
-0.154978
-0.122691
-0.0923014
-0.0639425
-0.0376746
-0.013523
0.00853008
0.0285318
0.0465549
0.062672
0.0769879
0.0895884
0.100567
0.110022
0.118047
0.124745
0.130201
0.134498
0.137717
0.139938
0.141226
0.141653
0.141284
0.140179
0.138385
0.135961
0.132953
0.129403
0.125356
0.12085
0.115924
0.11061
0.104941
0.098952
0.092667
0.0861109
0.0793063
0.072274
0.0650484
0.0576131
0.0500291
0.0422177
0.0342245
0.0259144
0.0171192
0.00837277
0.0028693
1.31197
1.16698
1.1298
1.08666
1.04075
0.999524
0.956683
0.912218
0.865149
0.814915
0.761157
0.703566
0.641988
0.576357
0.506719
0.433224
0.356222
0.276146
0.193704
0.10974
0.0253278
-0.0582085
-0.139511
-0.216867
-0.288766
-0.353485
-0.409656
-0.456044
-0.491811
-0.516548
-0.530284
-0.533506
-0.527054
-0.512074
-0.48987
-0.461834
-0.429349
-0.393691
-0.356034
-0.317396
-0.278634
-0.240441
-0.203365
-0.167819
-0.134102
-0.10242
-0.0728896
-0.0455757
-0.0204891
0.00240097
0.0231553
0.0418383
0.0585377
0.0733562
0.0864016
0.0977763
0.10758
0.115914
0.122878
0.128568
0.133072
0.136472
0.13885
0.140278
0.140826
0.140566
0.139549
0.13784
0.135488
0.132541
0.129045
0.125042
0.120579
0.115687
0.110409
0.104769
0.0988002
0.0925333
0.0859938
0.0792067
0.0721904
0.0649749
0.0575528
0.0499698
0.0421631
0.0341822
0.0258652
0.0170941
0.00837171
0.00288328
1.30763
1.16254
1.12521
1.08199
1.03582
0.99433
0.95108
0.906177
0.858533
0.807616
0.75305
0.694507
0.63184
0.564943
0.493892
0.418824
0.340072
0.258144
0.173726
0.0877093
0.00123764
-0.084375
-0.167599
-0.246731
-0.320144
-0.38604
-0.443019
-0.489776
-0.525531
-0.549805
-0.562714
-0.564778
-0.556888
-0.540263
-0.516272
-0.486359
-0.451964
-0.414413
-0.374906
-0.334495
-0.294048
-0.254281
-0.215742
-0.178855
-0.143912
-0.111112
-0.0805826
-0.0523683
-0.026477
-0.0028702
0.0185124
0.0377586
0.0549612
0.0702288
0.0836624
0.0953788
0.105484
0.114083
0.12128
0.127169
0.131852
0.135406
0.137922
0.139469
0.140122
0.139951
0.139014
0.13737
0.135083
0.132192
0.128741
0.12478
0.120351
0.115492
0.110235
0.10462
0.0986775
0.0924319
0.0859099
0.0791353
0.0721326
0.0649283
0.0575131
0.04995
0.0421467
0.0341683
0.0258642
0.0170951
0.00837516
0.00287791
1.30408
1.15897
1.12155
1.07818
1.03184
0.990084
0.946553
0.901233
0.853096
0.801595
0.746369
0.687039
0.62345
0.555517
0.483284
0.406899
0.326729
0.243227
0.157169
0.0694375
-0.0187739
-0.106056
-0.190921
-0.271465
-0.346142
-0.412975
-0.470561
-0.517623
-0.553309
-0.57719
-0.589392
-0.590467
-0.581384
-0.563401
-0.537938
-0.506487
-0.470528
-0.431415
-0.390389
-0.348514
-0.306686
-0.265625
-0.225889
-0.187897
-0.151948
-0.118241
-0.0868814
-0.0579284
-0.0313772
-0.00718265
0.0147261
0.0344385
0.0520549
0.067675
0.0814241
0.0934181
0.10377
0.112585
0.11997
0.126026
0.13085
0.134533
0.137158
0.138804
0.139538
0.13944
0.13857
0.136985
0.134743
0.131895
0.128484
0.124556
0.120162
0.115327
0.110096
0.104498
0.0985682
0.0923365
0.0858249
0.079064
0.0720702
0.0648706
0.0574672
0.0499014
0.0421059
0.034114
0.0258119
0.0170741
0.00837828
0.00289556
1.30141
1.15627
1.11877
1.07531
1.0288
0.986882
0.943062
0.897467
0.848961
0.797023
0.741254
0.68131
0.617013
0.548255
0.475105
0.397708
0.316405
0.231713
0.144384
0.0553366
-0.0341971
-0.122793
-0.208891
-0.290527
-0.366217
-0.433668
-0.491708
-0.538974
-0.57462
-0.598163
-0.609801
-0.610124
-0.600111
-0.58108
-0.554483
-0.521852
-0.484692
-0.444394
-0.402207
-0.359219
-0.316337
-0.274292
-0.233641
-0.194809
-0.15809
-0.123685
-0.0917028
-0.0621839
-0.0351283
-0.0104825
0.0118237
0.0318904
0.0498196
0.0657193
0.0797107
0.0919211
0.102456
0.111433
0.118965
0.125148
0.130086
0.133864
0.136578
0.138293
0.139095
0.139056
0.138235
0.136691
0.134489
0.131675
0.128292
0.124393
0.120014
0.1152
0.109985
0.104404
0.0984883
0.0922671
0.0857705
0.0790184
0.0720358
0.0648468
0.0574469
0.0498918
0.0420944
0.0341165
0.0257972
0.0170374
0.00838092
0.00291157
1.29962
1.15445
1.1169
1.07337
1.02675
0.984694
0.940724
0.894915
0.846157
0.793907
0.737789
0.677426
0.61264
0.54335
0.469573
0.391476
0.309428
0.223908
0.135703
0.045756
-0.0447056
-0.134163
-0.221146
-0.303498
-0.37995
-0.447842
-0.505933
-0.553336
-0.589011
-0.612336
-0.6236
-0.623394
-0.61276
-0.593018
-0.565657
-0.532227
-0.494261
-0.453159
-0.410187
-0.366447
-0.322854
-0.280141
-0.23887
-0.199471
-0.162236
-0.127361
-0.0949529
-0.0650548
-0.0376552
-0.0127102
0.00986497
0.0301701
0.0483077
0.0643915
0.0785507
0.0909034
0.101571
0.110662
0.118292
0.124559
0.12957
0.133418
0.136189
0.137958
0.1388
0.138793
0.138003
0.136492
0.134313
0.131518
0.128159
0.124275
0.119916
0.115116
0.109913
0.104339
0.0984305
0.0922229
0.0857281
0.0789798
0.0720012
0.0648147
0.057424
0.0498678
0.0420887
0.0341181
0.0258497
0.0171166
0.00834403
0.00284638
1.29872
1.15355
1.11596
1.0724
1.02574
0.983607
0.939555
0.893636
0.844745
0.792366
0.736046
0.675465
0.610439
0.540849
0.466756
0.388313
0.305867
0.219943
0.131301
0.0409062
-0.0499997
-0.139923
-0.2273
-0.310082
-0.386882
-0.455038
-0.513059
-0.56058
-0.596282
-0.61947
-0.630541
-0.630078
-0.619118
-0.599019
-0.571271
-0.53744
-0.499067
-0.457564
-0.414201
-0.370088
-0.326136
-0.283086
-0.241506
-0.201819
-0.164321
-0.129209
-0.0965895
-0.0664997
-0.0389316
-0.0138279
0.00888695
0.0293121
0.0475542
0.0637304
0.0779703
0.0903968
0.101123
0.110269
0.117951
0.124261
0.12931
0.133187
0.135984
0.137776
0.138645
0.13866
0.137888
0.13639
0.134226
0.131446
0.128092
0.124218
0.119864
0.115071
0.109871
0.104306
0.0984062
0.0921959
0.0857077
0.0789631
0.0719906
0.0648116
0.0574196
0.0498691
0.0420831
0.0341129
0.0258277
0.0170539
0.00834272
0.00287417
1.29873
1.15355
1.11596
1.0724
1.02574
0.983603
0.939551
0.893633
0.844754
0.792372
0.736046
0.675476
0.610441
0.540867
0.466772
0.388327
0.30589
0.219954
0.131316
0.0409194
-0.0499912
-0.139907
-0.227293
-0.310066
-0.386863
-0.455023
-0.513033
-0.560563
-0.596258
-0.61945
-0.630519
-0.630054
-0.619097
-0.598998
-0.571252
-0.53742
-0.499047
-0.457542
-0.414182
-0.370069
-0.326118
-0.283072
-0.241492
-0.201809
-0.164313
-0.129204
-0.0965843
-0.0664919
-0.038923
-0.0138252
0.00888351
0.0293048
0.0475498
0.0637268
0.0779686
0.0903928
0.101122
0.110271
0.117951
0.12426
0.12931
0.133193
0.13599
0.137782
0.138648
0.138663
0.137886
0.136388
0.134221
0.131438
0.128089
0.124215
0.119866
0.115071
0.109872
0.104306
0.0984021
0.0921939
0.085703
0.0789594
0.0719837
0.064801
0.057417
0.0498624
0.0420778
0.0341092
0.0258032
0.0170499
0.00836126
0.00288733
1.29963
1.15446
1.1169
1.07338
1.02678
0.984705
0.940746
0.894927
0.846173
0.793938
0.737814
0.677439
0.612661
0.543357
0.469578
0.391495
0.309433
0.223929
0.135724
0.0457963
-0.0446572
-0.134118
-0.221082
-0.30344
-0.379896
-0.447769
-0.505844
-0.553277
-0.588942
-0.612263
-0.623525
-0.623326
-0.612694
-0.592958
-0.565599
-0.532172
-0.494206
-0.453108
-0.410142
-0.366408
-0.322821
-0.280108
-0.238841
-0.199443
-0.162211
-0.127341
-0.0949334
-0.0650363
-0.0376414
-0.0126943
0.00988174
0.03019
0.0483294
0.0644068
0.0785607
0.0909112
0.101573
0.11066
0.11829
0.124558
0.129568
0.133414
0.13618
0.137944
0.138791
0.138787
0.137999
0.136486
0.134309
0.131515
0.128151
0.124271
0.119908
0.115108
0.109903
0.104332
0.0984299
0.0922148
0.0857217
0.078974
0.0719976
0.0648151
0.0574217
0.0498737
0.0420862
0.034119
0.0258195
0.0170447
0.00834033
0.00287758
1.30142
1.15628
1.11879
1.07531
1.02882
0.986873
0.943089
0.897483
0.848974
0.797058
0.741277
0.681341
0.617037
0.548295
0.475147
0.39775
0.316463
0.231764
0.144441
0.0554004
-0.0341371
-0.122711
-0.208821
-0.290435
-0.366123
-0.433555
-0.491589
-0.538871
-0.574498
-0.598051
-0.609683
-0.610009
-0.599999
-0.580973
-0.554381
-0.521755
-0.484603
-0.444311
-0.40213
-0.359149
-0.316272
-0.274233
-0.233587
-0.19476
-0.158046
-0.123648
-0.0916697
-0.0621558
-0.0351041
-0.0104623
0.0118401
0.0319019
0.0498276
0.0657214
0.0797117
0.0919184
0.102457
0.111436
0.118969
0.12515
0.130086
0.133868
0.136575
0.138292
0.139097
0.139053
0.138226
0.136685
0.134478
0.131661
0.128284
0.124383
0.120007
0.115191
0.109974
0.104392
0.0984756
0.0922558
0.0857556
0.0790039
0.0720258
0.0648334
0.0574405
0.0498811
0.0420999
0.0341299
0.0258469
0.0170962
0.00834948
0.00286872
1.3041
1.15899
1.12157
1.0782
1.03186
0.9901
0.94657
0.901258
0.853139
0.801651
0.746416
0.687076
0.623495
0.555565
0.483326
0.40696
0.326771
0.2433
0.157238
0.0695231
-0.0186706
-0.105959
-0.190793
-0.271354
-0.345996
-0.412841
-0.470408
-0.517461
-0.553144
-0.577026
-0.58923
-0.59031
-0.581235
-0.563258
-0.537799
-0.506358
-0.470404
-0.431305
-0.390289
-0.34842
-0.3066
-0.265544
-0.225815
-0.18783
-0.15189
-0.118192
-0.0868392
-0.0578916
-0.0313455
-0.00715342
0.0147485
0.0344584
0.0520727
0.0676895
0.0814347
0.0934249
0.103772
0.112586
0.119973
0.126027
0.130849
0.13453
0.137154
0.138796
0.139534
0.139431
0.13856
0.136973
0.13473
0.131884
0.128473
0.124546
0.120144
0.11531
0.110079
0.104485
0.0985575
0.0923225
0.0858144
0.0790523
0.0720609
0.0648666
0.0574632
0.0499048
0.0421037
0.0341362
0.0258242
0.0170528
0.00835617
0.00288496
1.30763
1.16257
1.12526
1.082
1.03586
0.994331
0.951124
0.906207
0.858562
0.807671
0.753095
0.69456
0.631891
0.565005
0.493958
0.418893
0.340169
0.258231
0.173825
0.087821
0.00134784
-0.0842326
-0.167469
-0.246571
-0.319976
-0.385864
-0.44282
-0.489593
-0.52532
-0.549612
-0.56251
-0.564579
-0.556692
-0.540079
-0.516098
-0.4862
-0.451817
-0.414276
-0.374779
-0.334375
-0.293934
-0.254178
-0.215648
-0.178768
-0.143836
-0.111049
-0.0805264
-0.0523205
-0.0264355
-0.0028328
0.0185455
0.0377848
0.0549819
0.0702381
0.0836665
0.0953808
0.105483
0.114082
0.121284
0.127177
0.131855
0.135408
0.137917
0.139464
0.14012
0.139946
0.139003
0.137359
0.135065
0.13217
0.128724
0.124764
0.120335
0.115475
0.110219
0.104601
0.0986547
0.0924055
0.0858835
0.0791134
0.0721125
0.0649048
0.0574952
0.0499255
0.0421323
0.0341546
0.0258587
0.0171059
0.00836089
0.00286473
1.312
1.16701
1.12982
1.08669
1.04078
0.999554
0.956716
0.912265
0.865192
0.814969
0.761218
0.703624
0.642059
0.576437
0.506798
0.43332
0.356306
0.276252
0.19382
0.109862
0.0254881
-0.0580696
-0.139323
-0.216703
-0.288558
-0.353287
-0.409436
-0.455814
-0.491581
-0.516313
-0.530056
-0.533275
-0.526831
-0.511857
-0.489663
-0.461642
-0.429166
-0.393522
-0.355878
-0.317249
-0.278499
-0.240316
-0.203253
-0.167719
-0.134015
-0.102343
-0.0728238
-0.0455219
-0.0204439
0.0024377
0.0231756
0.0418546
0.0585544
0.0733719
0.0864127
0.0977841
0.107587
0.115921
0.122889
0.128574
0.133072
0.136469
0.138847
0.140272
0.140821
0.140554
0.139539
0.137827
0.13547
0.132523
0.129027
0.125026
0.120558
0.115666
0.110384
0.104748
0.0987817
0.0925131
0.0859733
0.0791862
0.0721699
0.0649579
0.0575366
0.0499589
0.0421409
0.0341546
0.0258095
0.0170401
0.00838779
0.00290575
1.3172
1.17225
1.13518
1.09224
1.04658
1.00567
0.963253
0.919313
0.872918
0.823476
0.770633
0.714127
0.653805
0.589605
0.521592
0.449895
0.374867
0.296936
0.216763
0.135167
0.0531515
-0.0280297
-0.107063
-0.182374
-0.252478
-0.315799
-0.370976
-0.416857
-0.452596
-0.477803
-0.492447
-0.496977
-0.492159
-0.47907
-0.458937
-0.43308
-0.402816
-0.369378
-0.333884
-0.29733
-0.260537
-0.224195
-0.188833
-0.154865
-0.122587
-0.0922079
-0.0638606
-0.0376074
-0.0134672
0.00858197
0.0285782
0.0465924
0.0627082
0.0770105
0.0895966
0.10057
0.110019
0.118049
0.124748
0.1302
0.134494
0.137713
0.139929
0.141216
0.141648
0.141278
0.140166
0.138374
0.135945
0.132932
0.129381
0.125331
0.120823
0.115896
0.110585
0.104914
0.0989209
0.0926314
0.0860741
0.0792711
0.0722407
0.0650122
0.0575801
0.0499918
0.0421674
0.0341698
0.0258111
0.0170414
0.00839788
0.00291995
1.3232
1.17828
1.14132
1.0986
1.0532
1.01265
0.970676
0.927232
0.881596
0.833064
0.781188
0.725847
0.666901
0.604269
0.538019
0.468306
0.39544
0.31985
0.242171
0.163138
0.0837853
0.00517174
-0.0713369
-0.144394
-0.212491
-0.274226
-0.328265
-0.37352
-0.409194
-0.43485
-0.450464
-0.456401
-0.453372
-0.442353
-0.4245
-0.401054
-0.373251
-0.342271
-0.30919
-0.27495
-0.24036
-0.206071
-0.172619
-0.140406
-0.109736
-0.0808123
-0.0537777
-0.0287053
-0.00561795
0.0154854
0.0346431
0.0519163
0.0673764
0.0811038
0.0931853
0.103715
0.112775
0.120455
0.126848
0.132031
0.136093
0.139106
0.141148
0.142278
0.142571
0.142083
0.14087
0.138982
0.136475
0.133397
0.129783
0.125679
0.121123
0.116152
0.110802
0.105105
0.0990831
0.0927697
0.086188
0.0793672
0.0723199
0.0650785
0.0576349
0.0500335
0.042207
0.0342047
0.0258903
0.017134
0.00838842
0.00287328
1.32991
1.18509
1.14829
1.10569
1.06059
1.0204
0.978889
0.936101
0.891128
0.843465
0.792675
0.738607
0.681104
0.620136
0.555781
0.488162
0.41761
0.344521
0.269479
0.193235
0.116665
0.0408676
-0.0329771
-0.103551
-0.169488
-0.229462
-0.282221
-0.32675
-0.362258
-0.388341
-0.404926
-0.41233
-0.411181
-0.402377
-0.386971
-0.366118
-0.340984
-0.312679
-0.282212
-0.250496
-0.218294
-0.186258
-0.154892
-0.124598
-0.095675
-0.0683437
-0.0427448
-0.0189571
0.0029749
0.0230506
0.0412946
0.0577591
0.0724981
0.0855904
0.097115
0.107153
0.115778
0.123081
0.129142
0.13404
0.137848
0.140639
0.14249
0.143449
0.143589
0.142973
0.141643
0.139655
0.13706
0.133898
0.130215
0.126057
0.121451
0.116435
0.111042
0.105305
0.0992546
0.0929147
0.0863122
0.0794676
0.072402
0.0651435
0.0576821
0.0500686
0.0422323
0.0342176
0.0258893
0.0170863
0.00838182
0.00289835
1.33742
1.19262
1.15591
1.11353
1.06868
1.02883
0.987802
0.945624
0.901391
0.854606
0.804942
0.752162
0.696172
0.636937
0.574531
0.509103
0.440947
0.370439
0.298186
0.224786
0.151188
0.0782801
0.00726537
-0.0607104
-0.124349
-0.182434
-0.233801
-0.277491
-0.312771
-0.339224
-0.35677
-0.365657
-0.366446
-0.359926
-0.347076
-0.32895
-0.306624
-0.281138
-0.253443
-0.2244
-0.194745
-0.165092
-0.135946
-0.107689
-0.0806364
-0.0550005
-0.0309332
-0.00852829
0.0121731
0.0311464
0.0484114
0.0640057
0.0779805
0.0904008
0.10133
0.110841
0.119011
0.125908
0.13161
0.136192
0.139727
0.142277
0.143914
0.144693
0.144677
0.143917
0.142468
0.140372