/*--------------------------------*- C++ -*----------------------------------*\
  =========                 |
  \\      /  F ield         | OpenFOAM: The Open Source CFD Toolbox
   \\    /   O peration     | Website:  https://openfoam.org
    \\  /    A nd           | Version:  11
     \\/     M anipulation  |
\*---------------------------------------------------------------------------*/
FoamFile
{
    format      ascii;
    class       volScalarField;
    location    "0.026";
    object      k;
}
// * * * * * * * * * * * * * * * * * * * * * * * * * * * * * * * * * * * * * //

dimensions      [0 2 -2 0 0 0 0];

internalField   nonuniform List<scalar> 
287084
(
0.383035
0.392865
0.396637
0.397371
0.397375
0.397361
0.397191
0.397226
0.397439
0.397436
0.397436
0.397435
0.39727
0.397306
0.397534
0.397405
0.397508
0.397622
0.397525
0.39758
0.397597
0.397555
0.39757
0.397515
0.397309
0.397315
0.397475
0.397537
0.397494
0.397235
0.397308
0.397413
0.39716
0.397239
0.397377
0.397351
0.397265
0.397294
0.397399
0.397193
0.397287
0.397356
0.397124
0.397212
0.397338
0.397095
0.397176
0.397357
0.397375
0.397327
0.397288
0.397196
0.39719
0.397301
0.397151
0.39725
0.397308
0.397283
0.397217
0.397281
0.397412
0.397192
0.397279
0.397396
0.397283
0.397271
0.397193
0.397306
0.397368
0.397337
0.397252
0.39728
0.397419
0.397414
0.397427
0.397396
0.397367
0.397242
0.397335
0.397374
0.397354
0.39735
0.397118
0.397157
0.397298
0.397108
0.397209
0.39731
0.39728
0.39719
0.38305
0.39275
0.396641
0.397465
0.397443
0.397458
0.397454
0.397468
0.397436
0.397439
0.397422
0.397242
0.397291
0.397376
0.397128
0.397214
0.397371
0.397234
0.397172
0.3974
0.397637
0.397631
0.397649
0.397585
0.397559
0.397439
0.397527
0.397561
0.397369
0.397427
0.397453
0.397223
0.39731
0.397439
0.397201
0.397266
0.397454
0.397365
0.397407
0.397423
0.397376
0.397185
0.397239
0.397427
0.397397
0.397353
0.397112
0.397175
0.397278
0.397031
0.397089
0.397284
0.397266
0.397265
0.397138
0.397262
0.397356
0.397185
0.397287
0.397358
0.397279
0.397217
0.397285
0.397366
0.397254
0.397308
0.397384
0.397344
0.397208
0.397319
0.397463
0.397411
0.397403
0.39724
0.397328
0.397453
0.397364
0.397394
0.397349
0.397282
0.397282
0.397256
0.397162
0.397183
0.397209
0.397176
0.397057
0.39717
0.397312
0.397066
0.383049
0.392743
0.396633
0.397459
0.397385
0.3975
0.397562
0.397424
0.397493
0.39759
0.397573
0.397561
0.397405
0.397309
0.397393
0.397496
0.397469
0.397468
0.397308
0.397365
0.397568
0.397517
0.397541
0.397542
0.397558
0.397558
0.397453
0.397494
0.397544
0.397346
0.397459
0.397573
0.397355
0.397464
0.397591
0.397392
0.397511
0.397623
0.397468
0.397459
0.397451
0.397462
0.397445
0.397427
0.397405
0.397356
0.397417
0.397446
0.397399
0.397325
0.39722
0.397272
0.397315
0.397232
0.397317
0.39738
0.397146
0.397235
0.397338
0.397313
0.39726
0.397298
0.397465
0.397323
0.397396
0.397419
0.397379
0.39727
0.397336
0.397395
0.39722
0.397201
0.39716
0.39726
0.397308
0.397135
0.397253
0.397436
0.397337
0.397342
0.397336
0.397359
0.39736
0.397228
0.397291
0.397353
0.397137
0.397219
0.39727
0.397048
0.383046
0.392752
0.396579
0.397531
0.397519
0.397643
0.397688
0.397598
0.397594
0.397576
0.397563
0.397523
0.397456
0.397482
0.397553
0.397581
0.397535
0.397311
0.397408
0.397555
0.397395
0.397378
0.397366
0.397377
0.397367
0.397378
0.397246
0.397334
0.397517
0.397511
0.397501
0.397247
0.397322
0.39745
0.397222
0.397298
0.397474
0.397304
0.397394
0.397506
0.397395
0.397404
0.397462
0.397454
0.397469
0.397455
0.397192
0.397228
0.397355
0.39727
0.397279
0.397244
0.397259
0.397154
0.397269
0.397377
0.397195
0.397294
0.397366
0.39734
0.397354
0.39726
0.397414
0.397475
0.397416
0.397402
0.39742
0.397444
0.397391
0.397281
0.397226
0.39734
0.397391
0.397282
0.397369
0.397439
0.39744
0.397441
0.39738
0.397369
0.397192
0.397288
0.397366
0.397334
0.397328
0.397154
0.397241
0.397292
0.397252
0.397136
0.383046
0.392748
0.396586
0.397538
0.397608
0.397571
0.39746
0.397556
0.397615
0.397487
0.397528
0.397534
0.397494
0.397429
0.397396
0.39747
0.397456
0.397254
0.397259
0.397447
0.397398
0.39754
0.397624
0.397487
0.397486
0.397484
0.397354
0.397435
0.397537
0.397297
0.397342
0.397521
0.397407
0.397505
0.397609
0.39749
0.397544
0.397556
0.397531
0.397524
0.397329
0.39737
0.397424
0.397394
0.397389
0.397235
0.39731
0.397354
0.397211
0.397313
0.397387
0.397141
0.397214
0.397375
0.397204
0.397291
0.397417
0.397314
0.397305
0.397303
0.397187
0.397283
0.397408
0.397187
0.397281
0.397375
0.397159
0.397237
0.397392
0.397214
0.397304
0.397429
0.397349
0.397341
0.39726
0.397352
0.397408
0.397299
0.39732
0.397314
0.397185
0.397279
0.39739
0.397237
0.397334
0.397377
0.397228
0.397328
0.397377
0.397112
0.38304
0.392785
0.396499
0.397199
0.397199
0.397113
0.397212
0.397371
0.397344
0.397339
0.397153
0.397276
0.397512
0.397357
0.397466
0.397545
0.397442
0.39747
0.397408
0.397371
0.397367
0.397256
0.397347
0.397448
0.397208
0.397281
0.397477
0.39745
0.397446
0.397312
0.397436
0.397586
0.397463
0.39746
0.397453
0.397278
0.397335
0.397418
0.397172
0.39726
0.39741
0.397193
0.397298
0.397442
0.397236
0.397348
0.397483
0.397345
0.397341
0.397339
0.397222
0.397293
0.397406
0.39738
0.397358
0.397108
0.397134
0.397313
0.397322
0.397316
0.39709
0.397119
0.397346
0.397352
0.397359
0.397352
0.397194
0.397183
0.397387
0.397343
0.397446
0.397488
0.397362
0.397421
0.39744
0.397256
0.397348
0.397426
0.39723
0.397312
0.397408
0.397308
0.397381
0.397409
0.397363
0.397356
0.397378
0.397401
0.397335
0.397112
0.383018
0.392837
0.396495
0.39729
0.397303
0.397164
0.397259
0.397316
0.397134
0.397124
0.397428
0.397897
0.397932
0.397917
0.397928
0.397902
0.397852
0.397817
0.397832
0.3978
0.397772
0.397732
0.397619
0.397657
0.397676
0.397622
0.397458
0.3975
0.397582
0.397556
0.397483
0.397521
0.397586
0.397358
0.397464
0.397586
0.397385
0.397482
0.397588
0.397505
0.397498
0.397405
0.397503
0.397557
0.397458
0.397462
0.397431
0.397409
0.397373
0.397377
0.397319
0.397359
0.397371
0.397142
0.397214
0.397392
0.397358
0.397316
0.397089
0.397149
0.397301
0.397127
0.397232
0.397302
0.397263
0.397147
0.397146
0.397268
0.397135
0.397229
0.397286
0.397094
0.397182
0.397337
0.397339
0.397338
0.397129
0.397249
0.397407
0.397316
0.397359
0.397368
0.397249
0.397311
0.397387
0.397365
0.39732
0.397333
0.397362
0.397102
0.383045
0.392756
0.396539
0.397662
0.397938
0.397998
0.39801
0.398014
0.398018
0.398023
0.398032
0.397995
0.397959
0.397972
0.397937
0.397855
0.397811
0.397815
0.397836
0.397802
0.397789
0.397746
0.39762
0.39765
0.397679
0.397624
0.397451
0.397482
0.397557
0.397354
0.397468
0.397587
0.397368
0.397475
0.397598
0.397396
0.397432
0.397693
0.397709
0.3977
0.397701
0.397576
0.397642
0.397682
0.397556
0.39756
0.397611
0.397628
0.397647
0.397625
0.397591
0.397519
0.397469
0.397401
0.397355
0.397366
0.397385
0.397334
0.397177
0.397194
0.39742
0.397464
0.397446
0.397437
0.397426
0.397227
0.397313
0.397383
0.397213
0.397196
0.397192
0.3972
0.397079
0.397149
0.397393
0.397403
0.397342
0.397105
0.397084
0.397358
0.397448
0.397386
0.397395
0.397372
0.397225
0.39714
0.397277
0.397364
0.397308
0.397116
0.383031
0.392813
0.396507
0.397301
0.397315
0.397333
0.397318
0.397212
0.397158
0.397398
0.397882
0.397922
0.397906
0.397921
0.397848
0.397822
0.397838
0.397827
0.397828
0.397735
0.39769
0.397666
0.397655
0.397667
0.397684
0.39767
0.397444
0.397481
0.397563
0.39736
0.397475
0.397591
0.39737
0.397478
0.397599
0.397395
0.397427
0.397681
0.397736
0.397699
0.397653
0.397651
0.397624
0.397535
0.397521
0.397521
0.397497
0.397268
0.397302
0.39735
0.397123
0.397208
0.397277
0.397054
0.397113
0.397319
0.397339
0.397335
0.397089
0.397121
0.397309
0.397333
0.397329
0.397089
0.39707
0.397348
0.39743
0.39741
0.397429
0.397393
0.397339
0.397167
0.397258
0.397488
0.397481
0.397438
0.397424
0.397433
0.397331
0.39733
0.397302
0.397376
0.397467
0.39744
0.397451
0.397428
0.397201
0.397229
0.397316
0.397069
0.383009
0.39286
0.396486
0.397098
0.397317
0.397344
0.397104
0.397149
0.397454
0.397476
0.397413
0.3972
0.397221
0.3975
0.397515
0.397452
0.39724
0.397288
0.397459
0.397344
0.397424
0.397455
0.397298
0.397336
0.397534
0.397527
0.397438
0.39752
0.397584
0.397343
0.397439
0.397581
0.397522
0.397451
0.397461
0.397475
0.397433
0.397317
0.397343
0.397373
0.397122
0.397203
0.397332
0.397101
0.397189
0.397292
0.397061
0.397139
0.397314
0.397169
0.397159
0.39715
0.397157
0.397035
0.397134
0.397261
0.397028
0.397103
0.397268
0.397249
0.397245
0.397032
0.397114
0.397301
0.397226
0.397174
0.397247
0.397309
0.397194
0.397202
0.397202
0.39708
0.397161
0.397277
0.397043
0.397118
0.397285
0.397288
0.397287
0.397057
0.397135
0.397293
0.397271
0.397267
0.397136
0.39708
0.397259
0.397392
0.397345
0.397178
0.383026
0.392801
0.396563
0.397347
0.397431
0.397391
0.397183
0.397223
0.397494
0.397481
0.397487
0.397459
0.397566
0.397623
0.397484
0.397545
0.397638
0.397624
0.397616
0.397472
0.397386
0.397475
0.397577
0.397521
0.39731
0.39736
0.397521
0.3974
0.397395
0.397342
0.397466
0.397604
0.397505
0.397499
0.39748
0.397295
0.39734
0.397409
0.397159
0.397245
0.39739
0.397172
0.397277
0.397419
0.397213
0.397311
0.39744
0.397432
0.397429
0.397199
0.397276
0.397343
0.397124
0.397198
0.397339
0.397296
0.397201
0.397148
0.397218
0.397236
0.397197
0.397023
0.397126
0.397285
0.397229
0.39722
0.397057
0.397145
0.39743
0.397373
0.397395
0.397364
0.397425
0.397446
0.397299
0.397392
0.397473
0.397388
0.397421
0.39744
0.397387
0.397433
0.397442
0.397205
0.39728
0.397378
0.397232
0.397241
0.397232
0.397094
0.383023
0.392816
0.396525
0.397415
0.397466
0.397447
0.397445
0.397361
0.397272
0.397411
0.397873
0.397967
0.397955
0.397975
0.397944
0.397864
0.39782
0.397824
0.39775
0.397763
0.397771
0.397707
0.397757
0.397782
0.397713
0.397474
0.397487
0.397565
0.397331
0.397415
0.397493
0.397247
0.397334
0.397457
0.397214
0.397302
0.397444
0.397222
0.397323
0.397459
0.397247
0.397355
0.397484
0.397344
0.397339
0.397336
0.397215
0.39729
0.397348
0.397334
0.397331
0.397216
0.397125
0.397208
0.397294
0.397214
0.397218
0.397218
0.397123
0.397175
0.397286
0.397297
0.397299
0.397233
0.39722
0.397187
0.397101
0.397234
0.397372
0.397352
0.397346
0.397108
0.397189
0.397311
0.397245
0.397235
0.39707
0.397206
0.397396
0.397257
0.397248
0.397207
0.397289
0.397316
0.397262
0.397265
0.397205
0.397298
0.397335
0.397094
0.383045
0.392755
0.396538
0.39766
0.397937
0.397996
0.398008
0.398014
0.398006
0.398011
0.398034
0.397997
0.397963
0.397978
0.397947
0.397867
0.397825
0.397825
0.397744
0.397732
0.39774
0.397733
0.397747
0.397716
0.397695
0.397642
0.397466
0.397524
0.3976
0.397391
0.3975
0.397607
0.397382
0.397378
0.397641
0.397676
0.397659
0.397655
0.397503
0.397569
0.397642
0.397575
0.397581
0.397509
0.397558
0.397582
0.397544
0.397448
0.397413
0.397426
0.397437
0.397437
0.397222
0.397302
0.397409
0.397353
0.397345
0.3972
0.397332
0.397454
0.397386
0.397378
0.397243
0.397359
0.39744
0.39723
0.397319
0.39739
0.397216
0.397197
0.397191
0.397198
0.397077
0.397147
0.397392
0.397402
0.397341
0.397104
0.397135
0.397323
0.397335
0.397329
0.397102
0.397084
0.397359
0.397455
0.397395
0.397399
0.39737
0.397125
0.383012
0.392843
0.396525
0.397176
0.397176
0.397135
0.397265
0.397431
0.397317
0.397332
0.397328
0.397206
0.397272
0.397434
0.397398
0.397395
0.397387
0.397326
0.39738
0.397619
0.397487
0.397582
0.397698
0.397629
0.397664
0.397619
0.397576
0.397581
0.397533
0.39739
0.397495
0.397609
0.397384
0.397373
0.397629
0.397678
0.397663
0.397673
0.397603
0.397584
0.397605
0.397574
0.397567
0.397593
0.397588
0.397601
0.39752
0.397238
0.397206
0.397333
0.397241
0.397337
0.397379
0.397338
0.397285
0.397159
0.397241
0.397347
0.39729
0.397288
0.397156
0.397239
0.397388
0.39725
0.397253
0.397203
0.397289
0.397321
0.397233
0.39723
0.397142
0.397235
0.397441
0.397291
0.397381
0.397511
0.397435
0.397477
0.39749
0.397448
0.397381
0.397302
0.397284
0.397216
0.397318
0.397453
0.397394
0.397392
0.397342
0.397148
0.383045
0.392755
0.396538
0.397661
0.397937
0.397996
0.398008
0.398014
0.398018
0.398025
0.398036
0.397998
0.397964
0.39798
0.397951
0.397872
0.39783
0.397837
0.397827
0.397815
0.397752
0.397756
0.397826
0.397784
0.397714
0.397482
0.397519
0.397605
0.397475
0.397482
0.397471
0.39733
0.397393
0.397471
0.397218
0.397301
0.397438
0.397212
0.397312
0.397444
0.397231
0.39734
0.397464
0.397337
0.397331
0.397251
0.397333
0.397436
0.3974
0.397396
0.397373
0.39739
0.397373
0.397345
0.397293
0.397126
0.397103
0.397445
0.397558
0.397513
0.397529
0.397549
0.397552
0.397514
0.397459
0.397256
0.397319
0.397383
0.397211
0.397194
0.39719
0.397197
0.397076
0.397145
0.397391
0.397401
0.39734
0.397103
0.397134
0.397323
0.397333
0.397327
0.397101
0.397156
0.397312
0.39725
0.397268
0.397289
0.397275
0.397054
0.383066
0.392699
0.396571
0.397469
0.397487
0.397435
0.397511
0.397559
0.397473
0.397465
0.397458
0.397396
0.397308
0.397432
0.397518
0.397464
0.397272
0.397309
0.397479
0.397462
0.39749
0.397454
0.397509
0.397521
0.3974
0.397471
0.397566
0.397322
0.397383
0.397568
0.397553
0.397517
0.397568
0.397597
0.397413
0.39739
0.397367
0.397377
0.39736
0.397185
0.397237
0.397324
0.397079
0.397149
0.397335
0.397144
0.397235
0.397391
0.397408
0.397362
0.397322
0.397319
0.397195
0.397393
0.397763
0.39775
0.397727
0.397693
0.397692
0.397712
0.397662
0.397674
0.397658
0.397627
0.397577
0.397535
0.397484
0.397332
0.397392
0.397439
0.397212
0.397301
0.397378
0.397364
0.397363
0.397279
0.397281
0.397283
0.397196
0.397272
0.397396
0.397397
0.397396
0.397206
0.397305
0.397378
0.397312
0.397317
0.397265
0.397101
0.383063
0.392718
0.396497
0.39764
0.39793
0.397995
0.398009
0.398014
0.398019
0.398026
0.398037
0.398002
0.397971
0.397934
0.397907
0.39791
0.397888
0.397809
0.397817
0.397822
0.397642
0.397687
0.397727
0.397664
0.397622
0.397638
0.397648
0.397398
0.397462
0.397552
0.397538
0.397529
0.39727
0.397335
0.397388
0.397376
0.397369
0.397118
0.397198
0.397326
0.397088
0.397177
0.397329
0.397281
0.39727
0.397074
0.397168
0.397344
0.397308
0.397304
0.397262
0.397189
0.397132
0.397439
0.397657
0.397596
0.397634
0.397647
0.39761
0.397623
0.397625
0.39755
0.397523
0.397483
0.397446
0.397477
0.397463
0.397279
0.397326
0.397366
0.397264
0.397276
0.397257
0.397223
0.397055
0.397126
0.39734
0.397314
0.397317
0.397313
0.3972
0.397265
0.39741
0.397335
0.397346
0.397354
0.397321
0.397369
0.397381
0.39712
0.383045
0.392754
0.396538
0.397662
0.397939
0.397998
0.39801
0.398015
0.39802
0.398028
0.398037
0.398048
0.398014
0.397984
0.397949
0.397923
0.397927
0.397906
0.397829
0.39779
0.397813
0.397825
0.397772
0.397778
0.397725
0.397506
0.397545
0.397628
0.397417
0.397501
0.397541
0.397306
0.397387
0.39747
0.397215
0.397296
0.397426
0.397198
0.397297
0.397427
0.397213
0.397309
0.397464
0.397353
0.397349
0.397338
0.397351
0.397343
0.397348
0.397336
0.397239
0.397198
0.397491
0.397667
0.397597
0.397635
0.397651
0.397614
0.397617
0.397593
0.397587
0.397513
0.397485
0.397481
0.397373
0.397411
0.397426
0.397328
0.397364
0.397433
0.397393
0.39733
0.397142
0.397149
0.397357
0.397396
0.397338
0.397102
0.397157
0.397314
0.397262
0.397332
0.397343
0.397283
0.397075
0.397054
0.397307
0.397371
0.397313
0.397119
0.383063
0.392718
0.396497
0.39764
0.397931
0.397995
0.398009
0.398014
0.398021
0.398031
0.397994
0.397963
0.397926
0.397899
0.397903
0.397883
0.397803
0.397811
0.397816
0.397638
0.397691
0.39774
0.397619
0.397638
0.397625
0.397452
0.397505
0.397591
0.397342
0.397429
0.397573
0.397348
0.397408
0.397508
0.397491
0.397486
0.397408
0.397285
0.397291
0.397312
0.397136
0.397235
0.397308
0.397059
0.39714
0.397242
0.397013
0.397105
0.397252
0.397193
0.397184
0.397021
0.397053
0.397464
0.39769
0.397631
0.397654
0.397723
0.397721
0.397667
0.397675
0.397609
0.39759
0.39752
0.397499
0.397433
0.397472
0.397481
0.397446
0.397458
0.397368
0.397328
0.397334
0.397343
0.397326
0.397175
0.39726
0.397379
0.397372
0.39737
0.397142
0.39723
0.397321
0.397179
0.397249
0.397274
0.397113
0.397203
0.397317
0.397066
0.383063
0.392718
0.396499
0.397652
0.397703
0.39769
0.397648
0.397636
0.397642
0.397634
0.397633
0.397451
0.397465
0.397545
0.397572
0.397574
0.39739
0.397338
0.397426
0.397392
0.397526
0.397776
0.397771
0.39771
0.39747
0.39752
0.397607
0.397361
0.397445
0.397536
0.39729
0.397376
0.397488
0.397237
0.397318
0.397449
0.397322
0.397336
0.397286
0.397144
0.397228
0.397307
0.397209
0.397233
0.397182
0.397144
0.39715
0.397092
0.397095
0.397486
0.397804
0.397873
0.39789
0.397895
0.397898
0.3979
0.397904
0.397861
0.397841
0.397849
0.397832
0.397799
0.397711
0.397715
0.39773
0.397676
0.397645
0.397616
0.397533
0.397534
0.397539
0.397433
0.397478
0.397491
0.397445
0.397316
0.397351
0.3974
0.397224
0.397204
0.397204
0.397222
0.397244
0.39715
0.39721
0.397335
0.397236
0.397227
0.397225
0.397089
0.383037
0.392779
0.396522
0.397256
0.397257
0.397256
0.397129
0.397241
0.397352
0.397117
0.397193
0.397402
0.397217
0.397318
0.397415
0.397375
0.397327
0.397354
0.397624
0.397565
0.397697
0.397782
0.39767
0.397689
0.397676
0.397506
0.397567
0.397653
0.397406
0.397482
0.397619
0.397398
0.397491
0.397607
0.397399
0.397496
0.397564
0.397477
0.397472
0.397363
0.39744
0.397469
0.397387
0.397418
0.397368
0.397238
0.397149
0.397125
0.397101
0.397178
0.397197
0.39705
0.397121
0.397265
0.397164
0.397153
0.397116
0.397118
0.396998
0.397108
0.397244
0.397014
0.397105
0.397239
0.39701
0.397005
0.39717
0.397134
0.397281
0.397385
0.397266
0.397298
0.397244
0.397203
0.397082
0.397153
0.397393
0.397401
0.39734
0.397104
0.397158
0.397314
0.397192
0.397247
0.397259
0.397106
0.397177
0.397319
0.397291
0.397207
0.383045
0.392755
0.396538
0.397663
0.39794
0.397998
0.398012
0.397972
0.397937
0.397897
0.397868
0.397871
0.397848
0.397765
0.397726
0.397752
0.397768
0.397671
0.397658
0.397726
0.39774
0.397718
0.397471
0.397446
0.397557
0.397588
0.397591
0.397383
0.39749
0.397591
0.397557
0.397458
0.397472
0.397492
0.397446
0.397436
0.397272
0.397324
0.397336
0.397258
0.397284
0.397237
0.397058
0.397119
0.397296
0.397204
0.397269
0.397287
0.397263
0.397206
0.397321
0.397735
0.39786
0.397886
0.397893
0.397897
0.3979
0.397902
0.397906
0.397891
0.397853
0.397825
0.397832
0.397788
0.397764
0.39772
0.397736
0.397768
0.397741
0.397726
0.397693
0.397621
0.397547
0.39756
0.397574
0.397507
0.397521
0.397466
0.397277
0.397315
0.397401
0.3972
0.397304
0.397395
0.397261
0.397262
0.397174
0.397247
0.397276
0.397069
0.383045
0.392755
0.396538
0.397662
0.39794
0.397998
0.39801
0.398015
0.398021
0.398028
0.398041
0.398007
0.397978
0.397943
0.397919
0.397923
0.397905
0.39783
0.397837
0.397841
0.397807
0.397745
0.397774
0.397795
0.397739
0.397553
0.397587
0.397669
0.397458
0.397545
0.397591
0.397392
0.397504
0.397613
0.3974
0.397474
0.397609
0.3975
0.397519
0.3976
0.397582
0.39755
0.397562
0.397471
0.397476
0.397478
0.397446
0.397421
0.397275
0.397165
0.397332
0.397756
0.397862
0.397885
0.397892
0.397896
0.397899
0.397902
0.397905
0.397909
0.397912
0.397909
0.397866
0.397847
0.397854
0.397841
0.397813
0.397778
0.397719
0.39769
0.397667
0.397687
0.39762
0.397593
0.397575
0.3976
0.397543
0.397517
0.39751
0.397532
0.397481
0.397297
0.397358
0.397419
0.397205
0.397295
0.397364
0.397361
0.397359
0.39711
0.383028
0.392806
0.396542
0.397251
0.397196
0.397349
0.397421
0.397181
0.397264
0.397362
0.39721
0.397148
0.397311
0.397869
0.397925
0.397872
0.397885
0.397883
0.397845
0.397806
0.39774
0.397792
0.397808
0.39759
0.397657
0.397721
0.397572
0.397556
0.39753
0.397522
0.397356
0.397433
0.397505
0.397242
0.39732
0.397443
0.397211
0.397188
0.397473
0.397533
0.397518
0.397533
0.397464
0.39743
0.39742
0.397432
0.397418
0.397434
0.397369
0.397342
0.397235
0.397242
0.39725
0.397102
0.397109
0.397468
0.397563
0.397519
0.397542
0.39751
0.397526
0.397433
0.397457
0.397511
0.397491
0.397458
0.397425
0.397449
0.397484
0.397462
0.397399
0.397194
0.397202
0.397414
0.397409
0.397415
0.397356
0.397451
0.397482
0.397266
0.397341
0.397394
0.39719
0.397256
0.397288
0.397248
0.397135
0.397197
0.397317
0.397066
0.383045
0.392755
0.396537
0.39767
0.397862
0.39784
0.397847
0.397846
0.397803
0.397777
0.397725
0.397683
0.397684
0.397662
0.397586
0.397557
0.397523
0.397559
0.39759
0.397551
0.397399
0.397467
0.397602
0.3976
0.397574
0.397598
0.397642
0.397372
0.39744
0.397545
0.397508
0.397399
0.397417
0.397438
0.397376
0.397356
0.397097
0.397166
0.397309
0.397077
0.397164
0.397256
0.39702
0.39711
0.39722
0.39698
0.39705
0.397239
0.397057
0.397119
0.397212
0.397176
0.397172
0.397021
0.397103
0.397265
0.397236
0.397198
0.397238
0.397283
0.397246
0.397141
0.397163
0.397248
0.39702
0.397111
0.397274
0.397044
0.397133
0.397258
0.397204
0.397131
0.397207
0.397328
0.397197
0.397202
0.397199
0.3972
0.397044
0.397121
0.397287
0.397282
0.39728
0.397057
0.397151
0.397272
0.397038
0.39713
0.397267
0.39703
0.383045
0.392755
0.396538
0.397663
0.39794
0.397999
0.398009
0.398015
0.398024
0.397988
0.397957
0.397919
0.397892
0.397895
0.397875
0.397797
0.397802
0.397832
0.397815
0.397849
0.397827
0.397781
0.397745
0.397682
0.397477
0.397528
0.397621
0.397375
0.397459
0.397551
0.397293
0.397365
0.39745
0.397181
0.397213
0.397412
0.39742
0.397399
0.397142
0.397199
0.397298
0.397222
0.397209
0.397036
0.397139
0.397335
0.397182
0.397278
0.397338
0.397288
0.397135
0.397172
0.397234
0.396989
0.397057
0.397252
0.397092
0.397185
0.397241
0.397046
0.397112
0.397347
0.397343
0.397318
0.397091
0.397154
0.397288
0.397051
0.397134
0.397263
0.397033
0.397121
0.397334
0.397302
0.397259
0.397061
0.39715
0.397272
0.397062
0.397149
0.397301
0.397127
0.397218
0.397276
0.397238
0.39713
0.397187
0.397312
0.397291
0.397229
0.383045
0.392755
0.396538
0.397662
0.397939
0.397998
0.398009
0.398016
0.398022
0.398029
0.398038
0.398052
0.39802
0.397993
0.39796
0.397935
0.39794
0.397921
0.397849
0.397859
0.397871
0.397774
0.397817
0.397845
0.397827
0.397817
0.39758
0.39758
0.397652
0.397657
0.397653
0.39745
0.397544
0.397624
0.397405
0.397497
0.397562
0.397455
0.397446
0.39735
0.397381
0.397452
0.397458
0.397458
0.397274
0.397301
0.397318
0.397267
0.397174
0.397147
0.397514
0.397812
0.397874
0.397887
0.397892
0.397895
0.397899
0.397902
0.397904
0.397907
0.397913
0.39787
0.397831
0.397802
0.397765
0.397783
0.397806
0.397785
0.397721
0.397691
0.397625
0.397602
0.397579
0.397545
0.397502
0.397431
0.39748
0.397493
0.397447
0.397319
0.397352
0.397396
0.397375
0.397374
0.397333
0.39732
0.397092
0.397173
0.397309
0.397063
0.383045
0.392755
0.396538
0.397662
0.39794
0.397999
0.39801
0.398016
0.398022
0.398029
0.398042
0.398008
0.397979
0.397945
0.397919
0.397923
0.397904
0.397829
0.39784
0.397846
0.397714
0.397688
0.397755
0.39777
0.397725
0.397529
0.397591
0.397668
0.397431
0.397515
0.397634
0.397409
0.397505
0.397613
0.397401
0.397474
0.397608
0.3975
0.39752
0.397601
0.397582
0.397551
0.397563
0.397472
0.397476
0.397478
0.397446
0.397421
0.397276
0.397166
0.397332
0.397756
0.397863
0.397887
0.397893
0.397896
0.397902
0.397858
0.397828
0.397832
0.397828
0.397804
0.397774
0.397708
0.397679
0.397654
0.397667
0.397638
0.39762
0.397563
0.397574
0.39758
0.397534
0.397339
0.397377
0.397442
0.397251
0.397341
0.397465
0.397408
0.397422
0.39739
0.397331
0.397292
0.397278
0.397278
0.39715
0.397233
0.397295
0.397054
0.383045
0.392755
0.396538
0.397662
0.397939
0.397998
0.398012
0.397973
0.397939
0.397897
0.397867
0.39787
0.397848
0.397764
0.397746
0.39777
0.397757
0.397778
0.397744
0.397671
0.397645
0.397588
0.397399
0.397463
0.397622
0.397596
0.39757
0.397624
0.397664
0.397594
0.397586
0.397526
0.397522
0.397478
0.39742
0.397225
0.397291
0.397368
0.397285
0.397296
0.397305
0.397287
0.397063
0.39712
0.397305
0.397181
0.397259
0.39729
0.397253
0.397218
0.397328
0.397738
0.397861
0.397887
0.397893
0.397901
0.397856
0.397822
0.397823
0.39779
0.397754
0.397771
0.397794
0.397773
0.397737
0.397609
0.397628
0.397664
0.397566
0.397604
0.397612
0.397574
0.397557
0.397401
0.397456
0.397533
0.397448
0.397445
0.397375
0.397378
0.397371
0.397245
0.397319
0.397387
0.397169
0.397268
0.397356
0.397336
0.39733
0.397081
0.383037
0.392779
0.396521
0.397259
0.39726
0.39726
0.397133
0.397141
0.397361
0.397459
0.397406
0.397217
0.397257
0.397426
0.397403
0.397402
0.397372
0.397311
0.397403
0.397673
0.397533
0.397653
0.397735
0.39757
0.397664
0.397704
0.397504
0.397579
0.397674
0.397595
0.397582
0.39743
0.39753
0.39762
0.397404
0.397473
0.397661
0.397626
0.397584
0.397593
0.39759
0.397522
0.397497
0.397508
0.397519
0.397448
0.397283
0.397152
0.397127
0.397087
0.397116
0.397113
0.397125
0.396999
0.397098
0.397231
0.397001
0.397039
0.397263
0.397319
0.397275
0.397054
0.397098
0.397375
0.397379
0.397346
0.397341
0.397185
0.397154
0.397372
0.397383
0.397517
0.397572
0.39749
0.397519
0.397461
0.397429
0.397421
0.397275
0.397312
0.397429
0.397265
0.397315
0.397491
0.397472
0.397428
0.397228
0.39727
0.397302
0.397056
0.383066
0.392699
0.396575
0.397425
0.397454
0.397435
0.3975
0.39755
0.397434
0.39745
0.397438
0.397273
0.397328
0.397443
0.39742
0.397418
0.397214
0.397329
0.397538
0.397478
0.397528
0.39755
0.397532
0.39755
0.397452
0.397503
0.397599
0.397351
0.397434
0.397585
0.397356
0.39743
0.397597
0.397562
0.397554
0.39741
0.397475
0.397503
0.397439
0.397234
0.397254
0.39731
0.397247
0.39724
0.397166
0.397136
0.39711
0.397061
0.397184
0.397379
0.397192
0.397297
0.397387
0.397185
0.397177
0.397499
0.397632
0.397601
0.397635
0.397588
0.397564
0.39749
0.397517
0.397525
0.397508
0.39751
0.397429
0.397366
0.397378
0.397435
0.397393
0.397331
0.397144
0.39715
0.397359
0.397396
0.397337
0.397101
0.397155
0.397312
0.397144
0.39721
0.397234
0.397215
0.397234
0.397149
0.397184
0.397249
0.39721
0.397033
0.383066
0.3927
0.396571
0.397467
0.397488
0.397427
0.397497
0.397556
0.397438
0.397452
0.39744
0.397273
0.397328
0.397442
0.397435
0.397435
0.397211
0.397306
0.397601
0.397594
0.397571
0.397357
0.397427
0.397544
0.397309
0.397405
0.397569
0.397338
0.397425
0.397579
0.397362
0.397455
0.397532
0.397489
0.397478
0.397282
0.397349
0.397438
0.397386
0.397216
0.39723
0.397297
0.397061
0.397145
0.397249
0.397214
0.39721
0.397086
0.397247
0.397733
0.397738
0.397675
0.397687
0.397701
0.397708
0.397678
0.397576
0.397627
0.397666
0.397613
0.397613
0.397567
0.397578
0.397564
0.397588
0.397545
0.397511
0.39753
0.397495
0.397444
0.397289
0.397339
0.397387
0.397366
0.397365
0.397326
0.397313
0.397085
0.397151
0.397319
0.397183
0.397184
0.397175
0.397187
0.397057
0.397152
0.397281
0.397249
0.39724
0.397015
0.383045
0.392755
0.396538
0.397662
0.397939
0.397998
0.39801
0.398015
0.398019
0.398027
0.398034
0.398048
0.398013
0.397984
0.397949
0.397923
0.397927
0.397907
0.397829
0.39779
0.397815
0.397826
0.397772
0.397778
0.397725
0.397514
0.397567
0.397643
0.397403
0.3975
0.397629
0.39741
0.397439
0.397587
0.397579
0.397508
0.397571
0.397635
0.397456
0.397545
0.397645
0.397593
0.397606
0.397619
0.397631
0.397553
0.397502
0.397411
0.397404
0.397355
0.397156
0.397133
0.39744
0.397654
0.39756
0.397618
0.397635
0.397575
0.397583
0.397563
0.397587
0.397514
0.397486
0.397481
0.397374
0.397403
0.397415
0.397325
0.397363
0.397433
0.397393
0.397331
0.397143
0.397149
0.397357
0.397396
0.397338
0.397102
0.397082
0.397357
0.397445
0.397384
0.397393
0.39737
0.397223
0.397138
0.397275
0.397364
0.397308
0.397117
0.383063
0.392718
0.396497
0.397641
0.397933
0.397996
0.398009
0.398014
0.39802
0.398027
0.398034
0.398047
0.398012
0.397983
0.397947
0.397921
0.397925
0.397903
0.397824
0.397831
0.397858
0.397833
0.397863
0.397841
0.397794
0.397751
0.397649
0.397623
0.39757
0.397415
0.397518
0.39762
0.397391
0.397365
0.397603
0.397658
0.397634
0.397628
0.397475
0.397548
0.397628
0.397491
0.39748
0.39747
0.397479
0.397504
0.397469
0.397476
0.397497
0.397477
0.397467
0.397238
0.397218
0.39742
0.397418
0.397517
0.397547
0.397391
0.397418
0.39767
0.397705
0.397685
0.397708
0.397684
0.397654
0.397618
0.397521
0.397522
0.397539
0.397522
0.397496
0.397505
0.397519
0.397457
0.397447
0.397281
0.397313
0.397364
0.397352
0.397349
0.397146
0.39725
0.397356
0.397149
0.397251
0.397343
0.397117
0.397203
0.39732
0.397068
0.383063
0.392718
0.396499
0.397652
0.397706
0.397654
0.397647
0.397515
0.397597
0.397645
0.397508
0.397538
0.397544
0.397422
0.397465
0.39748
0.397275
0.397286
0.39754
0.39759
0.397532
0.39734
0.397402
0.397513
0.39728
0.397377
0.397545
0.397321
0.397414
0.397518
0.397489
0.397409
0.397427
0.397553
0.397521
0.397475
0.39722
0.397278
0.397366
0.397118
0.397203
0.397351
0.397155
0.397243
0.397293
0.397268
0.397204
0.397259
0.397358
0.397281
0.39727
0.397136
0.397174
0.39757
0.397651
0.397566
0.397606
0.397678
0.397641
0.397482
0.397524
0.397611
0.397574
0.397598
0.397626
0.397661
0.397637
0.39758
0.397397
0.397453
0.397529
0.397425
0.397434
0.397426
0.397451
0.397413
0.397414
0.397267
0.397334
0.397395
0.397289
0.397231
0.397284
0.397312
0.397137
0.397249
0.397357
0.397348
0.397343
0.39708
0.383045
0.392755
0.396538
0.397661
0.397937
0.397996
0.398008
0.398013
0.398017
0.398025
0.398033
0.398043
0.398008
0.397978
0.397942
0.397915
0.397918
0.397893
0.397863
0.397815
0.397784
0.397798
0.39774
0.397541
0.397591
0.397656
0.397462
0.397547
0.397607
0.397556
0.3974
0.39743
0.397495
0.397239
0.397322
0.397457
0.397232
0.397331
0.39746
0.397246
0.397354
0.397476
0.397276
0.397381
0.397476
0.397341
0.397408
0.397492
0.397472
0.397486
0.397484
0.397431
0.397238
0.397277
0.397456
0.397439
0.397437
0.397327
0.397409
0.397525
0.397488
0.397372
0.397422
0.397482
0.397318
0.397399
0.397435
0.397326
0.397415
0.39746
0.39742
0.397406
0.39715
0.397132
0.397318
0.397386
0.39733
0.3971
0.397134
0.397324
0.397336
0.39733
0.397101
0.397156
0.397312
0.397249
0.397267
0.397288
0.397274
0.397053
0.383024
0.392833
0.396499
0.397214
0.397197
0.397197
0.397088
0.397147
0.397277
0.397211
0.397207
0.397121
0.39719
0.397646
0.397828
0.397757
0.397756
0.397766
0.397789
0.397805
0.397745
0.397752
0.397767
0.397732
0.397704
0.397477
0.397519
0.397609
0.397374
0.397473
0.39761
0.397395
0.397405
0.397564
0.397546
0.39765
0.397679
0.397504
0.397593
0.397644
0.397493
0.397476
0.397473
0.397526
0.397544
0.397483
0.39727
0.397303
0.397345
0.39714
0.397216
0.397342
0.397254
0.397265
0.39727
0.39724
0.397115
0.397187