/*--------------------------------*- C++ -*----------------------------------*\
  =========                 |
  \\      /  F ield         | OpenFOAM: The Open Source CFD Toolbox
   \\    /   O peration     | Website:  https://openfoam.org
    \\  /    A nd           | Version:  11
     \\/     M anipulation  |
\*---------------------------------------------------------------------------*/
FoamFile
{
    format      ascii;
    class       volScalarField;
    location    "0.026";
    object      nut;
}
// * * * * * * * * * * * * * * * * * * * * * * * * * * * * * * * * * * * * * //

dimensions      [0 2 -1 0 0 0 0];

internalField   nonuniform List<scalar> 
287084
(
0.000839913
0.00086227
0.000871392
0.000873525
0.000873733
0.000873818
0.000873491
0.000873573
0.000874032
0.000874005
0.000873974
0.000873928
0.000873512
0.000873533
0.000873981
0.000873633
0.0008738
0.000873987
0.000873717
0.000873783
0.00087377
0.000873634
0.00087363
0.000873487
0.000873013
0.000873022
0.000873368
0.000873489
0.000873406
0.000872893
0.000873149
0.000873462
0.000872987
0.000873249
0.000873643
0.000873685
0.000873594
0.000873758
0.000874087
0.00087373
0.000874029
0.00087427
0.000873841
0.000874111
0.000874459
0.000873985
0.00087422
0.000874669
0.00087475
0.000874683
0.000874628
0.000874449
0.000874444
0.000874692
0.000874348
0.000874536
0.000874668
0.000874628
0.000874486
0.000874614
0.000874877
0.000874388
0.000874583
0.000874826
0.00087458
0.000874561
0.000874367
0.000874623
0.000874766
0.000874688
0.000874498
0.000874551
0.000874859
0.000874837
0.000874857
0.000874778
0.000874722
0.000874459
0.00087464
0.000874732
0.000874701
0.000874672
0.000874167
0.000874261
0.00087456
0.000874144
0.000874367
0.000874588
0.000874516
0.000874289
0.00118703
0.00121749
0.00122981
0.00123258
0.00123254
0.00123262
0.00123261
0.00123264
0.00123251
0.00123248
0.00123237
0.00123174
0.00123182
0.001232
0.00123114
0.00123132
0.00123172
0.00123121
0.00123094
0.00123157
0.00123223
0.00123215
0.00123215
0.00123192
0.00123182
0.00123144
0.00123172
0.00123184
0.00123129
0.00123155
0.00123171
0.00123109
0.00123147
0.00123199
0.00123138
0.00123172
0.00123245
0.00123231
0.00123258
0.00123277
0.00123275
0.00123228
0.00123257
0.00123326
0.00123327
0.00123322
0.00123255
0.00123281
0.0012332
0.00123248
0.0012327
0.00123335
0.00123332
0.00123334
0.00123295
0.00123335
0.00123364
0.00123311
0.00123344
0.00123365
0.0012334
0.00123319
0.00123341
0.00123366
0.00123329
0.00123346
0.0012337
0.00123355
0.00123312
0.00123347
0.0012339
0.00123373
0.0012337
0.00123319
0.00123345
0.00123383
0.00123355
0.00123364
0.0012335
0.00123327
0.00123327
0.00123319
0.00123289
0.00123296
0.00123303
0.00123293
0.00123256
0.00123291
0.00123334
0.00123257
0.0011871
0.00121763
0.00122992
0.00123266
0.00123244
0.0012328
0.00123298
0.00123253
0.0012327
0.00123295
0.00123284
0.00123273
0.00123217
0.00123179
0.00123195
0.00123219
0.00123201
0.00123192
0.00123134
0.00123144
0.00123199
0.00123177
0.00123179
0.00123176
0.00123178
0.00123177
0.00123146
0.00123162
0.00123183
0.00123128
0.00123171
0.00123216
0.00123159
0.00123206
0.00123259
0.00123211
0.00123262
0.00123312
0.00123278
0.00123289
0.001233
0.00123316
0.00123322
0.00123328
0.00123331
0.00123324
0.00123351
0.00123367
0.00123358
0.0012334
0.00123312
0.00123332
0.00123348
0.00123325
0.00123354
0.00123375
0.00123303
0.00123331
0.00123363
0.00123356
0.00123339
0.00123351
0.00123402
0.00123357
0.00123379
0.00123385
0.00123372
0.00123337
0.00123356
0.00123374
0.00123318
0.00123312
0.00123298
0.00123328
0.00123342
0.00123287
0.00123323
0.00123379
0.00123348
0.00123348
0.00123346
0.00123353
0.00123352
0.00123311
0.00123329
0.00123348
0.0012328
0.00123306
0.00123321
0.00123251
0.00118712
0.00121779
0.00122993
0.00123302
0.00123296
0.00123332
0.00123343
0.0012331
0.00123304
0.00123292
0.00123282
0.00123261
0.00123232
0.00123231
0.00123244
0.00123243
0.0012322
0.00123142
0.00123163
0.001232
0.00123143
0.00123131
0.00123122
0.00123121
0.00123115
0.00123118
0.00123078
0.00123109
0.00123171
0.00123176
0.00123181
0.00123113
0.00123148
0.00123201
0.00123144
0.00123182
0.00123251
0.00123214
0.00123256
0.00123306
0.00123285
0.001233
0.0012333
0.00123339
0.00123353
0.00123358
0.00123284
0.00123302
0.00123347
0.00123326
0.00123333
0.00123326
0.00123333
0.00123303
0.0012334
0.00123376
0.0012332
0.00123351
0.00123374
0.00123366
0.00123369
0.0012334
0.00123387
0.00123405
0.00123386
0.00123381
0.00123385
0.00123392
0.00123374
0.00123339
0.0012332
0.00123355
0.0012337
0.00123335
0.00123361
0.00123382
0.00123381
0.00123381
0.00123361
0.00123357
0.00123301
0.0012333
0.00123354
0.00123344
0.00123341
0.00123287
0.00123313
0.00123329
0.00123316
0.00123278
0.00118713
0.00121783
0.00123003
0.00123311
0.00123331
0.00123315
0.00123276
0.001233
0.00123313
0.00123266
0.00123271
0.00123265
0.00123243
0.00123214
0.00123195
0.00123207
0.00123194
0.00123121
0.00123113
0.00123163
0.00123139
0.00123177
0.00123197
0.0012315
0.00123147
0.00123145
0.00123107
0.00123136
0.00123172
0.00123106
0.00123129
0.00123196
0.00123173
0.00123217
0.00123264
0.00123243
0.00123275
0.00123294
0.00123302
0.00123314
0.00123268
0.00123293
0.00123322
0.00123324
0.00123332
0.00123293
0.00123324
0.00123345
0.00123306
0.00123343
0.00123369
0.00123296
0.00123322
0.00123374
0.00123322
0.00123351
0.0012339
0.00123359
0.00123356
0.00123355
0.00123319
0.00123348
0.00123386
0.00123317
0.00123345
0.00123373
0.00123305
0.00123328
0.00123375
0.00123318
0.00123345
0.00123383
0.00123357
0.00123354
0.00123328
0.00123355
0.00123372
0.00123337
0.00123343
0.0012334
0.00123299
0.00123328
0.00123362
0.00123314
0.00123343
0.00123356
0.00123309
0.0012334
0.00123355
0.00123271
0.00118711
0.00121798
0.00122981
0.00123211
0.00123209
0.00123177
0.00123202
0.00123245
0.0012323
0.00123221
0.00123155
0.00123184
0.00123248
0.0012319
0.00123214
0.00123229
0.00123186
0.00123185
0.00123156
0.00123135
0.00123126
0.00123083
0.00123106
0.00123132
0.00123055
0.00123077
0.0012314
0.00123135
0.00123139
0.00123106
0.00123154
0.00123213
0.00123188
0.00123202
0.00123215
0.00123177
0.00123212
0.00123254
0.00123193
0.00123236
0.00123297
0.00123243
0.00123288
0.00123344
0.00123289
0.00123333
0.00123383
0.00123346
0.00123351
0.00123355
0.00123322
0.00123347
0.00123385
0.00123378
0.00123373
0.00123296
0.00123305
0.0012336
0.00123363
0.00123361
0.0012329
0.00123298
0.00123368
0.00123369
0.0012337
0.00123366
0.00123316
0.00123312
0.00123374
0.00123359
0.0012339
0.00123402
0.00123361
0.00123379
0.00123384
0.00123326
0.00123353
0.00123377
0.00123315
0.0012334
0.00123369
0.00123337
0.00123359
0.00123367
0.00123353
0.00123349
0.00123355
0.00123363
0.00123341
0.0012327
0.00118705
0.00121816
0.00122983
0.00123243
0.00123244
0.00123196
0.00123219
0.0012323
0.00123166
0.00123155
0.00123241
0.00123377
0.00123377
0.00123362
0.00123355
0.00123336
0.0012331
0.00123288
0.00123283
0.00123263
0.00123245
0.00123225
0.00123183
0.0012319
0.00123193
0.00123176
0.00123126
0.00123143
0.00123176
0.00123176
0.00123164
0.00123189
0.00123224
0.0012317
0.00123219
0.00123275
0.0012323
0.00123277
0.00123327
0.00123317
0.00123329
0.00123314
0.00123357
0.00123385
0.00123364
0.00123374
0.00123372
0.00123371
0.00123366
0.00123371
0.00123356
0.00123372
0.00123378
0.00123308
0.00123331
0.00123387
0.00123377
0.00123364
0.00123293
0.00123311
0.00123357
0.00123302
0.00123334
0.00123354
0.00123341
0.00123304
0.00123302
0.00123339
0.00123296
0.00123324
0.00123341
0.0012328
0.00123306
0.00123353
0.00123353
0.00123351
0.00123285
0.00123322
0.0012337
0.00123341
0.00123354
0.00123356
0.00123318
0.00123337
0.0012336
0.00123353
0.00123338
0.00123342
0.0012335
0.00123267
0.00118713
0.00121791
0.00122998
0.00123361
0.00123444
0.00123457
0.00123454
0.00123448
0.00123441
0.00123434
0.00123428
0.00123406
0.00123384
0.00123377
0.00123355
0.00123318
0.00123293
0.00123283
0.00123278
0.00123257
0.00123244
0.00123222
0.00123175
0.0012318
0.00123186
0.00123168
0.00123116
0.0012313
0.00123161
0.00123108
0.00123155
0.00123206
0.00123154
0.00123205
0.00123261
0.00123217
0.00123247
0.00123346
0.00123369
0.00123382
0.00123398
0.00123373
0.00123407
0.0012343
0.00123401
0.00123411
0.00123434
0.00123445
0.00123456
0.00123454
0.00123446
0.00123426
0.00123412
0.00123392
0.00123379
0.00123383
0.00123388
0.00123372
0.00123323
0.00123327
0.00123396
0.00123409
0.00123402
0.00123398
0.00123393
0.0012333
0.00123355
0.00123376
0.00123321
0.00123315
0.00123312
0.00123313
0.00123274
0.00123295
0.0012337
0.00123372
0.00123352
0.00123277
0.0012327
0.00123354
0.00123382
0.00123362
0.00123364
0.00123356
0.0012331
0.00123283
0.00123325
0.00123352
0.00123334
0.00123272
0.00118709
0.0012181
0.0012299
0.0012325
0.00123252
0.00123252
0.00123241
0.001232
0.00123175
0.0012324
0.0012338
0.00123382
0.00123366
0.00123359
0.00123324
0.00123304
0.00123297
0.00123281
0.00123269
0.0012323
0.00123205
0.00123189
0.00123178
0.00123176
0.00123178
0.00123173
0.00123105
0.00123121
0.00123154
0.00123103
0.00123151
0.00123203
0.00123152
0.00123204
0.00123262
0.00123219
0.00123248
0.00123347
0.00123382
0.00123388
0.0012339
0.00123404
0.00123408
0.00123392
0.00123398
0.00123406
0.00123405
0.0012334
0.00123355
0.00123374
0.00123306
0.00123335
0.00123357
0.00123289
0.00123307
0.00123371
0.00123377
0.00123375
0.00123298
0.00123307
0.00123364
0.0012337
0.00123367
0.00123291
0.00123284
0.00123369
0.00123393
0.00123385
0.00123389
0.00123377
0.00123358
0.00123303
0.00123331
0.00123401
0.00123398
0.00123383
0.00123378
0.0012338
0.00123347
0.00123346
0.00123336
0.00123359
0.00123386
0.00123377
0.0012338
0.00123371
0.001233
0.00123309
0.00123335
0.00123257
0.00118702
0.00121825
0.00122984
0.00123188
0.00123254
0.00123257
0.00123175
0.00123181
0.00123267
0.00123264
0.00123234
0.00123157
0.00123152
0.00123225
0.00123218
0.00123185
0.00123106
0.00123108
0.00123148
0.00123101
0.00123114
0.00123114
0.00123058
0.00123063
0.00123121
0.00123118
0.00123093
0.00123124
0.00123153
0.00123089
0.00123134
0.00123196
0.00123196
0.00123195
0.00123219
0.00123246
0.00123254
0.00123239
0.00123266
0.00123294
0.00123232
0.00123272
0.00123326
0.00123265
0.00123302
0.00123343
0.00123278
0.00123307
0.00123366
0.00123324
0.00123323
0.00123322
0.00123325
0.00123288
0.00123318
0.00123357
0.00123284
0.00123306
0.00123356
0.00123349
0.00123346
0.00123278
0.00123302
0.00123359
0.00123333
0.00123316
0.00123337
0.00123354
0.00123317
0.00123318
0.00123316
0.00123277
0.00123301
0.00123336
0.00123262
0.00123284
0.00123335
0.00123335
0.00123334
0.00123261
0.00123285
0.00123333
0.00123326
0.00123324
0.00123282
0.00123264
0.0012332
0.00123361
0.00123346
0.00123292
0.00118708
0.00121807
0.00123008
0.00123266
0.0012329
0.00123272
0.001232
0.00123204
0.00123279
0.00123265
0.00123256
0.00123235
0.00123256
0.00123261
0.00123204
0.00123209
0.00123224
0.00123206
0.00123189
0.00123132
0.00123093
0.00123111
0.00123133
0.0012311
0.0012304
0.00123055
0.00123108
0.00123076
0.00123084
0.00123081
0.00123136
0.00123198
0.00123188
0.00123209
0.00123226
0.00123192
0.00123229
0.00123273
0.00123216
0.00123262
0.00123324
0.00123272
0.00123317
0.00123373
0.00123319
0.00123357
0.00123403
0.00123406
0.00123409
0.0012334
0.00123366
0.00123388
0.0012332
0.00123343
0.00123387
0.00123372
0.00123341
0.00123324
0.00123344
0.00123348
0.00123334
0.00123278
0.00123308
0.00123355
0.00123336
0.00123331
0.00123279
0.00123305
0.00123391
0.00123372
0.00123377
0.00123366
0.00123384
0.00123389
0.00123342
0.00123369
0.00123394
0.00123366
0.00123375
0.00123381
0.00123363
0.00123377
0.00123379
0.00123305
0.00123328
0.00123357
0.00123311
0.00123314
0.0012331
0.00123266
0.00118707
0.00121811
0.00122997
0.00123288
0.00123301
0.00123289
0.00123281
0.00123247
0.0012321
0.00123242
0.00123374
0.0012339
0.00123374
0.00123366
0.00123342
0.00123303
0.00123274
0.0012326
0.00123223
0.00123213
0.00123203
0.00123171
0.00123178
0.00123179
0.00123153
0.00123078
0.00123085
0.00123117
0.00123055
0.00123096
0.00123138
0.00123083
0.00123133
0.00123195
0.00123146
0.00123198
0.00123267
0.00123221
0.00123274
0.00123337
0.00123289
0.00123338
0.00123391
0.00123359
0.00123367
0.00123374
0.00123342
0.0012337
0.00123391
0.00123389
0.0012339
0.00123355
0.00123326
0.00123352
0.00123377
0.00123351
0.00123351
0.00123349
0.00123317
0.00123331
0.00123364
0.00123365
0.00123363
0.00123341
0.00123335
0.00123322
0.00123294
0.00123333
0.00123374
0.00123366
0.00123363
0.00123287
0.00123311
0.00123347
0.00123326
0.00123321
0.00123269
0.0012331
0.00123368
0.00123324
0.0012332
0.00123307
0.00123332
0.00123339
0.00123321
0.00123322
0.00123302
0.00123331
0.00123342
0.00123265
0.00118713
0.00121793
0.00123001
0.00123364
0.00123447
0.0012346
0.00123456
0.00123449
0.00123436
0.00123427
0.00123422
0.00123397
0.00123373
0.00123363
0.00123339
0.00123298
0.00123269
0.00123253
0.00123213
0.00123194
0.00123183
0.00123168
0.00123162
0.00123145
0.00123135
0.00123118
0.00123067
0.00123092
0.00123129
0.00123079
0.00123133
0.00123189
0.00123145
0.00123171
0.0012328
0.00123318
0.00123339
0.00123362
0.00123338
0.00123379
0.0012342
0.00123416
0.00123431
0.0012342
0.00123445
0.00123459
0.00123453
0.00123428
0.0012342
0.00123425
0.0012343
0.0012343
0.00123362
0.00123386
0.00123418
0.00123398
0.00123394
0.00123347
0.00123385
0.00123421
0.00123397
0.00123392
0.00123348
0.00123382
0.00123405
0.00123337
0.00123363
0.00123383
0.00123327
0.00123319
0.00123315
0.00123316
0.00123277
0.00123297
0.00123372
0.00123373
0.00123353
0.00123279
0.00123287
0.00123345
0.00123347
0.00123345
0.00123274
0.00123268
0.00123352
0.00123382
0.00123362
0.00123363
0.00123354
0.00123275
0.00118703
0.0012182
0.00122997
0.00123214
0.00123211
0.00123193
0.00123225
0.00123267
0.00123222
0.00123214
0.00123201
0.0012315
0.00123156
0.00123191
0.00123163
0.00123146
0.00123127
0.00123091
0.00123091
0.00123149
0.00123093
0.0012311
0.00123135
0.00123105
0.00123112
0.00123097
0.00123088
0.00123099
0.00123097
0.00123071
0.00123125
0.00123186
0.00123143
0.00123169
0.00123278
0.00123322
0.00123346
0.00123375
0.00123378
0.00123393
0.00123419
0.00123425
0.00123437
0.00123456
0.00123464
0.00123475
0.00123455
0.00123371
0.00123363
0.00123404
0.00123376
0.00123405
0.00123417
0.00123402
0.00123384
0.00123343
0.00123366
0.00123396
0.00123376
0.00123372
0.00123329
0.00123352
0.00123395
0.0012335
0.00123348
0.0012333
0.00123355
0.00123362
0.00123333
0.0012333
0.00123301
0.00123328
0.00123391
0.00123342
0.00123369
0.00123408
0.00123383
0.00123395
0.00123398
0.00123384
0.00123362
0.00123337
0.00123331
0.00123308
0.0012334
0.00123381
0.00123362
0.00123361
0.00123345
0.00123283
0.00118714
0.00121793
0.00123001
0.00123364
0.00123447
0.00123459
0.00123455
0.00123447
0.00123438
0.00123428
0.00123419
0.00123393
0.00123367
0.00123356
0.0012333
0.00123288
0.00123257
0.00123241
0.0012322
0.00123199
0.00123164
0.00123151
0.00123161
0.0012314
0.00123114
0.00123042
0.00123058
0.00123094
0.00123069
0.00123091
0.00123111
0.00123095
0.00123144
0.001232
0.00123153
0.0012321
0.00123282
0.0012324
0.00123296
0.00123359
0.00123313
0.00123363
0.00123415
0.00123387
0.00123394
0.00123376
0.00123406
0.00123441
0.00123432
0.00123431
0.00123423
0.00123428
0.00123421
0.0012341
0.00123391
0.00123337
0.00123327
0.0012343
0.00123462
0.00123445
0.00123447
0.0012345
0.00123448
0.00123434
0.00123414
0.00123348
0.00123365
0.00123383
0.00123327
0.0012332
0.00123317
0.00123317
0.00123278
0.00123298
0.00123372
0.00123374
0.00123354
0.00123279
0.00123288
0.00123345
0.00123347
0.00123345
0.00123274
0.0012329
0.00123338
0.00123318
0.00123323
0.00123329
0.00123324
0.00123253
0.0011872
0.00121775
0.00123011
0.00123304
0.00123307
0.00123285
0.001233
0.00123305
0.00123268
0.00123253
0.00123237
0.00123203
0.0012316
0.00123181
0.00123191
0.00123155
0.00123077
0.00123069
0.00123103
0.0012308
0.00123072
0.00123046
0.00123051
0.00123046
0.00123003
0.00123025
0.0012306
0.00122995
0.0012303
0.00123109
0.0012313
0.00123149
0.00123197
0.00123239
0.00123216
0.00123242
0.00123266
0.00123299
0.00123319
0.00123288
0.00123324
0.00123368
0.00123306
0.00123339
0.00123405
0.00123352
0.00123384
0.00123435
0.00123442
0.00123428
0.00123415
0.00123412
0.00123371
0.0012343
0.00123542
0.00123535
0.00123524
0.00123511
0.00123507
0.00123509
0.00123491
0.00123491
0.00123483
0.0012347
0.00123452
0.00123436
0.00123418
0.00123368
0.00123385
0.00123397
0.00123324
0.0012335
0.00123372
0.00123366
0.00123364
0.00123337
0.00123336
0.00123335
0.00123307
0.0012333
0.00123367
0.00123367
0.00123366
0.00123306
0.00123336
0.00123358
0.00123337
0.00123338
0.00123321
0.00123268
0.00118719
0.00121781
0.00122988
0.00123357
0.00123444
0.00123458
0.00123454
0.00123446
0.00123436
0.00123425
0.00123415
0.00123388
0.00123362
0.00123333
0.00123306
0.00123288
0.00123261
0.00123217
0.00123199
0.00123181
0.00123108
0.00123106
0.00123106
0.00123076
0.00123059
0.00123064
0.00123073
0.00123008
0.00123045
0.00123096
0.0012312
0.00123149
0.00123103
0.00123159
0.00123211
0.00123242
0.00123273
0.00123226
0.00123278
0.00123341
0.00123288
0.00123332
0.00123393
0.00123389
0.00123394
0.00123339
0.00123372
0.00123429
0.00123418
0.00123417
0.00123402
0.00123377
0.00123357
0.00123449
0.00123514
0.00123491
0.00123499
0.001235
0.00123484
0.00123485
0.00123482
0.00123455
0.00123443
0.00123428
0.00123413
0.0012342
0.00123412
0.00123353
0.00123365
0.00123375
0.00123341
0.00123343
0.00123335
0.00123323
0.00123269
0.00123289
0.00123355
0.00123345
0.00123345
0.00123343
0.00123307
0.00123326
0.0012337
0.00123346
0.00123349
0.00123351
0.0012334
0.00123355
0.00123357
0.00123274
0.00118714
0.00121792
0.00123
0.00123364
0.00123447
0.00123458
0.00123454
0.00123445
0.00123435
0.00123424
0.00123412
0.001234
0.00123372
0.00123345
0.00123314
0.00123286
0.00123266
0.00123239
0.00123194
0.00123162
0.0012315
0.00123137
0.00123107
0.00123099
0.00123078
0.00123011
0.0012303
0.00123068
0.00123023
0.00123073
0.00123116
0.00123077
0.00123139
0.00123202
0.00123161
0.00123223
0.00123297
0.00123258
0.00123317
0.00123382
0.00123336
0.00123383
0.00123445
0.00123421
0.00123428
0.0012343
0.00123437
0.00123436
0.00123438
0.00123433
0.00123401
0.00123386
0.00123474
0.00123525
0.00123499
0.00123507
0.00123508
0.00123492
0.00123489
0.00123478
0.00123472
0.00123445
0.00123433
0.00123428
0.00123392
0.001234
0.00123402
0.00123369
0.00123377
0.00123396
0.00123382
0.0012336
0.001233
0.001233
0.00123363
0.00123374
0.00123354
0.0012328
0.00123296
0.00123343
0.00123326
0.00123347
0.00123349
0.0012333
0.00123264
0.00123257
0.00123335
0.00123354
0.00123335
0.00123273
0.00118719
0.00121781
0.00122988
0.00123357
0.00123444
0.00123457
0.00123452
0.00123443
0.00123434
0.00123423
0.00123397
0.00123371
0.00123342
0.00123314
0.00123296
0.00123268
0.00123222
0.00123202
0.00123182
0.00123105
0.00123102
0.001231
0.00123049
0.00123044
0.00123036
0.00122983
0.00123007
0.00123047
0.00122991
0.00123044
0.00123121
0.00123087
0.00123144
0.00123215
0.0012325
0.00123286
0.00123297
0.00123292
0.00123323
0.00123354
0.0012332
0.00123369
0.00123405
0.00123338
0.00123371
0.00123408
0.00123339
0.0012337
0.00123415
0.00123395
0.0012339
0.00123336
0.00123342
0.00123466
0.00123532
0.00123509
0.00123512
0.00123529
0.00123524
0.00123503
0.00123501
0.00123477
0.00123467
0.00123442
0.00123432
0.00123408
0.00123417
0.00123417
0.00123404
0.00123405
0.00123375
0.0012336
0.0012336
0.00123361
0.00123354
0.00123305
0.0012333
0.00123366
0.00123363
0.00123361
0.00123289
0.00123315
0.00123343
0.00123298
0.00123319
0.00123326
0.00123276
0.00123303
0.00123338
0.00123258
0.00118719
0.00121781
0.00122988
0.0012336
0.00123373
0.00123362
0.0012334
0.00123325
0.00123315
0.00123299
0.00123283
0.0012321
0.00123196
0.00123201
0.00123188
0.00123167
0.00123088
0.00123049
0.00123054
0.00123021
0.00123042
0.00123102
0.00123086
0.00123057
0.00122977
0.00122994
0.00123029
0.00122968
0.00123016
0.00123072
0.0012303
0.00123094
0.00123169
0.00123133
0.00123199
0.00123279
0.00123276
0.00123314
0.00123328
0.0012331
0.00123357
0.00123399
0.00123382
0.001234
0.00123391
0.00123384
0.00123389
0.00123372
0.00123372
0.00123491
0.00123587
0.00123605
0.00123607
0.00123604
0.001236
0.00123596
0.00123593
0.00123574
0.00123564
0.00123561
0.00123552
0.00123538
0.00123506
0.00123504
0.00123505
0.00123485
0.00123472
0.0012346
0.00123432
0.00123429
0.00123428
0.00123393
0.00123405
0.00123407
0.00123391
0.0012335
0.00123359
0.00123373
0.00123317
0.00123309
0.00123308
0.00123313
0.00123319
0.00123289
0.00123307
0.00123345
0.00123314
0.00123311
0.00123309
0.00123265
0.00118711
0.001218
0.00122995
0.00123237
0.00123234
0.00123227
0.00123178
0.00123202
0.00123224
0.00123137
0.00123145
0.00123192
0.00123116
0.00123128
0.00123136
0.00123102
0.00123064
0.00123048
0.00123109
0.00123068
0.00123087
0.00123095
0.00123045
0.00123041
0.00123032
0.00122981
0.00123008
0.00123051
0.00122997
0.00123051
0.00123128
0.00123099
0.0012317
0.00123249
0.00123226
0.00123297
0.00123356
0.00123363
0.00123392
0.00123384
0.0012343
0.00123456
0.00123444
0.00123464
0.00123456
0.0012342
0.00123394
0.00123387
0.00123379
0.001234
0.00123403
0.00123353
0.00123371
0.00123411
0.00123375
0.00123367
0.0012335
0.00123346
0.00123304
0.00123333
0.00123371
0.00123295
0.00123319
0.00123357
0.00123282
0.00123277
0.00123325
0.00123311
0.00123354
0.00123383
0.00123344
0.00123352
0.00123333
0.00123318
0.00123279
0.00123299
0.00123372
0.00123373
0.00123353
0.00123279
0.00123294
0.00123342
0.00123303
0.00123319
0.00123322
0.00123274
0.00123296
0.00123339
0.0012333
0.00123302
0.00118714
0.00121792
0.00123
0.00123363
0.00123446
0.00123456
0.00123451
0.00123428
0.00123405
0.00123378
0.00123353
0.00123336
0.0012331
0.00123263
0.0012323
0.00123214
0.00123196
0.00123142
0.00123114
0.00123111
0.00123094
0.00123068
0.00122976
0.00122958
0.00122987
0.00122999
0.00123009
0.00122961
0.00123018
0.0012308
0.00123107
0.00123117
0.00123164
0.00123214
0.00123243
0.00123282
0.00123269
0.0012332
0.00123355
0.00123357
0.00123387
0.00123389
0.00123347
0.00123376
0.00123438
0.00123414
0.00123436
0.00123442
0.00123433
0.00123413
0.00123445
0.0012357
0.00123604
0.00123607
0.00123604
0.001236
0.00123596
0.00123591
0.00123587
0.00123578
0.00123561
0.00123548
0.00123546
0.00123528
0.00123517
0.001235
0.00123502
0.00123509
0.00123497
0.0012349
0.00123477
0.00123452
0.00123427
0.00123429
0.00123432
0.00123409
0.00123412
0.00123394
0.00123334
0.00123344
0.0012337
0.00123306
0.00123338
0.00123366
0.00123323
0.00123323
0.00123295
0.00123317
0.00123326
0.00123259
0.00118713
0.00121792
0.00123
0.00123363
0.00123446
0.00123456
0.0012345
0.00123441
0.0012343
0.00123418
0.00123405
0.00123377
0.00123349
0.00123317
0.00123287
0.00123265
0.00123235
0.00123187
0.00123165
0.00123142
0.0012311
0.00123071
0.00123064
0.0012306
0.00123039
0.00122983
0.00123003
0.00123045
0.00123005
0.00123064
0.00123115
0.00123095
0.00123174
0.00123253
0.00123231
0.00123296
0.00123377
0.00123379
0.00123415
0.00123467
0.00123483
0.00123491
0.00123508
0.0012349
0.00123498
0.00123503
0.00123495
0.00123487
0.0012344
0.00123403
0.00123451
0.00123579
0.00123607
0.00123609
0.00123606
0.00123601
0.00123597
0.00123593
0.00123588
0.00123584
0.00123581
0.00123575
0.00123557
0.00123548
0.00123546
0.00123538
0.00123526
0.00123512
0.00123491
0.00123479
0.00123469
0.00123473
0.0012345
0.0012344
0.00123432
0.00123438
0.00123419
0.0012341
0.00123406
0.00123412
0.00123395
0.00123337
0.00123355
0.00123373
0.00123306
0.00123333
0.00123354
0.00123353
0.00123351
0.00123272
0.00118708
0.00121808
0.00123001
0.00123235
0.00123215
0.00123255
0.00123268
0.00123182
0.00123195
0.0012321
0.00123147
0.00123109
0.0012314
0.00123292
0.00123287
0.00123247
0.00123227
0.00123201
0.00123164
0.00123128
0.00123085
0.00123081
0.0012307
0.00122992
0.00123009
0.00123031
0.00122994
0.00123006
0.00123024
0.00123054
0.00123041
0.00123107
0.00123174
0.00123138
0.00123207
0.00123288
0.00123256
0.00123284
0.00123404
0.00123449
0.00123466
0.00123489
0.00123481
0.0012348
0.00123484
0.00123492
0.00123489
0.00123494
0.00123472
0.0012346
0.00123423
0.00123421
0.00123418
0.00123367
0.00123363
0.00123469
0.00123494
0.00123474
0.00123476
0.00123461
0.00123462
0.00123428
0.00123431
0.00123444
0.00123433
0.0012342
0.00123406
0.0012341
0.00123418
0.00123408
0.00123386
0.0012332
0.0012332
0.00123384
0.00123381
0.00123381
0.00123361
0.00123389
0.00123397
0.00123329
0.00123351
0.00123367
0.00123303
0.00123322
0.00123331
0.00123318
0.00123282
0.00123301
0.00123338
0.00123258
0.00118714
0.00121792
0.00123
0.00123365
0.00123421
0.00123407
0.001234
0.00123388
0.00123362
0.00123339
0.00123306
0.00123275
0.00123256
0.00123228
0.00123181
0.00123149
0.00123113
0.00123099
0.00123084
0.00123047
0.00122978
0.00122979
0.00123005
0.00122994
0.00122981
0.00122991
0.00123014
0.00122949
0.00122995
0.00123061
0.00123088
0.00123096
0.00123147
0.00123199
0.00123225
0.00123262
0.00123221
0.00123278
0.00123354
0.00123309
0.00123358
0.00123404
0.00123344
0.00123382
0.00123423
0.00123352
0.00123376
0.00123434
0.00123375
0.00123392
0.00123417
0.00123401
0.00123395
0.00123342
0.00123362
0.00123407
0.00123393
0.00123375
0.00123382
0.00123391
0.00123375
0.00123337
0.0012334
0.00123362
0.00123288
0.00123312
0.00123359
0.00123285
0.00123309
0.00123345
0.00123326
0.00123301
0.00123322
0.00123358
0.00123315
0.00123315
0.00123312
0.00123311
0.00123261
0.00123284
0.00123335
0.00123332
0.00123331
0.00123261
0.00123289
0.00123326
0.00123253
0.00123281
0.00123323
0.00123247
0.00118714
0.00121792
0.00123
0.00123363
0.00123445
0.00123456
0.0012345
0.0012344
0.0012343
0.00123404
0.00123378
0.00123348
0.0012332
0.001233
0.00123271
0.00123223
0.001232
0.00123184
0.00123153
0.0012314
0.0012311
0.00123076
0.0012305
0.00123019
0.00122951
0.0012297
0.00123008
0.0012295
0.00123001
0.00123063
0.00123021
0.00123086
0.00123157
0.0012312
0.00123175
0.00123279
0.00123322
0.00123351
0.00123302
0.00123346
0.00123399
0.00123393
0.00123403
0.00123359
0.00123398
0.00123463
0.00123417
0.00123446
0.00123463
0.00123445
0.00123393
0.001234
0.00123414
0.00123332
0.00123348
0.00123403
0.00123348
0.00123371
0.00123383
0.00123317
0.00123333
0.00123402
0.00123396
0.00123384
0.00123309
0.00123325
0.00123364
0.00123287
0.00123309
0.00123347
0.00123273
0.00123298
0.00123362
0.0012335
0.00123335
0.00123271
0.00123297
0.00123334
0.00123267
0.00123293
0.00123339
0.00123284
0.00123311
0.00123329
0.00123316
0.00123282
0.00123299
0.00123338
0.0012333
0.00123309
0.00118713
0.00121793
0.00123
0.00123363
0.00123445
0.00123456
0.0012345
0.00123441
0.0012343
0.00123417
0.00123404
0.0012339
0.00123361
0.00123331
0.00123298
0.00123267
0.00123243
0.00123213
0.00123165
0.00123144
0.00123126
0.00123076
0.00123073
0.00123071
0.00123062
0.00123061
0.00122997
0.00123014
0.00123062
0.00123096
0.00123133
0.00123112
0.00123186
0.00123257
0.00123234
0.00123305
0.00123365
0.00123367
0.00123395
0.00123392
0.00123424
0.00123463
0.00123479
0.00123489
0.00123438
0.00123451
0.00123458
0.00123442
0.00123411
0.00123399
0.0012351
0.00123598
0.00123612
0.00123611
0.00123607
0.00123602
0.00123598
0.00123593
0.00123589
0.00123585
0.00123582
0.00123564
0.00123547
0.00123534
0.00123519
0.00123521
0.00123524
0.00123515
0.00123492
0.0012348
0.00123457
0.00123447
0.00123438
0.00123425
0.0012341
0.00123386
0.001234
0.00123402
0.00123387
0.00123346
0.00123355
0.00123368
0.0012336
0.00123359
0.00123346
0.00123341
0.0012327
0.00123295
0.00123336
0.00123257
0.00118713
0.00121792
0.00123
0.00123363
0.00123446
0.00123457
0.0012345
0.00123442
0.00123431
0.00123418
0.00123405
0.00123378
0.00123349
0.00123317
0.00123287
0.00123265
0.00123235
0.00123187
0.00123165
0.00123143
0.00123081
0.00123053
0.00123058
0.00123052
0.00123034
0.00122975
0.00123004
0.00123045
0.00122997
0.00123054
0.00123129
0.001231
0.00123174
0.00123253
0.00123231
0.00123296
0.00123377
0.00123379
0.00123416
0.00123467
0.00123483
0.00123491
0.00123508
0.0012349
0.00123498
0.00123503
0.00123495
0.00123487
0.0012344
0.00123403
0.00123451
0.00123579
0.00123607
0.00123609
0.00123606
0.00123601
0.00123598
0.00123579
0.00123564
0.0012356
0.00123554
0.00123543
0.00123529
0.00123504
0.00123491
0.0012348
0.00123481
0.00123468
0.0012346
0.00123439
0.0012344
0.0012344
0.00123424
0.00123361
0.00123371
0.00123389
0.00123328
0.00123355
0.00123392
0.00123373
0.00123377
0.00123366
0.00123346
0.00123334
0.00123329
0.00123328
0.00123287
0.00123313
0.00123331
0.00123254
0.00118713
0.00121792
0.00123
0.00123363
0.00123446
0.00123457
0.00123451
0.00123428
0.00123405
0.00123378
0.00123353
0.00123336
0.0012331
0.00123263
0.00123236
0.00123221
0.00123192
0.00123175
0.0012314
0.00123094
0.00123065
0.00123028
0.00122954
0.00122963
0.00123008
0.00123001
0.00123002
0.00123036
0.00123072
0.00123082
0.00123116
0.00123138
0.00123179
0.0012321
0.00123235
0.00123216
0.00123275
0.00123334
0.00123339
0.00123369
0.00123393
0.00123405
0.00123349
0.00123377
0.00123441
0.00123407
0.00123433
0.00123443
0.0012343
0.00123417
0.00123447
0.00123571
0.00123604
0.00123607
0.00123604
0.00123601
0.00123582
0.00123566
0.00123562
0.00123546
0.00123531
0.00123532
0.00123534
0.00123524
0.00123509
0.00123466
0.00123468
0.00123476
0.00123443
0.00123452
0.00123452
0.00123438
0.0012343
0.0012338
0.00123395
0.00123417
0.00123389
0.00123387
0.00123364
0.00123364
0.00123361
0.00123321
0.00123343
0.00123363
0.00123294
0.00123324
0.00123351
0.00123345
0.00123342
0.00123262
0.00118711
0.001218
0.00122995
0.00123238
0.00123235
0.00123228
0.00123179
0.00123171
0.00123227
0.00123243
0.00123211
0.00123135
0.00123129
0.00123161
0.00123133
0.0012311
0.00123078
0.00123035
0.0012304
0.00123101
0.00123036
0.00123055
0.00123065
0.00123004
0.00123028
0.00123042
0.00122989
0.00123028
0.00123081
0.00123086
0.00123117
0.00123109
0.00123182
0.00123253
0.00123228
0.0012329
0.00123386
0.0012341
0.00123427
0.00123455
0.00123476
0.00123472
0.00123478
0.00123492
0.00123502
0.00123485
0.00123436
0.00123396
0.00123387
0.00123372
0.00123378
0.00123373
0.00123373
0.00123329
0.00123355
0.00123391
0.00123314
0.00123321
0.00123386
0.00123399
0.00123381
0.00123307
0.00123317
0.00123399
0.00123397
0.00123383
0.00123378
0.00123327
0.00123315
0.00123379
0.0012338
0.0012342
0.00123435
0.00123407
0.00123414