/*--------------------------------*- C++ -*----------------------------------*\
  =========                 |
  \\      /  F ield         | OpenFOAM: The Open Source CFD Toolbox
   \\    /   O peration     | Website:  https://openfoam.org
    \\  /    A nd           | Version:  11
     \\/     M anipulation  |
\*---------------------------------------------------------------------------*/
FoamFile
{
    format      ascii;
    class       volScalarField;
    location    "0.026";
    object      p;
}
// * * * * * * * * * * * * * * * * * * * * * * * * * * * * * * * * * * * * * //

dimensions      [0 2 -2 0 0 0 0];

internalField   nonuniform List<scalar> 
287084
(
1.8325
1.56111
1.48877
1.42222
1.35577
1.30463
1.25704
1.21199
1.17009
1.12917
1.08707
1.04417
1.00094
0.957105
0.912619
0.867353
0.821451
0.775006
0.728099
0.681074
0.634027
0.587297
0.541234
0.495776
0.451451
0.407952
0.366061
0.330803
0.301918
0.273341
0.243207
0.214457
0.190605
0.170235
0.153196
0.139109
0.127894
0.119248
0.11297
0.108841
0.106537
0.105836
0.106488
0.108248
0.110842
0.114087
0.117791
0.121724
0.125701
0.129619
0.133156
0.136028
0.139199
0.141449
0.141298
0.144039
0.150301
0.154321
0.155412
0.153971
0.153329
0.15354
0.153213
0.154187
0.153589
0.149029
0.147423
0.146012
0.139783
0.135493
0.13062
0.124721
0.120626
0.115851
0.108713
0.103079
0.0985719
0.0895799
0.083787
0.079599
0.0690836
0.0625369
0.057938
0.0477852
0.0409663
0.0356363
0.0265487
0.0176509
0.00868657
0.00230058
1.69948
1.51457
1.46077
1.4064
1.34671
1.29876
1.25348
1.21001
1.16816
1.12653
1.08447
1.04203
0.998918
0.955139
0.910518
0.86513
0.819094
0.772398
0.725337
0.678031
0.630758
0.58384
0.537514
0.492035
0.447753
0.404703
0.363824
0.328974
0.296915
0.265328
0.235373
0.208557
0.185295
0.165288
0.148488
0.134664
0.123654
0.115328
0.109265
0.105393
0.103352
0.102905
0.103804
0.105807
0.108632
0.112101
0.116012
0.120158
0.124371
0.128525
0.132473
0.135947
0.139029
0.140726
0.142355
0.14642
0.150129
0.15266
0.154236
0.154743
0.154902
0.155079
0.154809
0.152763
0.151708
0.150013
0.146007
0.143328
0.140616
0.135883
0.130063
0.12543
0.121193
0.114915
0.108845
0.103407
0.0981108
0.0915771
0.0838344
0.0779115
0.0712613
0.0632615
0.0567424
0.0497831
0.042187
0.0347007
0.0261782
0.0173203
0.00857371
0.00223956
1.66962
1.5054
1.45205
1.39762
1.34054
1.29337
1.24887
1.20603
1.16432
1.12276
1.08089
1.03839
0.995236
0.951252
0.906434
0.860752
0.814318
0.767246
0.719693
0.671986
0.624233
0.576822
0.530086
0.484193
0.439719
0.396878
0.35638
0.319463
0.285563
0.253971
0.224691
0.198374
0.175357
0.155704
0.139197
0.125803
0.115254
0.1073
0.101789
0.0984176
0.0969158
0.0969931
0.0984036
0.10088
0.104182
0.108093
0.112415
0.116952
0.121539
0.126038
0.130288
0.134152
0.137693
0.140883
0.143819
0.146519
0.149032
0.15189
0.15409
0.154655
0.154601
0.15443
0.153794
0.152846
0.151347
0.148915
0.14608
0.143093
0.13942
0.135076
0.13037
0.12547
0.120409
0.114891
0.10929
0.103568
0.0976413
0.0911086
0.084362
0.0778345
0.0707756
0.0634998
0.0565531
0.049257
0.0416898
0.0339505
0.0257523
0.0170898
0.00816954
0.00190359
1.62594
1.47574
1.42795
1.37858
1.32727
1.28334
1.24099
1.19948
1.15841
1.11724
1.0755
1.03309
0.989758
0.945556
0.900362
0.854198
0.807298
0.75959
0.711397
0.662956
0.614428
0.56634
0.51886
0.472383
0.427391
0.384148
0.343261
0.305364
0.270529
0.238319
0.209125
0.18311
0.160534
0.141292
0.125339
0.112548
0.102638
0.0955077
0.0907355
0.0881412
0.0874033
0.0882574
0.0904044
0.0935988
0.0975853
0.102144
0.107072
0.11219
0.117328
0.122352
0.127139
0.131609
0.135733
0.139416
0.142621
0.145529
0.148265
0.150736
0.152559
0.153483
0.153863
0.153774
0.153193
0.152034
0.150441
0.148311
0.14553
0.142435
0.138904
0.134781
0.130248
0.125463
0.120427
0.115019
0.109397
0.103558
0.0974734
0.0910481
0.084378
0.0776614
0.070694
0.0635443
0.0563751
0.0489874
0.0413981
0.0336054
0.0255335
0.0169879
0.00823011
0.00209271
1.60205
1.45852
1.41323
1.36533
1.31632
1.27387
1.23262
1.19196
1.15141
1.11044
1.06881
1.02626
0.98271
0.938133
0.892393
0.845638
0.797941
0.749413
0.700396
0.650944
0.601547
0.552403
0.503921
0.456534
0.410622
0.366702
0.325134
0.286421
0.250806
0.21827
0.189094
0.163291
0.141077
0.122384
0.107111
0.0951018
0.0861061
0.0798752
0.076126
0.0745728
0.0748772
0.0767506
0.0798955
0.0840376
0.0889228
0.094337
0.100061
0.105921
0.111758
0.117444
0.12285
0.127909
0.132547
0.136735
0.140467
0.143806
0.146725
0.149154
0.15096
0.152121
0.152708
0.152761
0.152235
0.15116
0.149598
0.147487
0.144853
0.141813
0.13831
0.134326
0.129946
0.125238
0.120219
0.114871
0.109277
0.103429
0.0973442
0.0909492
0.0843472
0.0775947
0.0706386
0.063505
0.056262
0.0488371
0.0412452
0.0334481
0.0253767
0.0168911
0.00818668
0.00205381
1.57991
1.43938
1.39628
1.35041
1.30381
1.263
1.22304
1.18319
1.14311
1.1024
1.06077
1.01805
0.974162
0.92901
0.882671
0.835068
0.786522
0.736954
0.686797
0.636182
0.585483
0.535093
0.485406
0.436816
0.389805
0.344828
0.302377
0.26277
0.226527
0.19359
0.164373
0.138784
0.117041
0.0990208
0.0845687
0.0736035
0.0657278
0.0607519
0.0582864
0.0580069
0.0595845
0.0627108
0.0670559
0.072356
0.0783396
0.0847898
0.0914826
0.0982441
0.104925
0.111381
0.117526
0.123257
0.128525
0.133287
0.137523
0.141236
0.14443
0.147061
0.149069
0.150453
0.15123
0.151434
0.151051
0.150104
0.14863
0.146628
0.144112
0.141141
0.137712
0.133828
0.129551
0.124917
0.119947
0.11466
0.109094
0.10326
0.0971666
0.0908212
0.084252
0.0775018
0.0705633
0.0634493
0.0561883
0.0487405
0.0411579
0.0334175
0.0254183
0.0169505
0.00818633
0.00201489
1.56202
1.4232
1.38151
1.33685
1.2917
1.25205
1.21291
1.17373
1.13399
1.09335
1.05167
1.00862
0.964264
0.918449
0.871243
0.82269
0.773015
0.722171
0.670729
0.618612
0.56654
0.514591
0.463336
0.413323
0.364909
0.318743
0.27513
0.23474
0.197754
0.164488
0.135202
0.109873
0.0886958
0.0714485
0.0580478
0.0482715
0.0417421
0.0382293
0.0372601
0.0385348
0.041655
0.0462747
0.052069
0.0587322
0.0659939
0.0736367
0.0814556
0.0892696
0.0969209
0.10428
0.111243
0.117742
0.123696
0.12908
0.133867
0.138046
0.14161
0.144546
0.146831
0.148479
0.149488
0.149888
0.149679
0.148885
0.147543
0.145657
0.143266
0.140386
0.137046
0.133269
0.129077
0.12452
0.119614
0.114385
0.108855
0.103046
0.0969864
0.0906641
0.084128
0.0773854
0.0704525
0.0633399
0.0560801
0.048657
0.0410654
0.0332873
0.0252872
0.0168366
0.00816517
0.00208894
1.54629
1.40832
1.36754
1.32387
1.27973
1.24085
1.20237
1.16372
1.12414
1.08351
1.04151
0.998089
0.95308
0.906464
0.858335
0.808602
0.757646
0.70537
0.652319
0.598595
0.544686
0.491014
0.438027
0.386321
0.336303
0.288654
0.243859
0.202382
0.164668
0.131035
0.10168
0.0766853
0.0561298
0.039863
0.0277021
0.0193573
0.0144408
0.0125965
0.0133881
0.0164313
0.0213089
0.0276538
0.0350973
0.0433329
0.0520761
0.0610892
0.0701647
0.0791421
0.0878778
0.0962355
0.104119
0.111446
0.118165
0.124232
0.129623
0.134322
0.138339
0.141662
0.144289
0.146238
0.14751
0.148132
0.14813
0.147519
0.146331
0.144596
0.142328
0.139563
0.136326
0.132642
0.128547
0.124062
0.119225
0.114054
0.108569
0.102804
0.0967648
0.0904833
0.0839829
0.0772675
0.0703658
0.0632947
0.0560505
0.0486363
0.0410934
0.0333407
0.0253581
0.0169272
0.00817643
0.0020505
1.53232
1.39479
1.35459
1.3115
1.26809
1.22986
1.19178
1.15326
1.11375
1.07299
1.03071
0.986668
0.940931
0.893355
0.844004
0.793017
0.740494
0.68661
0.631761
0.576133
0.520309
0.464626
0.409592
0.355957
0.304115
0.254833
0.208629
0.166059
0.127597
0.0935139
0.0642071
0.039581
0.0198327
0.0046349
-0.00616483
-0.0128952
-0.0160287
-0.015958
-0.0131734
-0.0081252
-0.00125722
0.00701584
0.0163215
0.0263255
0.0367219
0.0472813
0.0577688
0.0680342
0.0779444
0.0873844
0.0962632
0.104503
0.112039
0.118842
0.124897
0.130175
0.134689
0.138447
0.141458
0.143746
0.145317
0.146205
0.146429
0.146022
0.145021
0.143437
0.141314
0.138671
0.13555
0.131966
0.127961
0.123561
0.118793
0.113683
0.108252
0.102529
0.0965283
0.0902837
0.083796
0.0771057
0.0701898
0.0630988
0.0559304
0.0485044
0.0409391
0.0333063
0.0253525
0.0169486
0.0081784
0.00195772
1.5196
1.38229
1.3425
1.29986
1.25685
1.21899
1.18112
1.14266
1.10305
1.062
1.01915
0.97449
0.927817
0.879145
0.828579
0.77604
0.721893
0.666173
0.609307
0.55163
0.493526
0.435625
0.378395
0.322581
0.268774
0.217654
0.169944
0.126145
0.0867972
0.0523564
0.0229981
-0.00112257
-0.0200342
-0.0339533
-0.0431242
-0.0480786
-0.0492002
-0.0470094
-0.0420303
-0.0347841
-0.0257282
-0.0153289
-0.00399131
0.00793609
0.0201516
0.0323825
0.0444244
0.0561145
0.0672932
0.0778856
0.0878154
0.0970118
0.105422
0.113009
0.119765
0.125664
0.13073
0.134974
0.138407
0.141059
0.142951
0.144125
0.144607
0.144421
0.143606
0.142201
0.14023
0.137724
0.134717
0.131247
0.127335
0.123017
0.118325
0.113277
0.107899
0.102235
0.096275
0.0900647
0.0836215
0.0769588
0.0701033
0.063071
0.0558568
0.0484624
0.0409632
0.0332509
0.0252234
0.0168238
0.00819129
0.00210281
1.50797
1.37081
1.33118
1.28879
1.246
1.20833
1.1706
1.13203
1.09216
1.05066
1.00725
0.961743
0.914032
0.864184
0.812102
0.757967
0.701966
0.644216
0.585224
0.525168
0.464761
0.404398
0.344723
0.286609
0.23052
0.177521
0.128054
0.08301
0.0427803
0.00792471
-0.0213319
-0.0449102
-0.062775
-0.0753488
-0.0828465
-0.085785
-0.0847195
-0.0801978
-0.0728362
-0.0631733
-0.0517651
-0.0390815
-0.0255485
-0.0115548
0.0025875
0.0166214
0.030315
0.0435065
0.0560595
0.0678799
0.0789101
0.0891066
0.09843
0.10684
0.114329
0.120886
0.12653
0.131286
0.135165
0.138218
0.140458
0.141936
0.142686
0.142731
0.14213
0.140899
0.139092
0.136734
0.133857
0.130489
0.12668
0.122449
0.117827
0.112852
0.107533
0.101914
0.0960023
0.0898317
0.0834193
0.0767853
0.0699481
0.062922
0.0557234
0.0483846
0.0408633
0.033109
0.0251419
0.0167835
0.0081885
0.00212986
1.49725
1.36011
1.32064
1.27832
1.23565
1.19798
1.16012
1.12141
1.08116
1.03913
0.994989
0.948516
0.899758
0.848509
0.794915
0.739038
0.681033
0.621145
0.559788
0.497305
0.434238
0.371285
0.308995
0.248364
0.189997
0.134836
0.0837016
0.0372221
-0.00390466
-0.039174
-0.0683747
-0.0912701
-0.1081
-0.119064
-0.124625
-0.125424
-0.121988
-0.115001
-0.105089
-0.0928946
-0.0789822
-0.0638731
-0.0480473
-0.031874
-0.0156952
0.000215449
0.0156419
0.0304204
0.0444105
0.0575257
0.0697054
0.0809211
0.0911854
0.100437
0.108684
0.115918
0.122171
0.127453
0.131807
0.135264
0.137867
0.139663
0.140688
0.140983
0.140597
0.139559
0.137921
0.135705
0.132954
0.129711
0.125996
0.121858
0.117322
0.112409
0.107151
0.101582
0.0957191
0.0895916
0.0832135
0.0766074
0.0697927
0.0627934
0.0555602
0.0482134
0.0408855
0.0331949
0.0251584
0.0168008
0.00814761
0.00208498
1.48736
1.35021
1.31072
1.26847
1.22578
1.18801
1.14999
1.11087
1.07025
1.02755
0.982609
0.935191
0.885117
0.832503
0.777194
0.719407
0.659331
0.597174
0.533332
0.468226
0.402513
0.336731
0.271784
0.208444
0.14761
0.0903016
0.037246
-0.0105842
-0.0526522
-0.0883128
-0.117285
-0.139474
-0.155009
-0.16439
-0.167981
-0.166457
-0.160538
-0.150921
-0.13834
-0.123473
-0.106953
-0.0893403
-0.0711132
-0.0526895
-0.034418
-0.0165641
0.000644121
0.0170394
0.032507
0.046951
0.0603258
0.0725977
0.0837968
0.0939089
0.102922
0.110846
0.117708
0.123543
0.128375
0.132258
0.13523
0.137349
0.138662
0.139209
0.139041
0.138193
0.136726
0.13466
0.132044
0.128915
0.125306
0.121258
0.116794
0.11196
0.106766
0.101246
0.0954282
0.0893367
0.0830051
0.0764348
0.0696534
0.0626836
0.0555365
0.0482356
0.0407826
0.03305
0.0251136
0.0168146
0.00813273
0.00207212
1.47818
1.34102
1.30148
1.25916
1.21629
1.17843
1.14016
1.10075
1.05945
1.01609
0.970263
0.921701
0.870426
0.816256
0.759245
0.699534
0.637299
0.572692
0.506358
0.438478
0.369893
0.301334
0.23344
0.167444
0.104082
0.0445014
-0.0104092
-0.0597057
-0.102676
-0.138698
-0.167429
-0.188814
-0.203085
-0.210633
-0.212091
-0.208179
-0.199659
-0.18734
-0.172013
-0.154418
-0.135231
-0.115052
-0.0943918
-0.0736816
-0.0532803
-0.0334567
-0.0144516
0.00359638
0.0205564
0.0363417
0.0509217
0.0642635
0.0764093
0.0873642
0.0971439
0.105761
0.113237
0.119614
0.124923
0.129229
0.132575
0.13503
0.136628
0.137425
0.137479
0.136834
0.135533
0.133619
0.131135
0.128121
0.124617
0.120661
0.116279
0.111503
0.106372
0.100909
0.0951366
0.0890923
0.082788
0.0762475
0.069499
0.0625406
0.0554228
0.0481109
0.0406626
0.0330013
0.0250536
0.0167635
0.00816682
0.00210942
1.46973
1.33253
1.2929
1.25047
1.20749
1.1693
1.13069
1.09088
1.04906
1.00489
0.958142
0.908474
0.855835
0.800086
0.74132
0.679576
0.61508
0.548139
0.479068
0.408498
0.337064
0.265484
0.194813
0.12597
0.0600665
-0.00180426
-0.058609
-0.109344
-0.153178
-0.18946
-0.217849
-0.238358
-0.251203
-0.256982
-0.256244
-0.249866
-0.238712
-0.22365
-0.205541
-0.185201
-0.163331
-0.140581
-0.117487
-0.094492
-0.0719669
-0.050188
-0.0293823
-0.00970527
0.00872357
0.0258495
0.0416265
0.0560446
0.0691288
0.0809146
0.0914437
0.100736
0.108818
0.115734
0.121526
0.12625
0.129967
0.132737
0.13462
0.135671
0.135943
0.135484
0.134356
0.132588
0.130236
0.12734
0.123934
0.120064
0.115762
0.111061
0.105989
0.100575
0.094849
0.0888391
0.0825801
0.0760726
0.0693504
0.0624335
0.0553374
0.0480716
0.0406352
0.0329628
0.0250649
0.0167927
0.00811572
0.00202775
1.46202
1.32473
1.285
1.24245
1.19924
1.16086
1.12193
1.08151
1.039
0.994072
0.94636
0.895562
0.841567
0.78427
0.723721
0.659982
0.593278
0.52383
0.452179
0.378788
0.304426
0.230031
0.15638
0.0848554
0.0163699
-0.0477578
-0.106437
-0.15852
-0.203176
-0.239661
-0.267668
-0.287273
-0.298691
-0.302572
-0.299631
-0.290799
-0.277
-0.259209
-0.238349
-0.215285
-0.190775
-0.165501
-0.140011
-0.114777
-0.0901725
-0.066479
-0.0439186
-0.0226465
-0.00276447
0.015657
0.0326
0.0480679
0.0620786
0.0746728
0.0859224
0.0958627
0.104524
0.11196
0.118211
0.123346
0.127425
0.130512
0.132677
0.133967
0.134452
0.13419
0.133217
0.131598
0.129372
0.126582
0.123276
0.119494
0.115261
0.110623
0.105608
0.100248
0.0945714
0.0886031
0.0823709
0.0758973
0.0691955
0.0622835
0.0552003
0.0479361
0.0405259
0.0328844
0.0250611
0.0168275
0.00811305
0.00203421
1.45501
1.31768
1.27782
1.23517
1.19175
1.1531
1.11362
1.07262
1.02953
0.983843
0.935183
0.883205
0.827909
0.769033
0.706723
0.64097
0.572058
0.500253
0.425973
0.349904
0.272708
0.195391
0.11901
0.0447227
-0.026238
-0.0925095
-0.15299
-0.206369
-0.251735
-0.288337
-0.315928
-0.334518
-0.344468
-0.346522
-0.341379
-0.330138
-0.313775
-0.293336
-0.269814
-0.244126
-0.217073
-0.189354
-0.161573
-0.134183
-0.107584
-0.0820518
-0.0578079
-0.0350087
-0.013752
0.00592074
0.023984
0.0404462
0.0553467
0.0687254
0.0806534
0.0912206
0.100433
0.108365
0.115061
0.120588
0.125008
0.128396
0.130821
0.132349
0.133036
0.132945
0.132131
0.130649
0.128544
0.125863
0.122646
0.118943
0.114788
0.110213
0.105254
0.0999458
0.0943056
0.0883755
0.0821773
0.0757322
0.0690746
0.0622068
0.0551652
0.0479302
0.0404937
0.0328786
0.0250355
0.0168237
0.00813517
0.00199009
1.44871
1.3113
1.27139
1.22854
1.18486
1.14595
1.10607
1.06455
1.02079
0.974299
0.924683
0.871649
0.815002
0.754674
0.690642
0.623058
0.551953
0.477866
0.401097
0.322359
0.242489
0.162424
0.0833421
0.00653311
-0.0668768
-0.13517
-0.197334
-0.251863
-0.297827
-0.334503
-0.36156
-0.379247
-0.387754
-0.38801
-0.380785
-0.367217
-0.348407
-0.325443
-0.29939
-0.271217
-0.241759
-0.211745
-0.181792
-0.152385
-0.123905
-0.0966491
-0.0708279
-0.0465933
-0.0240255
-0.00319184
0.0159234
0.0333284
0.0490597
0.0631626
0.0757408
0.0868734
0.0966121
0.105003
0.112108
0.118002
0.122743
0.126417
0.129091
0.130831
0.131713
0.131794
0.131125
0.129771
0.127775
0.125192
0.122065
0.118433
0.11434
0.109826
0.104919
0.09965
0.094055
0.0881565
0.0819876
0.0755658
0.0689077
0.0620067
0.0549574
0.0478224
0.0404562
0.0328169
0.0249714
0.0168264
0.0081454
0.00196412
1.44315
1.30568
1.2656
1.22263
1.17875
1.13952
1.09926
1.05721
1.01283
0.965646
0.915108
0.861016
0.803155
0.741388
0.675778
0.606348
0.533309
0.457051
0.377925
0.296788
0.214324
0.131699
0.0501714
-0.029107
-0.104584
-0.174896
-0.238467
-0.294035
-0.340526
-0.377175
-0.403795
-0.420433
-0.427609
-0.426127
-0.416952
-0.401242
-0.380168
-0.354883
-0.326509
-0.296051
-0.264382
-0.232264
-0.200321
-0.169054
-0.138848
-0.11001
-0.0827425
-0.0571876
-0.0334409
-0.0115268
0.00854415
0.0268048
0.0433031
0.0580939
0.0712508
0.0829137
0.0931188
0.101933
0.109416
0.11564
0.120683
0.124605
0.127511
0.129451
0.130503
0.130734
0.130201
0.128963
0.127076
0.124577
0.12153
0.117968
0.11394
0.109475
0.104615
0.0993903
0.0938314
0.0879693
0.081827
0.075433
0.0688216
0.0619937
0.0549846
0.0477816
0.0403701
0.0327731
0.0248802
0.0166588
0.00812481
0.0020816
1.43833
1.30082
1.26063
1.21755
1.17339
1.13391
1.09321
1.05077
1.0058
0.957879
0.906554
0.851498
0.792553
0.729521
0.662446
0.591406
0.516539
0.43826
0.357053
0.273626
0.188919
0.103955
0.0201536
-0.0612725
-0.138773
-0.210621
-0.275631
-0.33202
-0.378913
-0.415493
-0.441575
-0.457354
-0.463291
-0.460269
-0.4493
-0.431651
-0.408535
-0.381156
-0.350704
-0.318198
-0.284554
-0.250552
-0.216838
-0.183907
-0.15217
-0.12192
-0.0933607
-0.0666313
-0.0418126
-0.018942
0.00198681
0.0210069
0.0381817
0.0535737
0.0672722
0.0793871
0.090018
0.0992038
0.107021
0.113542
0.118841
0.123001
0.126105
0.128219
0.129431
0.129799
0.129382
0.12825
0.126448
0.124037
0.121058
0.117557
0.113579
0.109161
0.104341
0.0991507
0.093631
0.0877853
0.0816702
0.0753005
0.0686883
0.0618654
0.0548448
0.0476424
0.040293
0.0326926
0.0248017
0.0166303
0.00812197
0.00211068
1.4343
1.29672
1.25648
1.2132
1.16894
1.12914
1.08813
1.04523
0.999756
0.951287
0.899194
0.84332
0.783352
0.719171
0.650854
0.578337
0.501903
0.421954
0.338856
0.25349
0.166732
0.0797574
-0.00601592
-0.0893718
-0.168492
-0.24185
-0.307856
-0.364944
-0.412156
-0.448622
-0.474288
-0.489228
-0.494024
-0.489654
-0.477139
-0.457814
-0.43294
-0.403771
-0.371518
-0.337251
-0.301911
-0.266295
-0.231041
-0.196692
-0.16363
-0.132161
-0.102491
-0.0747528
-0.0490275
-0.0253347
-0.00366805
0.0160152
0.0337763
0.0496871
0.0638406
0.0763663
0.0873468
0.0968587
0.104962
0.11174
0.117268
0.121616
0.124903
0.127167
0.128506
0.128996
0.128682
0.127639
0.12592
0.12357
0.120651
0.117204
0.113276
0.108897
0.104116
0.0989564
0.0934565
0.0876471
0.0815471
0.0751954
0.0686186
0.061819
0.054833
0.0476575
0.0402856
0.0326989
0.0248013
0.0166002
0.00808396
0.00208975
1.43105
1.29344
1.2531
1.20974
1.16523
1.12527
1.084
1.04072
0.994867
0.945801
0.893179
0.836557
0.7758
0.71072
0.641292
0.567632
0.489867
0.408357
0.323776
0.236739
0.148325
0.0596803
-0.0277112
-0.112677
-0.193192
-0.267633
-0.334525
-0.392179
-0.439569
-0.475928
-0.501158
-0.515439
-0.519355
-0.513821
-0.500025
-0.4793
-0.452973
-0.422325
-0.388602
-0.352896
-0.316156
-0.279207
-0.24271
-0.207176
-0.173032
-0.140573
-0.109987
-0.0814252
-0.0549444
-0.0305753
-0.00829293
0.011924
0.0301676
0.046505
0.0610337
0.0738888
0.0851655
0.094942
0.103278
0.110263
0.11597
0.120491
0.123907
0.126303
0.127755
0.128335
0.128103
0.127134
0.125473
0.123188
0.120318
0.116914
0.113025
0.108677
0.103924
0.0987893
0.0933172
0.0875169
0.0814404
0.0751073
0.068525
0.0617367
0.0547429
0.047551
0.0402012
0.0326111
0.024766
0.0166024
0.0080668
0.00209305
1.42861
1.29097
1.25056
1.2071
1.16232
1.1222
1.08095
1.03739
0.991136
0.941706
0.888524
0.831429
0.769964
0.704142
0.633929
0.559275
0.480494
0.397976
0.312106
0.2239
0.134136
0.0442036
-0.0444316
-0.130707
-0.212255
-0.287524
-0.354996
-0.413034
-0.460607
-0.496858
-0.521814
-0.535537
-0.538657
-0.532299
-0.517519
-0.495739
-0.468298
-0.436521
-0.401665
-0.364853
-0.327052
-0.289093
-0.251624
-0.215207
-0.180231
-0.147
-0.115718
-0.0865196
-0.0594645
-0.0345775
-0.0118368
0.00880156
0.027404
0.0440735
0.0588932
0.0720001
0.0834924
0.0934754
0.101989
0.109135
0.114988
0.119629
0.123161
0.125645
0.127181
0.127832
0.127671
0.126755
0.125148
0.122901
0.120066
0.1167
0.112831
0.108519
0.103782
0.0986655
0.0932064
0.0874342
0.0813672
0.075044
0.0684841
0.0617013
0.0547339
0.0475595
0.040225
0.0326548
0.0247933
0.0166107
0.00806546
0.00208058
1.42698
1.2893
1.24885
1.20533
1.16064
1.12033
1.07863
1.03497
0.988565
0.938855
0.885441
0.827892
0.766096
0.699757
0.628953
0.553701
0.474198
0.390829
0.304179
0.215078
0.124424
0.0336733
-0.0558964
-0.142971
-0.225417
-0.300983
-0.368733
-0.427087
-0.474794
-0.510994
-0.535699
-0.549106
-0.551775
-0.544776
-0.529341
-0.506837
-0.478642
-0.446098
-0.410491
-0.372934
-0.334409
-0.29576
-0.25765
-0.220625
-0.185087
-0.151347
-0.119599
-0.0899691
-0.0625254
-0.0372882
-0.014235
0.00667966
0.0255378
0.042434
0.0574561
0.0707275
0.0823769
0.0924854
0.101128
0.108373
0.114324
0.11905
0.122649
0.125205
0.126794
0.127496
0.127375
0.126495
0.124921
0.122706
0.1199
0.116552
0.112713
0.108407
0.103687
0.0985902
0.0931369
0.0873727
0.0813087
0.074997
0.0684305
0.0616612
0.0546723
0.0474956
0.0401655
0.0325725
0.0247662
0.0166434
0.0080682
0.00201657
1.42618
1.28849
1.24803
1.20446
1.15971
1.11931
1.07758
1.03384
0.987309
0.937492
0.883846
0.826169
0.76406
0.6975
0.626419
0.550813
0.471007
0.387288
0.300231
0.210698
0.119597
0.0283516
-0.0617067
-0.149313
-0.232577
-0.308102
-0.375305
-0.433761
-0.481848
-0.518086
-0.542735
-0.555936
-0.558335
-0.55105
-0.535296
-0.512428
-0.483848
-0.450922
-0.414932
-0.376996
-0.338114
-0.299122
-0.260684
-0.223355
-0.187536
-0.153538
-0.121551
-0.0917026
-0.0640559
-0.0386384
-0.0154395
0.00561792
0.0245955
0.0416007
0.0567223
0.0700774
0.0817997
0.0919838
0.100685
0.107987
0.113985
0.118753
0.122393
0.124977
0.126599
0.127325
0.127229
0.126366
0.124816
0.12261
0.119814
0.116482
0.112643
0.108356
0.103638
0.0985446
0.0931034
0.0873428
0.0812947
0.0749862
0.068434
0.061664
0.0546984
0.0475301
0.0402013
0.032627
0.0247571
0.0165861
0.00808367
0.00209468
1.42621
1.28852
1.24807
1.2045
1.15977
1.11931
1.07761
1.03387
0.987355
0.937511
0.88391
0.826213
0.764114
0.697593
0.626476
0.550902
0.47107
0.387309
0.30027
0.210732
0.119627
0.0283979
-0.0616453
-0.149232
-0.23245
-0.307991
-0.375309
-0.433776
-0.48187
-0.518064
-0.542685
-0.555906
-0.55832
-0.551034
-0.535281
-0.512411
-0.483838
-0.450912
-0.414926
-0.376983
-0.338102
-0.299107
-0.26067
-0.223345
-0.187519
-0.153521
-0.121536
-0.0916914
-0.0640553
-0.0386446
-0.0154396
0.00561949
0.0245992
0.0416028
0.0567265
0.0700769
0.0818033
0.0919851
0.100687
0.107989
0.113992
0.118757
0.122393
0.124977
0.126595
0.127327
0.127224
0.126368
0.124811
0.122612
0.119818
0.116487
0.112651
0.108357
0.103646
0.0985518
0.0931125
0.0873481
0.0812986
0.074989
0.0684295
0.0616604
0.054683
0.0475038
0.0401741
0.0325851
0.0247566
0.0166092
0.00806422
0.00207669
1.42708
1.2894
1.24897
1.20545
1.16074
1.12043
1.07872
1.03506
0.988655
0.938958
0.885529
0.827991
0.766199
0.69981
0.629064
0.553773
0.474298
0.390996
0.30433
0.215237
0.124585
0.0338134
-0.0557674
-0.14285
-0.2253
-0.300911
-0.368622
-0.427041
-0.474723
-0.510945
-0.535674
-0.549046
-0.55172
-0.54472
-0.529291
-0.50679
-0.478592
-0.446058
-0.410449
-0.372889
-0.334375
-0.295725
-0.257621
-0.220596
-0.185062
-0.15132
-0.119568
-0.0899409
-0.0624995
-0.0372658
-0.0142136
0.00670119
0.025551
0.0424417
0.0574582
0.0707269
0.0823769
0.0924891
0.10113
0.108375
0.114325
0.119054
0.122649
0.125206
0.1268
0.127499
0.127382
0.1265
0.124933
0.122716
0.119908
0.116566
0.112716
0.10842
0.103698
0.0985979
0.0931521
0.0873831
0.0813315
0.0750167
0.068467
0.0616948
0.0547282
0.047565
0.0402221
0.0326493
0.0247768
0.0165606
0.00807909
0.00212077
1.42876
1.29111
1.25072
1.20726
1.16254
1.1224
1.081
1.03749
0.991253
0.941827
0.888699
0.831567
0.770122
0.704339
0.634067
0.559442
0.480685
0.398065
0.312273
0.224038
0.134284
0.0443716
-0.0443056
-0.130512
-0.212136
-0.28736
-0.354836
-0.412894
-0.460507
-0.496802
-0.521697
-0.535451
-0.53857
-0.532218
-0.517456
-0.495672
-0.468233
-0.436455
-0.401612
-0.364795
-0.326994
-0.289033
-0.251568
-0.215156
-0.180179
-0.146952
-0.115678
-0.0864789
-0.0594333
-0.0345401
-0.0118008
0.00882899
0.0274336
0.0441002
0.0589217
0.0720225
0.083518
0.0934964
0.102015
0.109155
0.115009
0.11965
0.123176
0.125663
0.127197
0.127849
0.127687
0.126772
0.125164
0.122921
0.12009
0.116718
0.112854
0.108534
0.103805
0.0986887
0.093231
0.0874561
0.081394
0.0750686
0.0685023
0.0617221
0.0547374
0.0475483
0.0402093
0.0326161
0.0248247
0.0166787
0.00804778
0.00202101
1.43126
1.29364
1.25331
1.20995
1.16542
1.12549
1.0842
1.04092
0.995092
0.946016
0.893392
0.836773
0.77603
0.710894
0.641508
0.567818
0.490038
0.408616
0.323968
0.236977
0.148523
0.0598958
-0.0275245
-0.1125
-0.193006
-0.267493
-0.334343
-0.392041
-0.439429
-0.475849
-0.501071
-0.515341
-0.519251
-0.51371
-0.499936
-0.479212
-0.452878
-0.42224
-0.388517
-0.35281
-0.316079
-0.279133
-0.242635
-0.207102
-0.172964
-0.140504
-0.109919
-0.0813621
-0.0548792
-0.0305162
-0.00823846
0.0119831
0.0302161
0.0465527
0.0610828
0.0739333
0.0852102
0.094985
0.103319
0.1103
0.11601
0.120529
0.123944
0.126341
0.127791
0.128368
0.12814
0.127167
0.125513
0.123225
0.120353
0.11695
0.113055
0.108712
0.103959
0.0988242
0.0933465
0.0875524
0.0814777
0.0751383
0.0685675
0.0617758
0.0547979
0.0476129
0.0402659
0.0327027
0.0248745
0.0167028
0.00808505
0.00204459
1.43457
1.297
1.25673
1.21349
1.16916
1.12942
1.08841
1.04553
1.00006
0.951522
0.899496
0.843577
0.783624
0.719487
0.651138
0.578616
0.502186
0.422164
0.339111
0.253738
0.166992
0.0800037
-0.00578476
-0.0891328
-0.168283
-0.241602
-0.307662
-0.36479
-0.411968
-0.448518
-0.474121
-0.489087
-0.493884
-0.489535
-0.477043
-0.4577
-0.432824
-0.403661
-0.371414
-0.33715
-0.301809
-0.266197
-0.230942
-0.196597
-0.163539
-0.132073
-0.10241
-0.0746726
-0.0489462
-0.0252577
-0.00358962
0.0160852
0.0338415
0.0497543
0.063909
0.0764294
0.0874109
0.0969226
0.105026
0.111799
0.117319
0.121681
0.124953
0.127222
0.128559
0.129037
0.128726
0.127684
0.125963
0.123618
0.120699
0.11725
0.113318
0.108938
0.104155
0.0989925
0.0934921
0.0876805
0.0815889
0.0752395
0.0686452
0.0618511
0.0548436
0.0476513
0.0402913
0.0326888
0.0248453
0.0166638
0.00807762
0.00204614
1.43868
1.30115
1.26097
1.21787
1.17371
1.13426
1.09355
1.05108
1.00617
0.958222
0.9069
0.851838
0.792884
0.729861
0.662751
0.591705
0.516849
0.438589
0.357374
0.273952
0.189195
0.104256
0.0204456
-0.0610309
-0.138471
-0.210464
-0.275341
-0.331831
-0.3787
-0.415307
-0.441425
-0.457163
-0.463153
-0.460079
-0.449144
-0.431489
-0.408368
-0.381016
-0.350563
-0.318066
-0.284423
-0.250429
-0.216716
-0.183786
-0.152054
-0.121808
-0.0932506
-0.0665291
-0.0417137
-0.0188527
0.0020709
0.021098
0.0382639
0.053653
0.0673587
0.0794735
0.0900997
0.0992865
0.107094
0.113619
0.118914
0.123071
0.126171
0.128287
0.129494
0.129859
0.129441
0.128304
0.126508
0.124092
0.121112
0.117609
0.113633
0.10922
0.104397
0.0992086
0.0936737
0.0878423
0.0817242
0.0753542
0.068743
0.0619269
0.0549106
0.0477026
0.0403291
0.0327302
0.0248506
0.0166201
0.00811173
0.00213497
1.44355
1.30608
1.26598
1.22304
1.17914
1.13992
1.09962
1.0576
1.01327
0.965985
0.915526
0.861394
0.803536
0.7418
0.676187
0.606738
0.533718
0.457376
0.378329
0.297105
0.214705
0.132047
0.0504516
-0.0287399
-0.104351
-0.174565
-0.238204
-0.293799
-0.340245
-0.376934
-0.403537
-0.42021
-0.427408
-0.425954
-0.416797
-0.401083
-0.379999
-0.354724
-0.326354
-0.295898
-0.26423
-0.232122
-0.200174
-0.168912
-0.138712
-0.109878
-0.0826159
-0.0570637
-0.0333096
-0.0114013
0.00866577
0.0269153
0.0434058
0.0581881
0.0713499
0.0830077
0.0932173
0.10203
0.109513
0.115735
0.120768
0.124701
0.127593
0.129532
0.130583
0.130807
0.13027
0.129037
0.127139
0.124644
0.121596
0.118035
0.114003
0.109536
0.104674
0.0994417
0.0938832
0.0880156
0.0818868
0.0754892
0.0688595
0.0620335
0.0550081
0.0477922
0.0404105
0.0327955
0.0249363
0.0167186
0.00811008
0.00206262
1.4492
1.31175
1.27181
1.229
1.18539
1.14645
1.10642
1.06494
1.02125
0.97477
0.925163
0.872065
0.815487
0.755101
0.691084
0.623447
0.552395
0.478257
0.401522
0.322767
0.242901
0.16279
0.0837189
0.00688544
-0.0664806
-0.13489
-0.196958
-0.251584
-0.29755
-0.334238
-0.361341
-0.378964
-0.387537
-0.387738
-0.380548
-0.36699
-0.34817
-0.325233
-0.299191
-0.271024
-0.241571
-0.211567
-0.181626
-0.152211
-0.123745
-0.0964889
-0.0706781
-0.0464442
-0.0238861
-0.0030536
0.0160521
0.033454
0.0491795
0.0632829
0.0758597
0.0869919
0.096731
0.105118
0.112223
0.118113
0.122853
0.126513
0.129189
0.130923
0.131803
0.131876
0.131208
0.129845
0.127856
0.125269
0.122138
0.118506
0.114412
0.109901
0.10499
0.0997209
0.0941219
0.0882282
0.0820602
0.0756409
0.0689905
0.0621343
0.0550782
0.0478418
0.0404364
0.0328391
0.0249892
0.0167948
0.0081342
0.00200719
1.45553
1.31818
1.27832
1.23567
1.19216
1.15354
1.11418
1.0732
1.0301
0.98437
0.93567
0.883744
0.828357
0.769566
0.707228
0.64147
0.572579
0.500701
0.42647
0.350367
0.27315
0.195862
0.119415
0.0451459
-0.0258312
-0.0921656
-0.152608
-0.206035
-0.251376
-0.287994
-0.315574
-0.3342
-0.3442
-0.346239
-0.341145
-0.329906
-0.313546
-0.293115
-0.269598
-0.243913
-0.216863
-0.189161
-0.161373
-0.133995
-0.107396
-0.0818758
-0.0576417
-0.0348417
-0.0135869
0.00608667
0.0241405
0.0406029
0.0554942
0.0688648
0.080792
0.0913538
0.100567
0.108495
0.115192
0.120712
0.12513
0.128517
0.130936
0.132453
0.133141
0.133042
0.132228
0.130745
0.128631
0.125947
0.122734
0.119024
0.114866
0.110291
0.105326
0.100019
0.0943776
0.0884472
0.0822523
0.0758052
0.0691304
0.0622607
0.0551979
0.0479432
0.0405396
0.0329
0.0249952
0.0167609
0.00815089
0.0020793
1.4626
1.32531
1.28557
1.24302
1.19988
1.16139
1.1224
1.08205
1.03961
0.994681
0.946926
0.896129
0.842141
0.784837
0.72425
0.66051
0.593745
0.52437
0.452701
0.379305
0.304982
0.230463
0.15689
0.0852826
0.016846
-0.0473693
-0.105967
-0.158156
-0.202787
-0.239282
-0.267349
-0.286906
-0.298366
-0.302249
-0.299332
-0.290511
-0.276715
-0.258937
-0.238089
-0.215034
-0.190535
-0.165264
-0.139787
-0.114556
-0.0899626
-0.0662725
-0.0437241
-0.0224519
-0.00258155
0.0158351
0.032776
0.0482354
0.0622448
0.0748315
0.0860787
0.0960187
0.10468
0.11211
0.11836
0.123493
0.127566
0.130646
0.132801
0.134087
0.134567
0.134293
0.133323
0.131691
0.129469
0.126677
0.123369
0.119583
0.115347
0.110715
0.105696
0.100335
0.0946575
0.0886911
0.0824588
0.0759804
0.0692795
0.0623835
0.0552896
0.048018