# vtk DataFile Version 2.0
tracks
ASCII
DATASET POLYDATA
POINTS 821 float
-0.2 -0.2 -0.01 -0.199977 -0.200001 -0.00999584 -0.192601 -0.20038 -0.00864873 -0.187864 -0.2006
-0.00771562 -0.186769 -0.200648 -0.00749265 -0.176086 -0.201122 -0.00531851 -0.170889 -0.201364 -0.00396867
-0.162649 -0.201963 -0.00144142 -0.153535 -0.202728 0.00190584 -0.151098 -0.203121 0.00297004 -0.137705
-0.205401 0.00889452 -0.13054 -0.207825 0.0132172 -0.125276 -0.210144 0.0168466 -0.112859 -0.217157
0.0259069 -0.11283 -0.217186 0.0259314 -0.104627 -0.225313 0.0328464 -0.100684 -0.229057 0.0359594
-0.0970078 -0.232631 0.0387599 -0.0912354 -0.238155 0.0425517 -0.0884425 -0.240662 0.044188 -0.0770034
-0.250557 0.0504353 -0.0759188 -0.251473 0.0509776 -0.0753785 -0.251926 0.0512449 -0.0636892 -0.261706
0.0570467 -0.0617395 -0.263242 0.0581285 -0.051334 -0.271483 0.0641692 -0.0460145 -0.275784 0.0674219
-0.03894 -0.281249 0.0716454 -0.0294716 -0.288466 0.07716 -0.0293196 -0.288581 0.0772515 -0.0267387
-0.290539 0.0788074 -0.0146848 -0.299533 0.0862887 -0.0122293 -0.301353 0.0879958 -0.00966178 -0.303212
0.0897676 -0.00169175 -0.309083 0.0953809 0.0100632 -0.315325 0.1014 0.0113646 -0.315696 0.101507
0.0241459 -0.319361 0.103018 0.0496436 -0.323816 0.10226 0.0566259 -0.32423 0.10041 0.0677846
-0.325155 0.0971712 0.0747905 -0.325866 0.0950237 0.0998681 -0.328367 0.0869248 0.149954 -0.334397
0.0715873 0.199979 -0.33862 0.0631147 0.299997 -0.347027 0.0522798 0.399999 -0.349264 0.0462768
0.5 -0.350908 0.043505 0.6 -0.35203 0.0417042 0.7 -0.352585 0.0404263 0.8
-0.352822 0.0394904 0.9 -0.352894 0.0387858 1 -0.352883 0.0382419 1.1 -0.352833
0.0378122 1.2 -0.352766 0.0374657 1.3 -0.352697 0.0371812 1.4 -0.35263 0.0369439
1.5 -0.352568 0.0367431 1.6 -0.352513 0.036571 1.7 -0.352464 0.036422 1.8
-0.352422 0.0362915 1.9 -0.352385 0.0361764 2 -0.352353 0.0360739 2.1 -0.352326
0.0359822 2.2 -0.352302 0.0358995 2.3 -0.352282 0.0358247 2.4 -0.352265 0.0357566
2.5 -0.35225 0.0356944 2.6 -0.352237 0.0356374 2.7 -0.352225 0.0355851 2.8
-0.352216 0.0355369 2.9 -0.352207 0.0354924 3 -0.3522 0.0354512 3.1 -0.352194
0.0354131 3.2 -0.352188 0.0353778 3.3 -0.352183 0.035345 3.4 -0.352179 0.0353146
3.5 -0.352176 0.0352863 3.6 -0.352173 0.0352601 3.7 -0.35217 0.0352357 3.8
-0.352168 0.035213 3.9 -0.352166 0.0351919 4 -0.352164 0.0351724 4.1 -0.352162
0.0351542 4.2 -0.352161 0.0351374 4.3 -0.35216 0.0351219 4.4 -0.352159 0.0351075
4.5 -0.352158 0.0350942 4.6 -0.352157 0.035082 4.7 -0.352156 0.0350708 4.8
-0.352156 0.0350605 4.9 -0.352155 0.0350512 5 -0.352155 0.0350427 5.1 -0.352154
0.035035 5.2 -0.352154 0.0350282 5.3 -0.352154 0.0350221 5.4 -0.352154 0.0350168
5.5 -0.352153 0.0350122 5.6 -0.352153 0.0350083 5.7 -0.352153 0.0350051 5.8
-0.352153 0.0350026 5.9 -0.352153 0.0350008 6 -0.352153 0.0349997 -6.91738e-17 -0.2
-0.01 0.000155758 -0.200025 -0.0100026 0.0499752 -0.208131 -0.0108365 0.0999899 -0.214055 -0.012068
0.199997 -0.222312 -0.0145296 0.3 -0.226467 -0.0173764 0.4 -0.228951 -0.0188899 0.5
-0.23059 -0.0200136 0.6 -0.231539 -0.0209326 0.7 -0.232039 -0.0216812 0.8 -0.232286
-0.0222873 0.9 -0.23239 -0.0227799 1 -0.232417 -0.0231838 1.1 -0.232404 -0.0235183
1.2 -0.232372 -0.0237982 1.3 -0.232332 -0.0240347 1.4 -0.232291 -0.0242368 1.5
-0.232252 -0.0244112 1.6 -0.232216 -0.0245632 1.7 -0.232184 -0.0246967 1.8 -0.232156
-0.0248149 1.9 -0.232131 -0.0249203 2 -0.23211 -0.0250149 2.1 -0.232091 -0.0251003
2.2 -0.232075 -0.0251777 2.3 -0.232061 -0.0252483 2.4 -0.232049 -0.0253128 2.5
-0.232039 -0.0253719 2.6 -0.23203 -0.0254263 2.7 -0.232022 -0.0254765 2.8 -0.232016
-0.0255229 2.9 -0.23201 -0.0255658 3 -0.232005 -0.0256056 3.1 -0.232001 -0.0256425
3.2 -0.231997 -0.0256768 3.3 -0.231994 -0.0257087 3.4 -0.231991 -0.0257383 3.5
-0.231988 -0.0257659 3.6 -0.231986 -0.0257915 3.7 -0.231985 -0.0258154 3.8 -0.231983
-0.0258376 3.9 -0.231982 -0.0258582 4 -0.23198 -0.0258774 4.1 -0.231979 -0.0258952
4.2 -0.231978 -0.0259117 4.3 -0.231978 -0.0259269 4.4 -0.231977 -0.0259411 4.5
-0.231976 -0.0259541 4.6 -0.231976 -0.0259661 4.7 -0.231975 -0.0259771 4.8 -0.231975
-0.0259872 4.9 -0.231974 -0.0259964 5 -0.231974 -0.0260048 5.1 -0.231974 -0.0260123
5.2 -0.231974 -0.0260191 5.3 -0.231974 -0.0260251 5.4 -0.231973 -0.0260303 5.5
-0.231973 -0.0260348 5.6 -0.231973 -0.0260387 5.7 -0.231973 -0.0260418 5.8 -0.231973
-0.0260443 5.9 -0.231973 -0.0260461 6 -0.231973 -0.0260471 0.2 -0.2 -0.01
0.200026 -0.200001 -0.0100007 0.3 -0.203406 -0.0127558 0.4 -0.205767 -0.0144223 0.5
-0.20732 -0.0156465 0.6 -0.208208 -0.0166261 0.7 -0.208681 -0.0174108 0.8 -0.208918
-0.0180397 0.9 -0.209022 -0.0185473 1 -0.209053 -0.0189614 1.1 -0.209045 -0.0193032
1.2 -0.209018 -0.0195883 1.3 -0.208984 -0.0198288 1.4 -0.208948 -0.0200339 1.5
-0.208913 -0.0202107 1.6 -0.208881 -0.0203645 1.7 -0.208853 -0.0204995 1.8 -0.208827
-0.0206189 1.9 -0.208805 -0.0207253 2 -0.208786 -0.0208206 2.1 -0.208769 -0.0209067
2.2 -0.208754 -0.0209846 2.3 -0.208742 -0.0210556 2.4 -0.208731 -0.0211205 2.5
-0.208722 -0.0211799 2.6 -0.208714 -0.0212346 2.7 -0.208707 -0.021285 2.8 -0.208701
-0.0213316 2.9 -0.208696 -0.0213747 3 -0.208691 -0.0214146 3.1 -0.208688 -0.0214517
3.2 -0.208684 -0.021486 3.3 -0.208681 -0.021518 3.4 -0.208679 -0.0215477 3.5
-0.208677 -0.0215754 3.6 -0.208675 -0.0216011 3.7 -0.208673 -0.021625 3.8 -0.208672
-0.0216472 3.9 -0.20867 -0.0216679 4 -0.208669 -0.0216871 4.1 -0.208668 -0.0217049
4.2 -0.208667 -0.0217215 4.3 -0.208667 -0.0217368 4.4 -0.208666 -0.0217509 4.5
-0.208666 -0.021764 4.6 -0.208665 -0.021776 4.7 -0.208665 -0.0217871 4.8 -0.208664
-0.0217972 4.9 -0.208664 -0.0218064 5 -0.208664 -0.0218148 5.1 -0.208663 -0.0218223
5.2 -0.208663 -0.0218291 5.3 -0.208663 -0.021835 5.4 -0.208663 -0.0218403 5.5
-0.208663 -0.0218448 5.6 -0.208663 -0.0218487 5.7 -0.208663 -0.0218518 5.8 -0.208663
-0.0218543 5.9 -0.208663 -0.0218561 6 -0.208663 -0.0218572 0.4 -0.2 -0.01
0.4 -0.2 -0.01 0.4 -0.2 -0.01 0.5 -0.201535 -0.0113146 0.6
-0.202411 -0.0123487 0.7 -0.202878 -0.0131669 0.8 -0.203113 -0.0138173 0.9 -0.203218
-0.0143392 1 -0.203249 -0.014763 1.1 -0.203242 -0.0151116 1.2 -0.203217 -0.0154017
1.3 -0.203185 -0.0156459 1.4 -0.20315 -0.0158538 1.5 -0.203117 -0.0160327 1.6
-0.203086 -0.0161881 1.7 -0.203058 -0.0163244 1.8 -0.203033 -0.0164449 1.9 -0.203011
-0.0165521 2 -0.202993 -0.0166481 2.1 -0.202976 -0.0167347 2.2 -0.202962 -0.0168131
2.3 -0.20295 -0.0168845 2.4 -0.20294 -0.0169497 2.5 -0.202931 -0.0170094 2.6
-0.202923 -0.0170643 2.7 -0.202916 -0.0171149 2.8 -0.20291 -0.0171616 2.9 -0.202905
-0.0172049 3 -0.202901 -0.0172449 3.1 -0.202897 -0.017282 3.2 -0.202894 -0.0173165
3.3 -0.202891 -0.0173486 3.4 -0.202889 -0.0173784 3.5 -0.202887 -0.0174061 3.6
-0.202885 -0.0174318 3.7 -0.202883 -0.0174558 3.8 -0.202882 -0.0174781 3.9 -0.202881
-0.0174988 4 -0.202879 -0.017518 4.1 -0.202879 -0.0175359 4.2 -0.202878 -0.0175524
4.3 -0.202877 -0.0175678 4.4 -0.202876 -0.0175819 4.5 -0.202876 -0.017595 4.6
-0.202875 -0.0176071 4.7 -0.202875 -0.0176181 4.8 -0.202875 -0.0176283 4.9 -0.202874
-0.0176375 5 -0.202874 -0.0176459 5.1 -0.202874 -0.0176534 5.2 -0.202874 -0.0176602
5.3 -0.202874 -0.0176662 5.4 -0.202873 -0.0176714 5.5 -0.202873 -0.017676 5.6
-0.202873 -0.0176798 5.7 -0.202873 -0.017683 5.8 -0.202873 -0.0176854 5.9 -0.202873
-0.0176873 6 -0.202873 -0.0176883 -0.2 3.54365e-17 -0.01 -0.197326 7.57567e-07 -0.00957584
-0.187697 2.42407e-06 -0.00806021 -0.174879 -9.77433e-08 -0.00600995 -0.163941 -5.49035e-06 -0.00424524 -0.14959
-1.53243e-05 -0.00208137 -0.124764 -3.30688e-05 -0.000211872 -0.0998901 -4.88941e-05 -0.00132974 -0.0499738 -7.25297e-05
-0.00618074 6.11e-06 -8.89763e-05 -0.0110451 0.100001 -0.00011576 -0.0181006 0.2 -0.000128929 -0.021872
0.3 -0.00013631 -0.0242487 0.4 -0.000140625 -0.0259023 0.5 -0.000143108 -0.0271143 0.6
-0.000144542 -0.0280413 0.7 -0.000145366 -0.0287712 0.8 -0.000145834 -0.0293561 0.9 -0.000146093
-0.0298315 1 -0.000146232 -0.0302226 1.1 -0.000146306 -0.030548 1.2 -0.000146342 -0.0308214
1.3 -0.000146362 -0.0310534 1.4 -0.000146374 -0.0312524 1.5 -0.000146375 -0.0314246 1.6
-0.000146368 -0.0315751 1.7 -0.000146359 -0.0317075 1.8 -0.00014635 -0.0318249 1.9 -0.000146342
-0.0319298 2 -0.000146334 -0.032024 2.1 -0.000146328 -0.032109 2.2 -0.000146324 -0.0321862
2.3 -0.00014632 -0.0322566 2.4 -0.000146318 -0.032321 2.5 -0.00014632 -0.03238 2.6
-0.000146321 -0.0324343 2.7 -0.000146322 -0.0324844 2.8 -0.000146323 -0.0325307 2.9 -0.000146325
-0.0325736 3 -0.000146327 -0.0326133 3.1 -0.000146329 -0.0326502 3.2 -0.000146332 -0.0326845
3.3 -0.000146337 -0.0327163 3.4 -0.000146345 -0.0327459 3.5 -0.000146352 -0.0327734 3.6
-0.000146357 -0.0327991 3.7 -0.000146363 -0.0328229 3.8 -0.000146371 -0.0328451 3.9 -0.000146381
-0.0328657 4 -0.000146392 -0.0328848 4.1 -0.000146408 -0.0329026 4.2 -0.000146428 -0.0329191
4.3 -0.000146449 -0.0329344 4.4 -0.000146466 -0.0329485 4.5 -0.00014648 -0.0329615 4.6
-0.000146497 -0.0329735 4.7 -0.000146517 -0.0329845 4.8 -0.00014654 -0.0329946 4.9 -0.000146561
-0.0330038 5 -0.000146582 -0.0330121 5.1 -0.000146606 -0.0330197 5.2 -0.000146629 -0.0330264
5.3 -0.000146649 -0.0330324 5.4 -0.000146663 -0.0330376 5.5 -0.000146672 -0.0330421 5.6
-0.000146674 -0.033046 5.7 -0.000146675 -0.0330491 5.8 -0.000146674 -0.0330516 5.9 -0.00014667
-0.0330534 6 -0.000146674 -0.0330545 -1.61646e-16 3.29607e-17 -0.01 6.19884e-06 -1.36134e-09 -0.0100004
6.56106e-05 -1.44087e-08 -0.0100047 0.100001 -2.15942e-05 -0.0173049 0.2 -3.28364e-05 -0.0211154 0.3
-3.87756e-05 -0.0235156 0.4 -4.20285e-05 -0.0251837 0.5 -4.38228e-05 -0.0264049 0.6 -4.48405e-05
-0.0273379 0.7 -4.54276e-05 -0.0280718 0.8 -4.57704e-05 -0.0286596 0.9 -4.59698e-05 -0.0291369
1 -4.60877e-05 -0.0295294 1.1 -4.61617e-05 -0.0298558 1.2 -4.62081e-05 -0.03013 1.3
-4.62436e-05 -0.0303626 1.4 -4.62722e-05 -0.030562 1.5 -4.6289e-05 -0.0307346 1.6 -4.62979e-05
-0.0308853 1.7 -4.63025e-05 -0.0310179 1.8 -4.63056e-05 -0.0311355 1.9 -4.63086e-05 -0.0312405
2 -4.63103e-05 -0.0313348 2.1 -4.63119e-05 -0.03142 2.2 -4.63149e-05 -0.0314972 2.3
[...]
POINT_DATA 821
FIELD attributes 2
age 1 821 float
0 2.31332e-06 0.000751608 0.00128071 0.00141015 0.00268186 0.00342371 0.00485738 0.00591309 0.00623417 0.00802969
0.00901181 0.00982134 0.0119603 0.0119671 0.0138644 0.01475 0.0155843 0.0168765 0.0174628 0.019787
0.0199985 0.0201034 0.0223701 0.0227441 0.0247732 0.025852 0.0272925 0.0291849 0.0292156 0.0297381
0.0321725 0.0326729 0.0331914 0.0348161 0.0368144 0.0370014 0.0387061 0.0417657 0.0425036 0.0437319
0.0445321 0.0474144 0.0534331 0.0591772 0.0707093 0.0814886 0.0919955 0.102341 0.112585 0.12276
0.13289 0.142989 0.153066 0.163127 0.173175 0.183215 0.193247 0.203274 0.213297 0.223315
0.233331 0.243344 0.253355 0.263364 0.273372 0.283379 0.293385 0.30339 0.313394 0.323398
0.333401 0.343403 0.353405 0.363407 0.373409 0.38341 0.393411 0.403412 0.413412 0.423413
0.433413 0.443413 0.453413 0.463413 0.473413 0.483413 0.493412 0.503412 0.513412 0.523411
0.533411 0.54341 0.55341 0.563409 0.573408 0.583408 0.593407 0.603407 0.613406 0.623405
0.633404 0.643404 0 1.82425e-05 0.00585292 0.0115964 0.0227989 0.03363 0.0441435 0.0545075
0.0647778 0.0749827 0.0851406 0.0952641 0.105362 0.11544 0.125503 0.135554 0.145596 0.155631
0.16566 0.175684 0.185704 0.195721 0.205735 0.215748 0.225758 0.235767 0.245774 0.25578
0.265786 0.27579 0.285794 0.295798 0.3058 0.315803 0.325805 0.335807 0.345808 0.355809
0.36581 0.375811 0.385811 0.395812 0.405812 0.415812 0.425812 0.435812 0.445812 0.455812
0.465811 0.475811 0.485811 0.49581 0.50581 0.515809 0.525809 0.535808 0.545808 0.555807
0.565807 0.575806 0.585805 0.595805 0.605804 0 2.82688e-06 0.010703 0.0211694 0.0315097
0.0417647 0.0519605 0.0621132 0.0722337 0.0823297 0.0924069 0.102469 0.11252 0.122562 0.132597
0.142626 0.15265 0.16267 0.172687 0.182702 0.192714 0.202724 0.212733 0.22274 0.232747
0.242752 0.252757 0.262761 0.272764 0.282767 0.292769 0.302771 0.312773 0.322774 0.332775
0.342776 0.352777 0.362778 0.372778 0.382778 0.392778 0.402778 0.412778 0.422778 0.432778
0.442778 0.452777 0.462777 0.472777 0.482776 0.492776 0.502775 0.512775 0.522774 0.532773
0.542773 0.552772 0.562772 0.572771 0.58277 0 0 0 0.0103354 0.0205868
0.0307803 0.0409315 0.0510511 0.0611465 0.0712233 0.0812856 0.0913365 0.101378 0.111413 0.121442
0.131466 0.141486 0.151503 0.161517 0.171529 0.18154 0.191548 0.201556 0.211562 0.221568
0.231572 0.241576 0.251579 0.261582 0.271585 0.281587 0.291588 0.30159 0.311591 0.321592
0.331593 0.341593 0.351593 0.361594 0.371594 0.381594 0.391594 0.401594 0.411594 0.421593
0.431593 0.441593 0.451592 0.461592 0.471591 0.481591 0.49159 0.501589 0.511589 0.521588
0.531588 0.541587 0.551586 0.561586 0 0.000345843 0.00158856 0.00322522 0.00464437 0.00654063
0.00983613 0.0129802 0.0188624 0.024287 0.0350654 0.0455183 0.0558404 0.0661064 0.0763316 0.0865218
0.0966811 0.106813 0.116922 0.127012 0.137086 0.147148 0.157198 0.167241 0.177276 0.187305
0.197329 0.20735 0.217368 0.227382 0.237395 0.247405 0.257414 0.267422 0.277429 0.287434
0.297439 0.307443 0.317447 0.32745 0.337452 0.347454 0.357456 0.367457 0.377459 0.387459
0.39746 0.407461 0.417461 0.427462 0.437462 0.447462 0.457462 0.467462 0.477462 0.487461
0.497461 0.507461 0.51746 0.52746 0.537459 0.547459 0.557458 0.567458 0.577457 0.587456
0.597456 0.607455 0.617455 0.627454 0 6.67935e-07 7.06964e-06 0.0107341 0.021187 0.0315088
0.0417746 0.0519996 0.0621897 0.0723489 0.082481 0.09259 0.10268 0.112754 0.122815 0.132866
0.142908 0.152943 0.162972 0.172997 0.183018 0.193035 0.20305 0.213062 0.223073 0.233082
0.24309 0.253096 0.263102 0.273107 0.283111 0.293114 0.303117 0.31312 0.323122 0.333123
0.343125 0.353126 0.363127 0.373128 0.383128 0.393129 0.403129 0.413129 0.423129 0.433129
0.443129 0.453129 0.463129 0.473128 0.483128 0.493128 0.503127 0.513127 0.523126 0.533126
0.543125 0.553125 0.563124 0.573123 0.583123 0.593122 0.603121 0 0 1.16335e-06
0.0103177 0.0205809 0.0308041 0.0409928 0.0511508 0.061282 0.0713903 0.0814795 0.0915532 0.101614
0.111664 0.121706 0.131741 0.14177 0.151795 0.161815 0.171832 0.181847 0.191859 0.20187
0.211879 0.221887 0.231893 0.241899 0.251903 0.261907 0.271911 0.281914 0.291916 0.301918
0.31192 0.321921 0.331923 0.341924 0.351924 0.361925 0.371925 0.381926 0.391926 0.401926
0.411926 0.421926 0.431926 0.441925 0.451925 0.461925 0.471924 0.481924 0.491923 0.501923
0.511922 0.521922 0.531921 0.54192 0.55192 0.561919 0.571918 0.581918 0 2.26959e-17
2.66718e-07 0.0102224 0.0204104 0.030568 0.0406987 0.0508067 0.0608957 0.0709691 0.0810298 0.09108
0.101122 0.111156 0.121186 0.13121 0.14123 0.151248 0.161262 0.171275 0.181285 0.191294
0.201302 0.211308 0.221314 0.231318 0.241322 0.251326 0.261329 0.271331 0.281333 0.291335
0.301336 0.311337 0.321338 0.331339 0.34134 0.35134 0.36134 0.371341 0.381341 0.391341
0.40134 0.41134 0.42134 0.43134 0.441339 0.451339 0.461338 0.471338 0.481337 0.491337
0.501336 0.511336 0.521335 0.531334 0.541334 0.551333 0.561333 0 2.21217e-06 0.000751571
0.00128137 0.00141104 0.00268314 0.00339261 0.00485315 0.0059134 0.00623022 0.00802547 0.00901604 0.00981862
0.0119719 0.013872 0.0147606 0.0156337 0.0168667 0.0174786 0.0197357 0.0200069 0.0202777 0.0223501
0.0226734 0.0247533 0.0258288 0.0272958 0.0291141 0.0292521 0.0297779 0.0322433 0.0328071 0.033058
0.0349207 0.0366551 0.0370406 0.0387103 0.0417613 0.042338 0.0445176 0.0448353 0.0474104 0.0534491
0.0591906 0.0707271 0.0815032 0.0919758 0.102304 0.112541 0.122712 0.132841 0.142939 0.153016
0.163077 0.173126 0.183165 0.193198 0.203225 0.213247 0.223266 0.233281 0.243294 0.253306
0.263315 0.273323 0.28333 0.293336 0.303341 0.313345 0.323348 0.333351 0.343354 0.353356
0.363358 0.373359 0.38336 0.393361 0.403362 0.413363 0.423363 0.433363 0.443364 0.453364
0.463364 0.473364 0.483363 0.493363 0.503363 0.513362 0.523362 0.533361 0.543361 0.55336
0.56336 0.573359 0.583359 0.593358 0.603357 0.613357 0.623356 0.633355 0.643354 0
1.76105e-05 0.00584592 0.0115833 0.0227786 0.033607 0.0441322 0.0544973 0.0647685 0.0749738 0.0851319
0.0952555 0.105353 0.115431 0.125495 0.135546 0.145588 0.155623 0.165652 0.175676 0.185696
0.195713 0.205727 0.215739 0.225749 0.235758 0.245766 0.255772 0.265777 0.275782 0.285786
0.295789 0.305792 0.315794 0.325796 0.335798 0.3458 0.355801 0.365802 0.375802 0.385803
0.395803 0.405804 0.415804 0.425804 0.435804 0.445804 0.455803 0.465803 0.475803 0.485802
0.495802 0.505802 0.515801 0.525801 0.5358 0.545799 0.555799 0.565798 0.575798 0.585797
0.595796 0.605796 0 2.83017e-06 0.0107011 0.0211693 0.0315097 0.0417649 0.0519609 0.0621136
0.0722341 0.0823302 0.0924074 0.10247 0.112521 0.122563 0.132598 0.142626 0.152651 0.162671
0.172688 0.182702 0.192714 0.202725 0.212733 0.222741 0.232747 0.242753 0.252757 0.262761
0.272764 0.282767 0.29277 0.302772 0.312773 0.322775 0.332776 0.342777 0.352778 0.362778
0.372778 0.382779 0.392779 0.402779 0.412779 0.422779 0.432779 0.442778 0.452778 0.462778
0.472777 0.482777 0.492776 0.502776 0.512775 0.522775 0.532774 0.542773 0.552773 0.562772
0.572771 0.582771 0 4.58874e-17 0.010335 0.0205864 0.0307798 0.040931 0.0510506 0.061146
0.0712228 0.0812851 0.091336 0.101378 0.111412 0.121441 0.131465 0.141485 0.151502 0.161517
0.171529 0.181539 0.191548 0.201555 0.211562 0.221567 0.231572 0.241576 0.251579 0.261582
0.271584 0.281586 0.291588 0.301589 0.31159 0.321591 0.331592 0.341593 0.351593 0.361593
0.371593 0.381593 0.391593 0.401593 0.411593 0.421593 0.431592 0.441592 0.451592 0.461591
0.471591 0.48159 0.49159 0.501589 0.511588 0.521588 0.531587 0.541586 0.551586 0.561585

U 3 821 float
9.84383 -0.505399 1.79742 9.84441 -0.505225 1.79784 8.95191 -0.415939 1.76359 8.46372 -0.375479
1.72251 8.40036 -0.372668 1.70961 7.00546 -0.32563 1.81957 5.74766 -0.417979 1.76279
8.63309 -0.724243 3.17062 7.59017 -1.22614 3.31438 7.45899 -1.26969 3.29961 7.29489
-2.46822 4.4014 6.50281 -2.86406 4.48332 5.80529 -3.27882 4.23576 4.32295 -4.28368
3.64345 4.32332 -4.28354 3.64452 4.45243 -4.22724 3.51513 4.4063 -4.28354 3.35698
4.46687 -4.27497 2.9342 4.76386 -4.27599 2.79105 4.92168 -4.25742 2.68794 5.12875
-4.3299 2.56422 5.15167 -4.32051 2.54852 5.15696 -4.31464 2.55957 5.21264 -4.10576
2.89228 5.12815 -4.06172 2.97707 4.93077 -3.98691 3.01493 4.91131 -3.7937 2.9321
5.00346 -3.81366 2.9141 4.94082 -3.74748 2.97777 4.94027 -3.74746 2.97816 4.95126
-3.6943 3.07303 4.90771 -3.63904 3.4119 4.95197 -3.58474 3.41719 4.90538 -3.61361
3.4549 5.88253 -3.12368 3.01204 6.9595 -1.98257 0.571691 7.4977 -2.15011 0.886569
8.33381 -1.45597 -0.247855 9.46236 -0.561106 -2.50666 9.08399 -0.752696 -2.63672 8.75592
-0.888806 -2.68391 8.70039 -0.867633 -2.8098 8.32186 -1.00195 -2.54833 8.70883 -0.735168
-1.475 8.67295 -0.729041 -0.939539 9.27732 -0.207489 -0.556909 9.51761 -0.156536 -0.263809
9.66586 -0.108369 -0.17406 9.7619 -0.0542274 -0.124746 9.8284 -0.023264 -0.0919858 9.87181
-0.00714073 -0.0695531 9.90189 0.00112174 -0.053861 9.92359 0.00499421 -0.0426359 9.9395 0.00656522
-0.034442 9.95141 0.00692765 -0.0283123 9.96053 0.00667816 -0.0236388 9.96764 0.00614441 -0.0200149
9.97327 0.00550428 -0.0171591 9.97777 0.00485151 -0.0148743 9.98142 0.0042342 -0.0130211 9.9844
0.00367296 -0.0114977 9.98685 0.00317371 -0.0102305 9.98888 0.00273676 -0.00916481 9.99058 0.00235745
-0.0082578 9.992 0.00202974 -0.00747894 9.9932 0.00174822 -0.00680425 9.99422 0.00150652 -0.00621417
9.99509 0.00129882 -0.00569401 9.99582 0.00112097 -0.00523219 9.99646 0.000968698 -0.00481981 9.997
0.000837651 -0.00444897 9.99747 0.000724884 -0.00411336 9.99788 0.000627975 -0.00380872 9.99823 0.000544825
-0.00353093 9.99854 0.000473133 -0.00327638 9.9988 0.000410593 -0.00304234 9.99904 0.000356625 -0.0028263
9.99924 0.000310448 -0.0026265 9.99942 0.000270157 -0.00244079 9.99958 0.000234983 -0.00226777 9.99972
0.000204539 -0.00210662 9.99984 0.000178233 -0.00195573 9.99995 0.000155585 -0.00181406 10 0.000135482
-0.00168117 10.0001 0.000118074 -0.00155632 10.0002 0.000103071 -0.00143859 10.0003 8.94643e-05 -0.00132725
10.0003 7.76683e-05 -0.00122157 10.0004 6.73876e-05 -0.00112124 10.0004 5.8258e-05 -0.00102589 10.0005
5.02667e-05 -0.000935221 10.0005 4.34103e-05 -0.000848687 10.0005 3.7346e-05 -0.000765061 10.0006 3.18966e-05
-0.000684566 10.0006 2.7002e-05 -0.000607126 10.0006 2.2789e-05 -0.00053194 10.0006 1.93333e-05 -0.000459299
10.0007 1.63902e-05 -0.00038851 10.0007 1.3707e-05 -0.000318874 10.0007 1.03929e-05 -0.000249591 10.0007
7.08447e-06 -0.000184081 10.0007 3.45152e-06 -0.000107914 10.0007 1.19388e-06 -6.24353e-05 8.53817 -1.39022
-0.142303 8.53852 -1.38923 -0.142925 8.70812 -1.03143 -0.214416 8.92725 -0.73704 -0.219737
9.23288 -0.383674 -0.262831 9.51163 -0.23622 -0.143964 9.6487 -0.158172 -0.108422 9.73682
-0.0923873 -0.0894843 9.79928 -0.0490307 -0.0733551 9.84453 -0.0242584 -0.0596692 9.87798 -0.0103448
-0.048659 9.90318 -0.00266395 -0.0399941 9.92247 0.00132659 -0.0331961 9.93736 0.00319145 -0.0278115
9.94896 0.00393255 -0.0235323 9.95811 0.00407309 -0.0201223 9.9654 0.00390177 -0.0173803 9.97126
0.00358308 -0.0151505 9.97601 0.00320922 -0.0133183 9.97989 0.00283088 -0.0117981 9.98308 0.00247326
-0.010524 9.98571 0.00214756 -0.00944709 9.9879 0.00185832 -0.00852802 9.98973 0.00160454 -0.00773566
9.99127 0.00138373 -0.00704731 9.99257 0.00119324 -0.00644462 9.99366 0.00102864 -0.0059125 9.9946
0.000887 -0.00543961 9.99539 0.000766063 -0.00501642 9.99608 0.000661793 -0.00463541 9.99667 0.000571691
-0.00429035 9.99717 0.000495046 -0.00397657 9.99761 0.000429474 -0.00369059 9.99799 0.000372377 -0.00342804
9.99832 0.000322856 -0.00318605 9.99861 0.000280282 -0.0029631 9.99886 0.000243479 -0.00275663 9.99908
0.000211425 -0.00256438 9.99928 0.000184149 -0.00238566 9.99945 0.000160568 -0.00221903 9.9996 0.000139713
-0.00206325 9.99973 0.000121111 -0.001917 9.99985 0.000105174 -0.00177914 9.99995 9.22312e-05 -0.00164995
10.0001 8.05933e-05 -0.00152831 10.0001 6.9879e-05 -0.00141308 10.0002 6.05348e-05 -0.00130418 10.0003
5.2655e-05 -0.00120089 10.0003 4.55363e-05 -0.00110282 10.0004 3.93077e-05 -0.00100966 10.0004 3.38206e-05
-0.000920289 10.0005 2.84001e-05 -0.000834555 10.0005 2.41769e-05 -0.000752847 10.0005 2.09744e-05 -0.000674605
10.0005 1.79877e-05 -0.000598615 10.0006 1.54763e-05 -0.000524703 10.0006 1.32963e-05 -0.000452994 10.0006
1.11417e-05 -0.000382981 10.0006 9.40064e-06 -0.000314412 10.0006 7.31791e-06 -0.000246288 10.0006 5.05057e-06
-0.000181832 10.0006 2.42822e-06 -0.00010627 10.0006 6.84904e-07 -6.10166e-05 9.34313 -0.318264 -0.257513
9.34318 -0.318239 -0.257482 9.55436 -0.225528 -0.159219 9.67094 -0.150261 -0.118391 9.75134
-0.0865493 -0.0955282 9.80796 -0.0463668 -0.0769586 9.84959 -0.0233567 -0.0619466 9.88094 -0.0103126
-0.0501564 9.90488 -0.00303098 -0.0410144 9.9234 0.00081106 -0.0339155 9.93785 0.00263451 -0.0283384
9.9492 0.00339172 -0.0239288 9.95822 0.00357543 -0.0204258 9.96543 0.00345719 -0.0176157 9.97125
0.00319252 -0.0153353 9.97598 0.00286976 -0.0134652 9.97985 0.0025376 -0.0119159 9.98304 0.00222064
-0.0106194 9.98567 0.00193042 -0.00952492 9.98787 0.00167178 -0.00859207 9.9897 0.00144432 -0.00778871
9.99124 0.00124611 -0.00709146 9.99254 0.00107493 -0.00648157 9.99364 0.000926846 -0.00594362 9.99458
0.000799267 -0.00546599 9.99538 0.000690386 -0.00503887 9.99607 0.000596432 -0.00465464 9.99666 0.000515141
-0.00430683 9.99717 0.000446195 -0.00399074 9.99761 0.000387225 -0.00370292 9.99799 0.000335597 -0.0034387
9.99832 0.000290882 -0.00319526 9.99861 0.000252638 -0.00297122 9.99886 0.000219429 -0.00276383 9.99908
0.000190467 -0.00257067 9.99928 0.000165994 -0.00239126 9.99945 0.000144784 -0.00222404 9.9996 0.000125917
-0.0020676 9.99973 0.000108985 -0.00192089 9.99985 9.4576e-05 -0.00178268 9.99996 8.30779e-05 -0.00165304
10.0001 7.26119e-05 -0.00153103 10.0001 6.28674e-05 -0.00141552 10.0002 5.44163e-05 -0.00130637 10.0003
4.73206e-05 -0.00120285 10.0003 4.08788e-05 -0.00110456 10.0004 3.52415e-05 -0.00101119 10.0004 3.02944e-05
-0.000921644 10.0005 2.53067e-05 -0.000835832 10.0005 2.14379e-05 -0.000754036 10.0005 1.85793e-05 -0.000675674
10.0005 1.59957e-05 -0.000599543 10.0006 1.38e-05 -0.000525479 10.0006 1.19687e-05 -0.000453577 10.0006
1.01179e-05 -0.000383471 10.0006 8.49124e-06 -0.00031485 10.0006 6.64711e-06 -0.000246617 10.0006 4.63996e-06
-0.00018209 10.0006 2.20666e-06 -0.000106394 10.0006 5.5105e-07 -6.10437e-05 9.67551 -0.148566 -0.127191
9.67551 -0.148566 -0.127191 9.67551 -0.148566 -0.127191 9.75472 -0.0853657 -0.100878 9.8102
-0.0458198 -0.0802669 9.85103 -0.0231827 -0.0640728 9.88187 -0.01033 -0.0515666 9.90547 -0.00313684
-0.0419779 9.92378 0.000673242 -0.0345943 9.93809 0.00248906 -0.0288323 9.94937 0.00325177 -0.0242965
9.95833 0.00344707 -0.0207039 9.96551 0.00334268 -0.0178288 9.9713 0.00309198 -0.0155008 9.97602
0.00278239 -0.0135954 9.97988 0.00246213 -0.0120196 9.98306 0.00215566 -0.0107026 9.98569 0.0018746
-0.00959245 9.98788 0.00162384 -0.00864732 9.98972 0.00140315 -0.00783424 9.99125 0.00121075 -0.00712921
9.99255 0.00104455 -0.00651309 9.99365 0.000900711 -0.0059701 9.99459 0.00077675 -0.00548836 9.99539
0.000670969 -0.00505788 9.99608 0.000579664 -0.00467089 9.99667 0.000500641 -0.00432077 9.99718 0.000433674
-0.00400274 9.99761 0.000376389 -0.00371331 9.99799 0.000326171 -0.00344773 9.99832 0.000282696 -0.00320313
9.99861 0.000245552 -0.00297813 9.99887 0.00021326 -0.00276993 9.99909 0.000185098 -0.00257604 9.99928
0.00016134 -0.00239601 9.99945 0.000140731 -0.00222827 9.9996 0.000122383 -0.00207135 9.99974 0.000105878
-0.00192424 9.99986 9.18551e-05 -0.00178568 9.99996 8.07331e-05 -0.00165571 10.0001 7.05706e-05 -0.00153342
10.0001 6.1074e-05 -0.00141767 10.0002 5.2852e-05 -0.0013083 10.0003 4.59585e-05 -0.00120458 10.0003
3.96871e-05 -0.00110611 10.0004 3.41996e-05 -0.00101257 10.0004 2.93917e-05 -0.00092287 10.0005 2.45112e-05
-0.00083695 10.0005 2.07299e-05 -0.000755051 10.0005 1.79601e-05 -0.000676578 10.0005 1.54777e-05 -0.000600331
10.0006 1.33586e-05 -0.000526139 10.0006 1.16283e-05 -0.000454107 10.0006 9.86214e-06 -0.000383915 10.0006
8.25799e-06 -0.000315222 10.0006 6.46678e-06 -0.000246888 10.0006 4.52462e-06 -0.000182287 10.0006 2.15322e-06
-0.000106524 10.0006 5.28987e-07 -6.11323e-05 7.73119 0.0021905 1.22647 7.74838 0.00134101 1.21961
7.83221 -0.00154083 1.25272 7.70701 -0.00379988 1.2435 7.56831 -0.00518599 1.14112 7.53329
-0.00538444 0.567289 7.91124 -0.00503338 -0.355547 8.48597 -0.00401815 -0.82469 9.2136 -0.00303186
-0.896726 9.27736 -0.00248498 -0.654599 9.56658 -0.00125981 -0.360793 9.68799 -0.000715064 -0.230253
9.74084 -0.0004203 -0.161079 9.77981 -0.000242872 -0.118536 9.81334 -0.00014071 -0.0909699 9.84323
-8.10796e-05 -0.0718373 9.86957 -4.62368e-05 -0.0577354 9.8921 -2.55942e-05 -0.0470225 9.9109 -1.37579e-05
-0.0387656 9.92637 -7.34718e-06 -0.0323 9.93908 -3.58502e-06 -0.027172 9.94953 -2.03461e-06 -0.0230855
9.95807 -1.19851e-06 -0.0198125 9.96505 -4.1241e-08 -0.0171641 9.97078 6.40151e-07 -0.0149979 9.97549
9.21845e-07 -0.0132101 9.97938 9.2e-07 -0.0117203 9.9826 7.8438e-07 -0.0104675 9.98528 7.78465e-07
-0.00940513 9.98752 6.6367e-07 -0.00849589 9.9894 4.09459e-07 -0.00771163 9.99098 4.01697e-07 -0.00702916
9.99231 1.33353e-07 -0.00643005 9.99344 -1.64586e-07 -0.00590056 9.99441 -1.1837e-07 -0.00542976 9.99523
-1.15581e-07 -0.00500858 9.99594 -1.11057e-07 -0.00462882 9.99654 -1.44988e-07 -0.00428448 9.99706 -1.96364e-07
-0.00397167 9.99751 -2.55862e-07 -0.00368637 9.99791 -2.9392e-07 -0.00342419 9.99825 -4.90077e-07 -0.00318298
9.99855 -7.60947e-07 -0.00296034 9.99881 -7.5087e-07 -0.00275386 9.99903 -4.77516e-07 -0.00256245 9.99923
-5.57939e-07 -0.00238371 9.99941 -8.60239e-07 -0.00221638 9.99956 -9.77821e-07 -0.00206092 9.9997 -1.14325e-06
-0.00191543 9.99982 -1.5225e-06 -0.00177792 9.99993 -2.04206e-06 -0.00164832 10 -2.10205e-06 -0.00152645
10.0001 -1.66467e-06 -0.00141162 10.0002 -1.43618e-06 -0.00130279 10.0003 -1.73258e-06 -0.00119972 10.0003
-1.99865e-06 -0.00110217 10.0004 -2.22427e-06 -0.00100878 10.0004 -2.18088e-06 -0.000919235 10.0004 -2.09808e-06
-0.000834093 10.0005 -2.36375e-06 -0.000752526 10.0005 -2.3121e-06 -0.000673716 10.0005 -1.94331e-06 -0.000597791
10.0006 -1.44418e-06 -0.000524209 10.0006 -8.64847e-07 -0.000452373 10.0006 -2.55583e-07 -0.000382479 10.0006
-7.23053e-08 -0.000313939 10.0006 7.84517e-08 -0.000246186 10.0006 4.05633e-07 -0.000182366 10.0006 -3.47936e-07
-0.000106693 10.0006 -1.16782e-06 -6.11872e-05 9.28059 -0.00203813 -0.664686 9.28061 -0.0020381 -0.664677
9.31619 -0.00201172 -0.680541 9.56664 -0.00107551 -0.364538 9.68827 -0.000575406 -0.232535 9.74104
-0.000316865 -0.162493 9.77995 -0.000175477 -0.119434 9.81344 -9.98701e-05 -0.091562 9.84332 -5.77903e-05
-0.0722379 9.86963 -3.38412e-05 -0.0580114 9.89215 -1.97192e-05 -0.0472163 9.91094 -1.16816e-05 -0.0389047
9.9264 -7.3501e-06 -0.0324021 9.93911 -4.61626e-06 -0.0272483 9.94955 -3.53002e-06 -0.0231432 9.95809
-2.84711e-06 -0.0198565 9.96507 -1.67218e-06 -0.017198 9.97079 -8.85475e-07 -0.0150243 9.9755 -4.608e-07
-0.0132309 9.97939 -3.11977e-07 -0.0117369 9.98261 -3.01525e-07 -0.0104808 9.98529 -1.67979e-07 -0.00941593
9.98753 -1.5405e-07 -0.00850471 9.9894 -2.98631e-07 -0.00771889 9.99098 -2.12511e-07 -0.00703518 9.99232
-3.95966e-07 -0.00643506 9.99345 -6.19815e-07 -0.00590476 9.99441 -5.11203e-07 -0.0054333 9.99523 -4.55507e-07
-0.00501159 9.99594 -4.04796e-07 -0.00463139 9.99654 -3.98578e-07 -0.00428668 9.99706 -4.15934e-07 -0.00397356
9.99752 -4.46487e-07 -0.00368801 9.99791 -4.59595e-07 -0.00342561 9.99825 -6.34125e-07 -0.00318423 9.99855
-8.86786e-07 -0.00296143 9.99881 -8.60569e-07 -0.00275481 9.99903 -5.72103e-07 -0.0025633 9.99923 -6.39261e-07
-0.00238446 9.99941 -9.30167e-07 -0.00221704 9.99956 -1.03967e-06 -0.00206151 9.9997 -1.19846e-06 -0.00191596
9.99982 -1.57034e-06 -0.00177839 9.99993 -2.08491e-06 -0.00164874 10 -2.14109e-06 -0.00152683 10.0001
-1.69579e-06 -0.00141196 10.0002 -1.46069e-06 -0.0013031 10.0003 -1.7569e-06 -0.0012 10.0003 -2.02239e-06
-0.00110242 10.0004 -2.24499e-06 -0.001009 10.0004 -2.19828e-06 -0.000919431 10.0004 -2.11242e-06 -0.000834268