# vtk DataFile Version 2.0
tracks
ASCII
DATASET POLYDATA
POINTS 811 float
-0.2 -0.2 -0.01 -0.199977 -0.200001 -0.00999584 -0.192451 -0.20038 -0.00864553 -0.187864 -0.200596
-0.00775891 -0.18678 -0.200645 -0.00754295 -0.177341 -0.201077 -0.00566278 -0.17608 -0.201136 -0.00535513
-0.162616 -0.20177 -0.00197044 -0.15218 -0.202655 0.00174869 -0.150742 -0.202901 0.00236928 -0.1377
-0.205096 0.00798995 -0.128744 -0.208181 0.013236 -0.125263 -0.209872 0.0156288 -0.110606 -0.218153
0.0258961 -0.103131 -0.225315 0.0312534 -0.100588 -0.227572 0.0328999 -0.0911439 -0.235981 0.0386844
-0.0887602 -0.238066 0.0396835 -0.0883222 -0.238445 0.0398583 -0.0757791 -0.249245 0.0447912 -0.0742755
-0.250489 0.0453778 -0.0592767 -0.262801 0.051243 -0.0588397 -0.263138 0.0514401 -0.0510902 -0.26912
0.0549833 -0.0422146 -0.275664 0.0591015 -0.0386483 -0.27825 0.0607384 -0.0311195 -0.283647 0.064199
-0.0263063 -0.287158 0.0664489 -0.0072982 -0.300941 0.0753275 -0.00363456 -0.303501 0.0767762 -0.00145652
-0.305007 0.0775187 0.023867 -0.322821 0.0865724 0.0284732 -0.325642 0.0867575 0.0494446 -0.337781
0.086749 0.0746801 -0.346984 0.0791449 0.0861269 -0.350163 0.07558 0.0868586 -0.35037 0.0753585
0.0997837 -0.354043 0.0714523 0.149919 -0.366738 0.0580235 0.199967 -0.372914 0.0507761 0.299995
-0.382589 0.0409922 0.399999 -0.385476 0.0355071 0.5 -0.386991 0.0330065 0.6 -0.388108
0.031415 0.7 -0.388663 0.030287 0.8 -0.388887 0.0294598 0.9 -0.388946 0.0288365
1 -0.388923 0.0283544 1.1 -0.388862 0.0279727 1.2 -0.388787 0.027664 1.3
-0.388711 0.0274098 1.4 -0.388637 0.0271971 1.5 -0.388571 0.0270167 1.6 -0.388511
0.0268616 1.7 -0.388458 0.0267268 1.8 -0.388413 0.0266085 1.9 -0.388373 0.0265038
2 -0.388339 0.0264104 2.1 -0.388309 0.0263266 2.2 -0.388283 0.0262509 2.3
-0.388262 0.0261822 2.4 -0.388243 0.0261196 2.5 -0.388226 0.0260623 2.6 -0.388212
0.0260098 2.7 -0.3882 0.0259614 2.8 -0.388189 0.0259168 2.9 -0.38818 0.0258755
3 -0.388172 0.0258373 3.1 -0.388166 0.0258019 3.2 -0.38816 0.0257691 3.3
-0.388155 0.0257386 3.4 -0.38815 0.0257102 3.5 -0.388146 0.0256839 3.6 -0.388143
0.0256594 3.7 -0.38814 0.0256366 3.8 -0.388137 0.0256154 3.9 -0.388135 0.0255957
4 -0.388133 0.0255774 4.1 -0.388131 0.0255604 4.2 -0.38813 0.0255447 4.3
-0.388129 0.0255301 4.4 -0.388127 0.0255167 4.5 -0.388126 0.0255042 4.6 -0.388126
0.0254928 4.7 -0.388125 0.0254823 4.8 -0.388124 0.0254727 4.9 -0.388124 0.0254639
5 -0.388123 0.0254559 5.1 -0.388123 0.0254488 5.2 -0.388122 0.0254424 5.3
-0.388122 0.0254367 5.4 -0.388122 0.0254317 5.5 -0.388121 0.0254274 5.6 -0.388121
0.0254237 5.7 -0.388121 0.0254207 5.8 -0.388121 0.0254184 5.9 -0.388121 0.0254167
6 -0.38812 0.0254157 -6.91738e-17 -0.2 -0.01 0.000175943 -0.200025 -0.0100029 0.0499758
-0.207197 -0.0108405 0.0999904 -0.2123 -0.0120456 0.199997 -0.219492 -0.0142316 0.3 -0.223252
-0.0165909 0.4 -0.225568 -0.017864 0.5 -0.227112 -0.0188355 0.6 -0.228008 -0.0196472
0.7 -0.228484 -0.0203165 0.8 -0.228719 -0.0208627 0.9 -0.228821 -0.021309 1
-0.228848 -0.0216763 1.1 -0.228837 -0.0219813 1.2 -0.228807 -0.0222371 1.3 -0.22877
-0.0224537 1.4 -0.228732 -0.022639 1.5 -0.228695 -0.0227991 1.6 -0.22866 -0.0229389
1.7 -0.22863 -0.0230619 1.8 -0.228602 -0.0231709 1.9 -0.228579 -0.0232683 2
-0.228558 -0.0233558 2.1 -0.22854 -0.0234348 2.2 -0.228524 -0.0235066 2.3 -0.228511
-0.0235721 2.4 -0.228499 -0.023632 2.5 -0.228489 -0.023687 2.6 -0.228481 -0.0237377
2.7 -0.228473 -0.0237845 2.8 -0.228467 -0.0238277 2.9 -0.228461 -0.0238678 3
-0.228457 -0.0239049 3.1 -0.228452 -0.0239394 3.2 -0.228449 -0.0239715 3.3 -0.228446
-0.0240013 3.4 -0.228443 -0.0240291 3.5 -0.22844 -0.0240549 3.6 -0.228438 -0.024079
3.7 -0.228437 -0.0241014 3.8 -0.228435 -0.0241222 3.9 -0.228434 -0.0241415 4
-0.228432 -0.0241595 4.1 -0.228431 -0.0241762 4.2 -0.22843 -0.0241917 4.3 -0.22843
-0.0242061 4.4 -0.228429 -0.0242194 4.5 -0.228428 -0.0242316 4.6 -0.228428 -0.0242429
4.7 -0.228427 -0.0242533 4.8 -0.228427 -0.0242628 4.9 -0.228427 -0.0242714 5
-0.228426 -0.0242793 5.1 -0.228426 -0.0242863 5.2 -0.228426 -0.0242927 5.3 -0.228426
-0.0242983 5.4 -0.228425 -0.0243032 5.5 -0.228425 -0.0243075 5.6 -0.228425 -0.0243111
5.7 -0.228425 -0.024314 5.8 -0.228425 -0.0243163 5.9 -0.228425 -0.024318 6
-0.228425 -0.024319 0.2 -0.2 -0.01 0.200028 -0.200001 -0.0100007 0.3 -0.203193
-0.012323 0.4 -0.205422 -0.0137353 0.5 -0.206894 -0.0148001 0.6 -0.20774 -0.0156684
0.7 -0.208192 -0.0163711 0.8 -0.20842 -0.0169383 0.9 -0.208521 -0.0173982 1
-0.208552 -0.0177747 1.1 -0.208545 -0.0180863 1.2 -0.20852 -0.0183467 1.3 -0.208488
-0.0185669 1.4 -0.208453 -0.0187549 1.5 -0.20842 -0.0189171 1.6 -0.208389 -0.0190585
1.7 -0.208361 -0.0191828 1.8 -0.208336 -0.0192929 1.9 -0.208315 -0.0193911 2
-0.208296 -0.0194793 2.1 -0.208279 -0.0195589 2.2 -0.208265 -0.0196312 2.3 -0.208253
-0.0196971 2.4 -0.208242 -0.0197573 2.5 -0.208233 -0.0198126 2.6 -0.208225 -0.0198635
2.7 -0.208219 -0.0199105 2.8 -0.208213 -0.0199539 2.9 -0.208208 -0.0199941 3
-0.208203 -0.0200314 3.1 -0.208199 -0.020066 3.2 -0.208196 -0.0200982 3.3 -0.208193
-0.0201281 3.4 -0.208191 -0.0201559 3.5 -0.208189 -0.0201818 3.6 -0.208187 -0.0202059
3.7 -0.208185 -0.0202284 3.8 -0.208184 -0.0202492 3.9 -0.208182 -0.0202686 4
-0.208181 -0.0202867 4.1 -0.20818 -0.0203034 4.2 -0.208179 -0.0203189 4.3 -0.208179
-0.0203333 4.4 -0.208178 -0.0203466 4.5 -0.208177 -0.0203589 4.6 -0.208177 -0.0203702
4.7 -0.208177 -0.0203806 4.8 -0.208176 -0.0203901 4.9 -0.208176 -0.0203987 5
-0.208176 -0.0204066 5.1 -0.208175 -0.0204137 5.2 -0.208175 -0.02042 5.3 -0.208175
-0.0204256 5.4 -0.208175 -0.0204306 5.5 -0.208175 -0.0204348 5.6 -0.208174 -0.0204384
5.7 -0.208174 -0.0204414 5.8 -0.208174 -0.0204437 5.9 -0.208174 -0.0204454 6
-0.208174 -0.0204463 0.4 -0.2 -0.01 0.4 -0.2 -0.01 0.4 -0.2
-0.01 0.5 -0.201455 -0.0111379 0.6 -0.20229 -0.0120509 0.7 -0.202737 -0.0127812
0.8 -0.202963 -0.013366 0.9 -0.203065 -0.0138376 1 -0.203096 -0.0142221 1.1
-0.20309 -0.0145392 1.2 -0.203067 -0.0148038 1.3 -0.203036 -0.0150269 1.4 -0.203002
-0.0152172 1.5 -0.20297 -0.0153813 1.6 -0.20294 -0.0155241 1.7 -0.202913 -0.0156494
1.8 -0.202889 -0.0157604 1.9 -0.202868 -0.0158593 2 -0.202849 -0.015948 2.1
-0.202834 -0.0160281 2.2 -0.20282 -0.0161008 2.3 -0.202808 -0.0161669 2.4 -0.202798
-0.0162275 2.5 -0.202789 -0.016283 2.6 -0.202781 -0.0163341 2.7 -0.202774 -0.0163812
2.8 -0.202769 -0.0164248 2.9 -0.202764 -0.0164651 3 -0.202759 -0.0165025 3.1
-0.202756 -0.0165372 3.2 -0.202753 -0.0165694 3.3 -0.20275 -0.0165994 3.4 -0.202747
-0.0166273 3.5 -0.202745 -0.0166532 3.6 -0.202743 -0.0166774 3.7 -0.202742 -0.0166999
3.8 -0.20274 -0.0167208 3.9 -0.202739 -0.0167402 4 -0.202738 -0.0167583 4.1
-0.202737 -0.016775 4.2 -0.202736 -0.0167906 4.3 -0.202736 -0.016805 4.4 -0.202735
-0.0168183 4.5 -0.202734 -0.0168306 4.6 -0.202734 -0.0168419 4.7 -0.202734 -0.0168523
4.8 -0.202733 -0.0168618 4.9 -0.202733 -0.0168705 5 -0.202733 -0.0168783 5.1
-0.202732 -0.0168854 5.2 -0.202732 -0.0168918 5.3 -0.202732 -0.0168974 5.4 -0.202732
-0.0169024 5.5 -0.202732 -0.0169066 5.6 -0.202731 -0.0169102 5.7 -0.202731 -0.0169132
5.8 -0.202731 -0.0169155 5.9 -0.202731 -0.0169172 6 -0.202731 -0.0169181 -0.2
3.54365e-17 -0.01 -0.197173 9.02623e-08 -0.00958086 -0.187697 -5.50559e-07 -0.00819141 -0.174884 -5.13049e-06
-0.00630196 -0.171476 -7.04566e-06 -0.0057969 -0.149596 -2.01551e-05 -0.00256943 -0.124771 -3.6214e-05 -0.00147549
-0.0998944 -4.85603e-05 -0.00334768 -0.0499747 -6.72506e-05 -0.00845574 5.96638e-06 -8.13457e-05 -0.0128452 0.100001
-0.000103849 -0.0188101 0.2 -0.000114577 -0.0220647 0.3 -0.000120535 -0.0241308 0.4 -0.000123967
-0.0255715 0.5 -0.000125909 -0.0266367 0.6 -0.000127 -0.0274585 0.7 -0.000127598 -0.0281102
0.8 -0.000127914 -0.0286356 0.9 -0.000128067 -0.0290643 1 -0.000128132 -0.0294184 1.1
-0.000128151 -0.0297137 1.2 -0.000128146 -0.0299625 1.3 -0.000128134 -0.0301741 1.4 -0.000128118
-0.0303558 1.5 -0.000128096 -0.0305135 1.6 -0.000128071 -0.0306514 1.7 -0.000128048 -0.030773
1.8 -0.000128027 -0.030881 1.9 -0.00012801 -0.0309776 2 -0.000127994 -0.0310646 2.1
-0.00012798 -0.0311432 2.2 -0.000127971 -0.0312146 2.3 -0.000127962 -0.0312798 2.4 -0.000127956
-0.0313395 2.5 -0.000127954 -0.0313943 2.6 -0.000127952 -0.0314448 2.7 -0.00012795 -0.0314914
2.8 -0.000127948 -0.0315346 2.9 -0.000127946 -0.0315745 3 -0.000127946 -0.0316116 3.1
-0.000127945 -0.031646 3.2 -0.000127946 -0.0316781 3.3 -0.000127948 -0.0317078 3.4 -0.000127952
-0.0317355 3.5 -0.000127956 -0.0317613 3.6 -0.000127956 -0.0317853 3.7 -0.000127958 -0.0318077
3.8 -0.000127963 -0.0318285 3.9 -0.000127968 -0.0318478 4 -0.000127974 -0.0318658 4.1
-0.000127984 -0.0318824 4.2 -0.000127998 -0.0318979 4.3 -0.000128011 -0.0319123 4.4 -0.000128018
-0.0319255 4.5 -0.000128022 -0.0319377 4.6 -0.000128027 -0.031949 4.7 -0.000128033 -0.0319594
4.8 -0.000128039 -0.0319688 4.9 -0.000128041 -0.0319775 5 -0.00012804 -0.0319853 5.1
-0.000128038 -0.0319924 5.2 -0.000128031 -0.0319987 5.3 -0.000128015 -0.0320043 5.4 -0.000127988
-0.0320092 5.5 -0.00012795 -0.0320135 5.6 -0.000127903 -0.0320171 5.7 -0.000127855 -0.03202
5.8 -0.000127809 -0.0320223 5.9 -0.00012777 -0.032024 6 -0.000127752 -0.0320249 -1.61646e-16
3.29607e-17 -0.01 6.19884e-06 -1.15054e-09 -0.0100004 7.76247e-05 -1.44073e-08 -0.0100048 0.100001 -1.82512e-05
-0.016357 0.2 -2.74411e-05 -0.0197225 0.3 -3.2184e-05 -0.0218556 0.4 -3.47055e-05 -0.023338
0.5 -3.60554e-05 -0.0244297 0.6 -3.67877e-05 -0.0252693 0.7 -3.71817e-05 -0.025933 0.8
-3.73888e-05 -0.0264666 0.9 -3.749e-05 -0.0269013 1 -3.75358e-05 -0.0272595 1.1 -3.75549e-05
-0.0275579 1.2 -3.75581e-05 -0.027809 1.3 -3.75584e-05 -0.0280223 1.4 -3.75574e-05 -0.0282054
1.5 -3.75494e-05 -0.0283641 1.6 -3.75378e-05 -0.0285028 1.7 -3.75264e-05 -0.0286251 1.8
-3.75166e-05 -0.0287336 1.9 -3.75085e-05 -0.0288306 2 -3.75009e-05 -0.0289179 2.1 -3.74948e-05
-0.0289967 2.2 -3.74912e-05 -0.0290684 2.3 -3.74879e-05 -0.0291338 2.4 -3.74872e-05 -0.0291936
2.5 -3.74888e-05 -0.0292486 2.6 -3.74898e-05 -0.0292992 2.7 -3.74909e-05 -0.0293459 2.8
[...]
POINT_DATA 811
FIELD attributes 2
age 1 811 float
0 2.34895e-06 0.000764597 0.00127559 0.0014029 0.00251915 0.00269313 0.00460325 0.00579856 0.00598514 0.00763179
0.00888017 0.00944235 0.0119745 0.0136682 0.0142175 0.0162512 0.0167471 0.0168366 0.0193873 0.0196776
0.0225498 0.022632 0.0240931 0.0257579 0.0264425 0.0278926 0.0288358 0.0325783 0.0332976 0.0337226
0.0387198 0.0396169 0.043601 0.0474948 0.0491108 0.049215 0.0510559 0.0579749 0.064041 0.0758572
0.0869102 0.0974402 0.1078 0.118055 0.128237 0.138369 0.14847 0.158548 0.168609 0.178657
0.188697 0.198729 0.208756 0.218778 0.228797 0.238812 0.248826 0.258837 0.268846 0.278854
0.288861 0.298867 0.308872 0.318876 0.32888 0.338883 0.348886 0.358888 0.36889 0.378892
0.388893 0.398894 0.408895 0.418896 0.428896 0.438897 0.448897 0.458897 0.468897 0.478897
0.488897 0.498897 0.508897 0.518897 0.528897 0.538896 0.548896 0.558896 0.568895 0.578895
0.588894 0.598894 0.608893 0.618893 0.628892 0.638892 0.648891 0 2.03431e-05 0.00577818
0.0114637 0.0225753 0.0333393 0.0438052 0.0541439 0.0643995 0.0745951 0.0847469 0.0948663 0.104961
0.115037 0.125099 0.135149 0.145191 0.155225 0.165253 0.175277 0.185297 0.195314 0.205329
0.215341 0.225351 0.23536 0.245367 0.255374 0.265379 0.275384 0.285388 0.295391 0.305394
0.315397 0.325399 0.335401 0.345402 0.355404 0.365405 0.375406 0.385406 0.395407 0.405407
0.415408 0.425408 0.435408 0.445408 0.455408 0.465408 0.475408 0.485407 0.495407 0.505407
0.515406 0.525406 0.535406 0.545405 0.555405 0.565404 0.575404 0.585404 0.595403 0.605402
0 3.00312e-06 0.0106584 0.0210891 0.0314096 0.0416532 0.0518415 0.061989 0.0721059 0.0821993
0.0922747 0.102336 0.112386 0.122427 0.132462 0.14249 0.152514 0.162534 0.172551 0.182565
0.192577 0.202588 0.212597 0.222604 0.232611 0.242616 0.252621 0.262625 0.272628 0.282631
0.292634 0.302636 0.312638 0.322639 0.332641 0.342642 0.352643 0.362643 0.372644 0.382644
0.392644 0.402645 0.412645 0.422645 0.432645 0.442645 0.452645 0.462644 0.472644 0.482644
0.492643 0.502643 0.512643 0.522642 0.532642 0.542641 0.552641 0.56264 0.57264 0.582639
0 0 0 0.0103163 0.0205569 0.0307432 0.0408895 0.0510056 0.0610985 0.0711735
0.0812346 0.0912846 0.101326 0.11136 0.121388 0.131412 0.141432 0.151449 0.161464 0.171476
0.181486 0.191495 0.201502 0.211509 0.221514 0.231519 0.241523 0.251527 0.26153 0.271532
0.281534 0.291536 0.301538 0.311539 0.32154 0.331541 0.341541 0.351542 0.361542 0.371543
0.381543 0.391543 0.401543 0.411543 0.421543 0.431543 0.441542 0.451542 0.461542 0.471542
0.481541 0.491541 0.50154 0.51154 0.52154 0.531539 0.541539 0.551538 0.561537 0
0.000361398 0.001572 0.00320091 0.00364282 0.00647644 0.00978024 0.0128482 0.0186201 0.0240276 0.0347788
0.0451967 0.0554944 0.0657466 0.0759629 0.0861463 0.0963003 0.106428 0.116534 0.126622 0.136694
0.146754 0.156804 0.166846 0.17688 0.186909 0.196933 0.206954 0.216971 0.226986 0.236998
0.247009 0.257018 0.267026 0.277033 0.287038 0.297043 0.307047 0.317051 0.327054 0.337057
0.347059 0.357061 0.367062 0.377064 0.387065 0.397066 0.407066 0.417067 0.427067 0.437068
0.447068 0.457068 0.467068 0.477068 0.487068 0.497068 0.507068 0.517067 0.527067 0.537067
0.547066 0.557066 0.567066 0.577065 0.587065 0.597064 0.607064 0.617063 0.627063 0
6.65985e-07 8.33976e-06 0.0107076 0.0211256 0.0314225 0.0416743 0.0518902 0.0620734 0.0722271 0.082355
0.0924609 0.102548 0.112621 0.122681 0.13273 0.142772 0.152806 0.162835 0.172859 0.18288
0.192897 0.202912 0.212924 0.222935 0.232944 0.242952 0.252958 0.262964 0.272969 0.282973
0.292977 0.30298 0.312982 0.322985 0.332987 0.342988 0.352989 0.362991 0.372991 0.382992
0.392993 0.402993 0.412994 0.422994 0.432994 0.442994 0.452994 0.462994 0.472994 0.482994
0.492993 0.502993 0.512993 0.522992 0.532992 0.542991 0.552991 0.562991 0.57299 0.58299
0.592989 0.602989 0 0 1.45212e-06 0.0102937 0.0205435 0.0307582 0.0409404 0.0510934
0.0612206 0.0713259 0.0814129 0.0914849 0.101544 0.111594 0.121635 0.131669 0.141698 0.151722
0.161743 0.17176 0.181775 0.191787 0.201798 0.211807 0.221814 0.231821 0.241827 0.251831
0.261836 0.271839 0.281842 0.291845 0.301847 0.311849 0.32185 0.331852 0.341853 0.351854
0.361854 0.371855 0.381855 0.391856 0.401856 0.411856 0.421856 0.431856 0.441856 0.451856
0.461856 0.471855 0.481855 0.491855 0.501854 0.511854 0.521854 0.531853 0.541853 0.551852
0.561852 0.571851 0.581851 0 2.26782e-17 3.56408e-07 0.0102142 0.020396 0.0305486 0.0406755
0.0507805 0.0608673 0.0709391 0.0809986 0.0910479 0.101089 0.111123 0.121152 0.131176 0.141196
0.151214 0.161228 0.171241 0.181251 0.19126 0.201268 0.211274 0.22128 0.231285 0.241289
0.251293 0.261296 0.271298 0.2813 0.291302 0.301304 0.311305 0.321306 0.331307 0.341308
0.351308 0.361309 0.371309 0.381309 0.391309 0.401309 0.411309 0.421309 0.431309 0.441309
0.451309 0.461308 0.471308 0.481308 0.491307 0.501307 0.511306 0.521306 0.531305 0.541305
0.551304 0.561304 0 2.24644e-06 0.000764824 0.0012762 0.00140363 0.0025198 0.00269436 0.00460561
0.00580276 0.00598864 0.00763527 0.00888915 0.00944779 0.0119914 0.0136783 0.0142359 0.0163181 0.0167391
0.0168633 0.0194119 0.0196315 0.0226332 0.0241121 0.0256897 0.0264785 0.0277924 0.0288973 0.0325721
0.0330626 0.0338339 0.0388753 0.0396307 0.0434887 0.0468138 0.0492601 0.0502714 0.0507482 0.0564358
0.0624494 0.0741072 0.0850494 0.0955436 0.105884 0.116131 0.126307 0.136437 0.146536 0.156613
0.166673 0.176722 0.186761 0.196794 0.20682 0.216843 0.226861 0.236877 0.24689 0.256901
0.266911 0.276919 0.286926 0.296932 0.306937 0.316941 0.326945 0.336948 0.34695 0.356953
0.366955 0.376956 0.386958 0.396959 0.40696 0.41696 0.426961 0.436961 0.446962 0.456962
0.466962 0.476962 0.486962 0.496962 0.506962 0.516961 0.526961 0.536961 0.54696 0.55696
0.56696 0.576959 0.586959 0.596958 0.606958 0.616957 0.626957 0.636956 0.646956 0
1.96184e-05 0.0057718 0.0114526 0.0225591 0.0333211 0.0437968 0.0541358 0.0643921 0.0745882 0.0847403
0.0948598 0.104955 0.115031 0.125093 0.135143 0.145184 0.155219 0.165247 0.175271 0.185291
0.195308 0.205322 0.215334 0.225345 0.235353 0.245361 0.255367 0.265373 0.275378 0.285382
0.295385 0.305388 0.315391 0.325393 0.335395 0.345396 0.355397 0.365398 0.375399 0.3854
0.395401 0.405401 0.415401 0.425402 0.435402 0.445402 0.455402 0.465402 0.475401 0.485401
0.495401 0.505401 0.5154 0.5254 0.535399 0.545399 0.555399 0.565398 0.575398 0.585397
0.595397 0.605396 0 3.00585e-06 0.010657 0.0210891 0.0314096 0.0416533 0.0518418 0.0619894
0.0721063 0.0821998 0.0922752 0.102336 0.112387 0.122428 0.132462 0.142491 0.152514 0.162535
0.172551 0.182566 0.192578 0.202588 0.212597 0.222605 0.232611 0.242617 0.252621 0.262625
0.272629 0.282632 0.292634 0.302636 0.312638 0.32264 0.332641 0.342642 0.352643 0.362644
0.372644 0.382645 0.392645 0.402645 0.412645 0.422645 0.432645 0.442645 0.452645 0.462645
0.472645 0.482644 0.492644 0.502644 0.512643 0.522643 0.532642 0.542642 0.552641 0.562641
0.57264 0.58264 0 4.58047e-17 0.0103161 0.0205565 0.0307429 0.0408892 0.0510052 0.0610982
0.0711732 0.0812343 0.0912843 0.101325 0.11136 0.121388 0.131412 0.141432 0.151449 0.161463
0.171475 0.181486 0.191495 0.201502 0.211509 0.221514 0.231519 0.241523 0.251526 0.261529
0.271532 0.281534 0.291536 0.301537 0.311538 0.32154 0.33154 0.341541 0.351542 0.361542
0.371542 0.381543 0.391543 0.401543 0.411543 0.421542 0.431542 0.441542 0.451542 0.461542
0.471541 0.481541 0.49154 0.50154 0.51154 0.521539 0.531539 0.541538 0.551538 0.561537

U 3 811 float
9.87273 -0.497068 1.77107 9.87328 -0.496954 1.77148 8.97576 -0.422407 1.73511 8.51572 -0.389551
1.69625 8.45609 -0.386823 1.68437 7.25123 -0.339845 1.76828 7.0485 -0.331607 1.77198
8.7308 -0.740883 3.11144 7.70918 -1.31606 3.32623 7.9204 -1.33284 3.41338 7.17349
-2.47187 4.20235 6.19332 -3.00784 4.25617 5.78828 -3.27033 4.05476 4.41309 -4.22852
3.16308 4.62977 -4.10811 2.99731 4.64387 -4.13521 2.84439 4.80701 -4.20351 2.01475
4.89525 -4.23438 1.95293 4.91752 -4.23406 1.93395 5.17844 -4.28527 2.02022 5.22205
-4.28677 2.04205 5.3159 -4.09884 2.39765 5.30407 -4.09416 2.4251 5.33134 -3.93047
2.47372 5.20892 -3.77746 2.3909 5.19213 -3.72199 2.38651 5.10286 -3.72253 2.38529
5.07899 -3.68282 2.37237 5.09359 -3.55895 2.0142 5.12483 -3.54289 1.74703 5.06748
-3.56484 1.81173 5.13461 -3.1452 0.206345 5.26378 -3.04678 -0.00214951 6.48095 -2.36337
-1.95287 7.08335 -1.9673 -2.20595 7.02485 -1.9932 -2.12733 7.02107 -1.99509 -2.12186
7.24603 -1.83478 -1.94085 8.25038 -1.01809 -1.19473 8.46533 -0.818798 -0.828006 9.0477
-0.26123 -0.496261 9.49674 -0.143806 -0.237467 9.65315 -0.107812 -0.15363 9.75049 -0.0541646
-0.10999 9.82218 -0.0220471 -0.0812427 9.86879 -0.00576377 -0.0615174 9.90049 0.00231446 -0.0477278
9.92299 0.00599743 -0.0378794 9.93931 0.00741397 -0.0306837 9.95142 0.00764544 -0.0252952 9.96062
0.00728827 -0.0211817 9.96776 0.00666633 -0.0179887 9.97337 0.00595311 -0.0154687 9.97785 0.00523932
-0.0134485 9.98147 0.00457017 -0.0118063 9.98442 0.00396434 -0.0104532 9.98684 0.0034268 -0.00932504
9.98885 0.0029567 -0.00837377 9.99053 0.00254867 -0.00756213 9.99193 0.00219603 -0.00686352 9.99312
0.00189279 -0.00625674 9.99412 0.00163252 -0.0057247 9.99498 0.00140871 -0.0052543 9.99571 0.00121671
-0.00483566 9.99633 0.00105228 -0.00446113 9.99687 0.000910699 -0.00412341 9.99734 0.000788589 -0.00381713
9.99774 0.000683474 -0.00353854 9.99809 0.00059326 -0.00328376 9.99839 0.00051552 -0.00304985 9.99865
0.000447738 -0.00283455 9.99889 0.000389252 -0.0026355 9.99909 0.000339056 -0.00245096 9.99927 0.000295191
-0.002279 9.99942 0.000256919 -0.00211874 9.99956 0.000223807 -0.0019693 9.99968 0.000195466 -0.00182896
9.99979 0.000171003 -0.00169702 9.99989 0.000148886 -0.00157329 9.99996 0.000129918 -0.0014569 10
0.000113678 -0.00134699 10.0001 9.89252e-05 -0.00124303 10.0002 8.62338e-05 -0.00114426 10.0002 7.5423e-05
-0.00105037 10.0003 6.58835e-05 -0.000961215 10.0003 5.72791e-05 -0.000876564 10.0003 5.03263e-05 -0.000795537
10.0004 4.45746e-05 -0.000717097 10.0004 3.92862e-05 -0.000641827 10.0004 3.45676e-05 -0.000569478 10.0005
3.06214e-05 -0.000499084 10.0005 2.74648e-05 -0.000431126 10.0005 2.47643e-05 -0.000364596 10.0005 2.16276e-05
-0.00029853 10.0005 1.72446e-05 -0.000232648 10.0006 1.24105e-05 -0.000169395 10.0006 6.60619e-06 -9.7312e-05
10.0006 3.16977e-06 -5.53832e-05 8.64877 -1.24656 -0.144778 8.64906 -1.24546 -0.145458 8.79682
-0.897567 -0.211965 9.00024 -0.647293 -0.196731 9.29047 -0.349298 -0.219181 9.5548 -0.221339
-0.121644 9.67246 -0.149288 -0.0939724 9.75072 -0.0873935 -0.0791459 9.80815 -0.0466393 -0.0656415
9.85046 -0.0232092 -0.0538055 9.88205 -0.0100248 -0.0441042 9.90601 -0.00272054 -0.0363807 9.92443
0.00111643 -0.0302758 9.93872 0.00294084 -0.0254199 9.94991 0.00368391 -0.0215475 9.95878 0.00384564
-0.0184536 9.96586 0.00370325 -0.0159629 9.97158 0.00341443 -0.0139356 9.97622 0.00306828 -0.0122678
9.98001 0.0027141 -0.0108826 9.98314 0.00237691 -0.00972043 9.98573 0.00206831 -0.00873704 9.98788
0.00179311 -0.00789681 9.98969 0.00155079 -0.00717156 9.99121 0.00133939 -0.00654082 9.99249 0.00115652
-0.00598791 9.99357 0.000998187 -0.00549916 9.9945 0.000861729 -0.00506429 9.99529 0.000745005 -0.00467461
9.99596 0.000644141 -0.00432329 9.99654 0.000556938 -0.00400471 9.99705 0.000482752 -0.00371467 9.99748
0.000419112 -0.00345001 9.99786 0.000363599 -0.00320669 9.99819 0.000315469 -0.00298221 9.99847 0.000274084
-0.00277511 9.99872 0.000238234 -0.00258307 9.99894 0.000207056 -0.00240406 9.99913 0.000180555 -0.00223746
9.9993 0.00015755 -0.00208199 9.99945 0.000137178 -0.00193651 9.99958 0.000119011 -0.00179972 9.9997
0.000103565 -0.00167069 9.9998 9.10809e-05 -0.00154973 9.99989 7.97498e-05 -0.0014357 9.99997 6.93334e-05
-0.00132761 10 6.03615e-05 -0.00122543 10.0001 5.2848e-05 -0.00112846 10.0002 4.60924e-05 -0.00103637
10.0002 4.02962e-05 -0.000948857 10.0003 3.52054e-05 -0.000864842 10.0003 3.02701e-05 -0.000784351 10.0003
2.66185e-05 -0.000707686 10.0004 2.39442e-05 -0.000634221 10.0004 2.16509e-05 -0.00056286 10.0004 1.99406e-05
-0.000493391 10.0004 1.85119e-05 -0.000425834 10.0004 1.69053e-05 -0.000359702 10.0005 1.52323e-05 -0.000294623
10.0005 1.25698e-05 -0.000229782 10.0005 9.08397e-06 -0.000167454 10.0005 4.96184e-06 -9.59081e-05 10.0005
2.47297e-06 -5.42207e-05 9.38219 -0.299581 -0.217973 9.38225 -0.299556 -0.217946 9.5871 -0.213725
-0.135401 9.68946 -0.142665 -0.103171 9.76221 -0.0825315 -0.0847694 9.81517 -0.044414 -0.068975
9.8546 -0.0224566 -0.0558865 9.88449 -0.00999446 -0.0454627 9.90742 -0.00302212 -0.037302 9.92521
0.000688958 -0.0309222 9.93913 0.00247698 -0.0258909 9.95012 0.00323184 -0.0219006 9.95887 0.00342822
-0.0187233 9.96589 0.00332915 -0.0161719 9.97157 0.00308488 -0.0140997 9.97619 0.00278116 -0.0123983
9.97998 0.00246545 -0.0109873 9.98311 0.00216232 -0.00980512 9.9857 0.00188354 -0.00880617 9.98785
0.0016341 -0.00795372 9.98966 0.00141405 -0.00721871 9.99118 0.00122177 -0.00658007 9.99247 0.00105528
-0.00602078 9.99356 0.000910981 -0.00552685 9.99448 0.00078649 -0.00508776 9.99528 0.000680047 -0.00469459
9.99596 0.000587992 -0.00434041 9.99654 0.000508329 -0.00401938 9.99704 0.000440741 -0.0037273 9.99748
0.000382747 -0.00346098 9.99786 0.000331914 -0.00321618 9.99819 0.000287922 -0.00299042 9.99847 0.000250254
-0.00278235 9.99872 0.000217479 -0.00258947 9.99894 0.000188977 -0.00240965 9.99913 0.000164892 -0.00224243
9.9993 0.000143907 -0.00208643 9.99945 0.000125243 -0.00194037 9.99958 0.000108524 -0.00180317 9.9997
9.44042e-05 -0.00167381 9.9998 8.31635e-05 -0.00155246 9.99989 7.28318e-05 -0.0014381 9.99998 6.32519e-05
-0.00132976 10 5.50699e-05 -0.00122736 10.0001 4.82376e-05 -0.00113018 10.0002 4.20618e-05 -0.0010379
10.0002 3.6773e-05 -0.000950182 10.0003 3.21414e-05 -0.000866019 10.0003 2.75648e-05 -0.000785457 10.0003
2.41897e-05 -0.0007087 10.0004 2.17961e-05 -0.000635117 10.0004 1.98618e-05 -0.000563608 10.0004 1.84383e-05
-0.000493979 10.0004 1.73132e-05 -0.000426241 10.0004 1.59543e-05 -0.000360015 10.0005 1.43881e-05 -0.00029489
10.0005 1.19477e-05 -0.000229969 10.0005 8.6924e-06 -0.000167592 10.0005 4.75277e-06 -9.59525e-05 10.0005
2.34763e-06 -5.42021e-05 9.69337 -0.14108 -0.110298 9.69337 -0.14108 -0.110298 9.69337 -0.14108
-0.110298 9.76511 -0.0814669 -0.0891568 9.81708 -0.0439294 -0.0716962 9.85582 -0.0223035 -0.0576338
9.88526 -0.0100101 -0.0466213 9.90791 -0.0031161 -0.0380938 9.92552 0.000566075 -0.0314797 9.93933
0.00234672 -0.0262962 9.95025 0.00310603 -0.0222024 9.95895 0.00331246 -0.018952 9.96594 0.00322557
-0.0163477 9.9716 0.0029937 -0.0142367 9.97622 0.00270175 -0.0125064 9.98 0.00239671 -0.0110735
9.98312 0.00210303 -0.00987451 9.98571 0.0018325 -0.00886254 9.98786 0.0015902 -0.00799992 9.98967
0.00137629 -0.00725682 9.99119 0.00118931 -0.00661171 9.99248 0.00102735 -0.00604722 9.99356 0.000886929
-0.00554908 9.99449 0.000765744 -0.00510656 9.99528 0.00066214 -0.00471058 9.99596 0.000572516 -0.00435407
9.99654 0.000494936 -0.0040311 9.99705 0.000429169 -0.00373739 9.99748 0.000372726 -0.00346971 9.99786
0.000323189 -0.00322376 9.99819 0.000280342 -0.00299703 9.99848 0.000243688 -0.00278815 9.99873 0.000211759
-0.00259458 9.99894 0.000184001 -0.00241415 9.99914 0.000160577 -0.00224642 9.9993 0.000140146 -0.00208996
9.99945 0.000121959 -0.0019435 9.99959 0.000105637 -0.00180596 9.9997 9.18784e-05 -0.00167631 9.9998
8.09852e-05 -0.00155468 9.99989 7.09313e-05 -0.00144009 9.99998 6.15809e-05 -0.00133154 10 5.36165e-05
-0.00122895 10.0001 4.69732e-05 -0.0011316 10.0002 4.09554e-05 -0.00103917 10.0002 3.58062e-05 -0.00095131
10.0003 3.13016e-05 -0.000867023 10.0003 2.68209e-05 -0.000786373 10.0003 2.35208e-05 -0.000709526 10.0004
2.12056e-05 -0.000635849 10.0004 1.937e-05 -0.000564235 10.0004 1.80252e-05 -0.00049449 10.0004 1.69956e-05
-0.000426637 10.0004 1.57103e-05 -0.000360337 10.0005 1.41666e-05 -0.000295149 10.0005 1.178e-05 -0.00023015
10.0005 8.58606e-06 -0.00016772 10.0005 4.70409e-06 -9.60329e-05 10.0005 2.32675e-06 -5.4255e-05 7.82345
0.000249759 1.15977 7.82755 -0.000529339 1.14773 7.86573 -0.00281166 1.15995 7.71304 -0.00433386
1.14292 7.72144 -0.00462639 1.13899 7.51409 -0.00486075 0.331115 8.10849 -0.00402428 -0.61024
8.64876 -0.00323814 -0.884988 9.24279 -0.00260657 -0.811724 9.30084 -0.00209311 -0.554819 9.59873
-0.00102978 -0.312402 9.71091 -0.000578553 -0.200636 9.75401 -0.000334716 -0.140526 9.78835 -0.000190135
-0.104261 9.81987 -0.000107082 -0.0807079 9.84837 -5.89196e-05 -0.0641809 9.87353 -3.12014e-05 -0.051869
9.89512 -1.51594e-05 -0.0424277 9.91319 -6.41403e-06 -0.0350955 9.92809 -1.96298e-06 -0.0293237 9.94036
5.33128e-07 -0.0247285 9.95046 1.24558e-06 -0.0210539 9.95875 1.52437e-06 -0.0181018 9.96555 2.21335e-06
-0.0157096 9.97113 2.47633e-06 -0.0137508 9.97573 2.33823e-06 -0.012132 9.97953 2.05277e-06 -0.0107813
9.98269 1.76529e-06 -0.00964387 9.98532 1.59564e-06 -0.00867803 9.98752 1.32237e-06 -0.00785036 9.98937
9.83982e-07 -0.00713547 9.99093 8.78465e-07 -0.00651231 9.99225 5.35254e-07 -0.00596447 9.99336 2.34788e-07
-0.00547968 9.99431 2.46035e-07 -0.00504807 9.99513 1.93378e-07 -0.0046613 9.99583 1.77622e-07 -0.00431188
9.99643 1.42908e-07 -0.00399473 9.99694 8.74627e-08 -0.00370632 9.99739 3.05714e-08 -0.00344276 9.99778
-3.13053e-08 -0.00320018 9.99812 -2.21708e-07 -0.00297677 9.99841 -4.25292e-07 -0.00277029 9.99867 -3.62049e-07
-0.00257855 9.99889 -8.67274e-08 -0.00240058 9.99909 -1.86168e-07 -0.00223406 9.99926 -4.48536e-07 -0.00207808
9.99942 -5.13216e-07 -0.00193314 9.99955 -6.50232e-07 -0.00179723 9.99967 -9.75791e-07 -0.00166859 9.99977
-1.37354e-06 -0.00154728 9.99987 -1.27027e-06 -0.00143317 9.99996 -7.22243e-07 -0.00132554 10 -4.11984e-07
-0.00122346 10.0001 -5.439e-07 -0.00112679 10.0002 -5.68975e-07 -0.00103521 10.0002 -5.51606e-07 -0.000947445
10.0002 -2.6716e-07 -0.000863347 10.0003 9.30987e-08 -0.000783426 10.0003 2.14295e-07 -0.000706778 10.0004
7.42752e-07 -0.000632682 10.0004 1.6139e-06 -0.000561272 10.0004 2.6614e-06 -0.000491955 10.0004 3.78548e-06
-0.000424198 10.0004 4.69285e-06 -0.00035816 10.0005 4.82282e-06 -0.000293193 10.0005 4.58099e-06 -0.000228882
10.0005 3.93431e-06 -0.000167345 10.0005 1.80856e-06 -9.59251e-05 10.0005 2.94377e-07 -5.41098e-05 9.30778
-0.00172757 -0.579678 9.30779 -0.00172755 -0.579663 9.33929 -0.0017045 -0.593706 9.59863 -0.000882109
-0.323041 9.71166 -0.000460614 -0.207161 9.75445 -0.000245955 -0.144594 9.78864 -0.000132142 -0.106872
9.82011 -7.19131e-05 -0.0824447 9.84857 -3.88048e-05 -0.0653648 9.8737 -2.04469e-05 -0.0526902 9.89525
-1.00097e-05 -0.0430069 9.9133 -4.5379e-06 -0.0355125 9.92818 -1.90151e-06 -0.0296302 9.94044 -3.19486e-07
-0.0249576 9.95053 -3.10948e-08 -0.0212274 9.9588 1.02925e-07 -0.0182347 9.96559 8.00945e-07 -0.0158125
9.97116 1.15272e-06 -0.0138313 9.97576 1.13774e-06 -0.0121957 9.97956 9.76696e-07 -0.0108321 9.98272
8.08117e-07 -0.00968473 9.98534 7.60709e-07 -0.00871118 9.98754 6.0645e-07 -0.00787748 9.98938 3.61488e-07
-0.00715782 9.99094 3.33245e-07 -0.00653084 9.99226 6.77878e-08 -0.00597993 9.99337 -1.64711e-07 -0.00549266
9.99432 -9.99282e-08 -0.00505902 9.99514 -1.0665e-07 -0.0046706 9.99583 -8.09221e-08 -0.00431981 9.99643
-8.05197e-08 -0.00400152 9.99695 -1.05807e-07 -0.00371217 9.99739 -1.36992e-07 -0.00344783 9.99778 -1.77912e-07
-0.00320459 9.99812 -3.48688e-07 -0.00298062 9.99842 -5.37573e-07 -0.00277364 9.99867 -4.62137e-07 -0.00258148
9.99889 -1.7031e-07 -0.00240318 9.99909 -2.53822e-07 -0.00223637 9.99927 -5.0571e-07 -0.00208012 9.99942
-5.66427e-07 -0.00193495 9.99955 -6.99956e-07 -0.00179885 9.99967 -1.01768e-06 -0.00167004 9.99978 -1.41249e-06
-0.00154858 9.99987 -1.30895e-06 -0.00143433 9.99996 -7.47207e-07 -0.00132657 10 -4.26791e-07 -0.0012244
10.0001 -5.65473e-07 -0.00112764 10.0002 -5.94102e-07 -0.00103597 10.0002 -5.73636e-07 -0.000948116 10.0002
-2.85496e-07 -0.00086394 10.0003 7.92495e-08 -0.000783953 10.0003 2.04112e-07 -0.000707248 10.0004 7.38794e-07
-0.000633097 10.0004 1.61655e-06 -0.000561634 10.0004 2.67147e-06 -0.000492265 10.0004 3.79423e-06 -0.000424457