/*--------------------------------*- C++ -*----------------------------------*\
  =========                 |
  \\      /  F ield         | OpenFOAM: The Open Source CFD Toolbox
   \\    /   O peration     | Website:  https://openfoam.org
    \\  /    A nd           | Version:  11
     \\/     M anipulation  |
\*---------------------------------------------------------------------------*/
FoamFile
{
    format      ascii;
    class       volScalarField;
    location    "0.064";
    object      k;
}
// * * * * * * * * * * * * * * * * * * * * * * * * * * * * * * * * * * * * * //

dimensions      [0 2 -2 0 0 0 0];

internalField   nonuniform List<scalar> 
287084
(
0.381236
0.39513
0.40844
0.418227
0.423743
0.425794
0.426055
0.426021
0.425888
0.425912
0.426101
0.426017
0.426109
0.42617
0.426156
0.426154
0.426061
0.426046
0.425915
0.425972
0.426215
0.426099
0.42619
0.426269
0.426264
0.426262
0.426063
0.426122
0.42628
0.426274
0.426286
0.426263
0.426238
0.426139
0.426075
0.426026
0.425881
0.425888
0.425893
0.425843
0.425695
0.425712
0.425736
0.425686
0.425683
0.425629
0.42551
0.425459
0.425566
0.425474
0.425526
0.4257
0.425723
0.425727
0.425673
0.425514
0.425527
0.425585
0.425443
0.425547
0.425632
0.425578
0.425485
0.425544
0.42581
0.425821
0.425808
0.42561
0.425629
0.425789
0.425788
0.425755
0.425593
0.425637
0.425717
0.425798
0.425806
0.425783
0.425794
0.425704
0.425724
0.425693
0.425814
0.42589
0.42588
0.425872
0.425638
0.425586
0.425615
0.425484
0.381288
0.39506
0.408223
0.418076
0.423691
0.425857
0.426149
0.425996
0.426044
0.426284
0.426337
0.426299
0.426236
0.42623
0.426174
0.425994
0.425966
0.426057
0.426077
0.426101
0.426047
0.426213
0.426523
0.426526
0.426491
0.42649
0.426459
0.426391
0.426167
0.426153
0.426264
0.426172
0.426237
0.426257
0.426187
0.426195
0.426148
0.426038
0.425918
0.426052
0.426145
0.426112
0.426083
0.425906
0.425962
0.426078
0.425985
0.426034
0.426053
0.426034
0.42601
0.425745
0.425711
0.425753
0.425686
0.42568
0.425679
0.425636
0.425574
0.425618
0.425593
0.425731
0.425875
0.425853
0.425849
0.425695
0.425784
0.425949
0.425918
0.425857
0.425786
0.42595
0.426078
0.426036
0.42604
0.426012
0.425815
0.425766
0.425849
0.425822
0.425846
0.42585
0.425822
0.425751
0.425859
0.425943
0.425878
0.42588
0.425835
0.425616
0.381292
0.395045
0.408216
0.418062
0.423573
0.425916
0.426354
0.42634
0.426288
0.426223
0.426244
0.426197
0.426232
0.426239
0.426206
0.426139
0.426238
0.426389
0.426381
0.426377
0.426192
0.426219
0.426288
0.426399
0.426557
0.426526
0.426489
0.42642
0.426403
0.426412
0.426425
0.426391
0.426368
0.426315
0.426271
0.42619
0.426077
0.426041
0.425976
0.426074
0.426136
0.425969
0.426037
0.42607
0.42605
0.426045
0.425874
0.425953
0.42606
0.426052
0.426051
0.425985
0.425963
0.425839
0.425669
0.425733
0.425801
0.42563
0.425627
0.425736
0.425721
0.425777
0.425786
0.425739
0.425673
0.425791
0.426013
0.426038
0.426
0.425913
0.425935
0.425901
0.425854
0.425706
0.425732
0.42578
0.425659
0.425647
0.425688
0.425691
0.425584
0.425638
0.425856
0.42583
0.42583
0.425843
0.425852
0.42583
0.425769
0.425571
0.381265
0.395078
0.408222
0.417963
0.423552
0.425966
0.42644
0.426428
0.426375
0.426298
0.426411
0.426464
0.426422
0.42635
0.426232
0.426339
0.426464
0.426375
0.426401
0.426424
0.42639
0.42638
0.426377
0.426214
0.426243
0.426268
0.426212
0.426219
0.426139
0.426303
0.426462
0.426462
0.426461
0.426386
0.426397
0.426365
0.426336
0.426264
0.426004
0.426027
0.426102
0.426059
0.425926
0.425903
0.426001
0.425988
0.425999
0.426001
0.425978
0.42578
0.425815
0.425859
0.425851
0.42585
0.425778
0.425769
0.4257
0.425605
0.425737
0.425931
0.425937
0.425936
0.425796
0.42578
0.425679
0.425781
0.425966
0.425774
0.425845
0.426006
0.425952
0.425837
0.425822
0.425851
0.425713
0.425767
0.425986
0.426099
0.426095
0.426124
0.426083
0.42587
0.425833
0.425941
0.425965
0.425927
0.425768
0.425815
0.425858
0.425654
0.381261
0.395088
0.408199
0.417934
0.423645
0.42581
0.426061
0.426148
0.42632
0.426256
0.426177
0.426263
0.426354
0.426311
0.426161
0.426158
0.426249
0.426146
0.426172
0.42619
0.426179
0.426093
0.426153
0.42632
0.42634
0.426314
0.426295
0.426255
0.426263
0.426272
0.426288
0.426291
0.42626
0.426248
0.426195
0.426021
0.425986
0.426258
0.426372
0.426358
0.42635
0.426219
0.4262
0.426142
0.426103
0.426062
0.426013
0.425973
0.42591
0.425779
0.425694
0.425738
0.425757
0.425739
0.425759
0.425708
0.425675
0.425596
0.425689
0.42575
0.425689
0.425674
0.425639
0.425646
0.425591
0.425564
0.425553
0.425681
0.425743
0.425724
0.42567
0.425723
0.426026
0.426079
0.426052
0.425995
0.425987
0.425892
0.425859
0.425829
0.425788
0.425771
0.425728
0.425593
0.425622
0.425818
0.425825
0.42584
0.425793
0.425641
0.381258
0.395064
0.408218
0.418038
0.423541
0.425475
0.425739
0.425842
0.426223
0.426285
0.426256
0.42622
0.426188
0.426054
0.425937
0.426036
0.426066
0.426138
0.426247
0.426234
0.426207
0.426191
0.426089
0.426158
0.426263
0.426069
0.426091
0.426353
0.426409
0.426366
0.426279
0.426269
0.426207
0.426168
0.426058
0.426133
0.426196
0.426078
0.426124
0.426178
0.426149
0.426122
0.426072
0.425986
0.425923
0.425786
0.425744
0.425845
0.425908
0.425886
0.425881
0.425755
0.425716
0.425856
0.425921
0.425884
0.425848
0.425753
0.425764
0.425857
0.425916
0.425882
0.425796
0.425782
0.425639
0.425702
0.425963
0.42602
0.425986
0.425922
0.425926
0.425877
0.425716
0.425751
0.425949
0.425886
0.425921
0.425988
0.425965
0.425909
0.425883
0.425678
0.425662
0.425875
0.425963
0.425931
0.425814
0.425818
0.425806
0.425673
0.381232
0.395078
0.408226
0.418025
0.423559
0.425505
0.426114
0.426131
0.426124
0.42612
0.425924
0.425882
0.42626
0.426549
0.426414
0.426499
0.426766
0.426777
0.42673
0.426618
0.426618
0.426577
0.426496
0.426455
0.426587
0.426644
0.426593
0.426414
0.42644
0.426498
0.426348
0.426271
0.426251
0.426241
0.426312
0.42633
0.426274
0.426072
0.426083
0.42626
0.426271
0.426234
0.426026
0.42607
0.426141
0.426093
0.425982
0.425935
0.425976
0.426043
0.426007
0.425809
0.425857
0.425882
0.425865
0.425816
0.425815
0.425918
0.42585
0.425872
0.42588
0.425847
0.425666
0.425684
0.425834
0.425748
0.425776
0.425811
0.425779
0.425636
0.425699
0.425793
0.425731
0.425672
0.425756
0.425943
0.425903
0.425913
0.425873
0.425758
0.425708
0.425809
0.425886
0.425866
0.425823
0.425704
0.425778
0.425957
0.425921
0.425775
0.381251
0.395078
0.408274
0.417837
0.423459
0.426098
0.426779
0.42696
0.426951
0.426971
0.426889
0.426898
0.426917
0.426912
0.426912
0.426872
0.426811
0.426753
0.426753
0.426649
0.426726
0.426793
0.426728
0.426723
0.426724
0.426642
0.426629
0.426671
0.426624
0.426618
0.426609
0.426611
0.426566
0.426367
0.426261
0.426225
0.426193
0.426116
0.426232
0.426383
0.426374
0.426366
0.426151
0.42618
0.426271
0.426191
0.426188
0.426172
0.426069
0.426007
0.426044
0.425957
0.426062
0.426192
0.426092
0.426089
0.42602
0.426088
0.426115
0.426095
0.426094
0.426034
0.42583
0.425832
0.425839
0.425723
0.425653
0.425753
0.425894
0.42581
0.425855
0.425943
0.425914
0.425869
0.425727
0.425803
0.42606
0.426062
0.426029
0.425992
0.42594
0.425724
0.425728
0.425973
0.426003
0.425955
0.425773
0.425817
0.4259
0.425672
0.381245
0.395067
0.408239
0.417999
0.423481
0.425745
0.426159
0.426149
0.426113
0.425993
0.425948
0.426195
0.426546
0.426578
0.426501
0.426501
0.426529
0.426524
0.426698
0.426838
0.426794
0.426821
0.42681
0.426643
0.426703
0.426767
0.426734
0.42673
0.426737
0.426734
0.426617
0.426577
0.426499
0.42625
0.426241
0.426293
0.426227
0.426209
0.426172
0.426051
0.426134
0.426283
0.426069
0.426107
0.426251
0.426225
0.426215
0.426226
0.426237
0.426205
0.426171
0.425957
0.425888
0.425856
0.425806
0.425645
0.425703
0.425911
0.425886
0.42585
0.425664
0.425734
0.42591
0.425929
0.42589
0.425796
0.425779
0.425616
0.425633
0.425968
0.426026
0.425992
0.425948
0.425835
0.425802
0.425698
0.425754
0.426093
0.426144
0.426121
0.426101
0.426062
0.426001
0.425809
0.425848
0.42596
0.425858
0.425882
0.425839
0.425658
0.38126
0.394984
0.408349
0.41797
0.423457
0.425668
0.425995
0.425986
0.425938
0.42602
0.426293
0.426305
0.426294
0.426093
0.426164
0.426376
0.426307
0.426329
0.426335
0.426335
0.426191
0.426255
0.426357
0.426299
0.426304
0.4263
0.426191
0.426174
0.426396
0.426473
0.426441
0.42646
0.426407
0.426204
0.42625
0.426322
0.426271
0.426265
0.426262
0.426266
0.426225
0.426222
0.426172
0.426073
0.425823
0.425691
0.425738
0.425823
0.425776
0.425615
0.425576
0.425693
0.425728
0.42568
0.425504
0.425553
0.425639
0.425479
0.425445
0.425705
0.425849
0.425819
0.425767
0.425645
0.425611
0.4255
0.425504
0.425643
0.425644
0.425715
0.425741
0.425699
0.425566
0.425631
0.425752
0.425596
0.425563
0.425792
0.425899
0.425881
0.425877
0.425708
0.425783
0.426009
0.426025
0.426024
0.425902
0.425851
0.4258
0.425641
0.381262
0.395043
0.408245
0.417959
0.423556
0.425765
0.426081
0.42607
0.426022
0.426083
0.426184
0.42612
0.42608
0.426189
0.426293
0.426139
0.426233
0.426497
0.426386
0.426503
0.426603
0.42659
0.426588
0.426401
0.426476
0.426543
0.426327
0.426396
0.426457
0.426424
0.42638
0.426313
0.426436
0.426518
0.42648
0.426413
0.426377
0.426371
0.426328
0.4263
0.42629
0.426187
0.425917
0.425827
0.425776
0.425613
0.425681
0.425901
0.42589
0.425888
0.425812
0.425874
0.425895
0.42585
0.425698
0.425728
0.425757
0.42565
0.425589
0.425703
0.425835
0.425793
0.4257
0.425616
0.42575
0.425811
0.42576
0.425622
0.425573
0.425706
0.425807
0.425777
0.425686
0.425782
0.425826
0.425777
0.425771
0.42566
0.425738
0.425958
0.425812
0.425777
0.425925
0.426026
0.425981
0.425813
0.425851
0.425905
0.425857
0.425704
0.381236
0.395087
0.408216
0.417981
0.423522
0.425766
0.426308
0.426341
0.426309
0.4263
0.426189
0.426246
0.426515
0.426671
0.426725
0.426611
0.426639
0.4266
0.426464
0.426519
0.426691
0.426602
0.426549
0.426546
0.42653
0.426664
0.426764
0.426731
0.426721
0.426725
0.426737
0.426699
0.426701
0.426626
0.426567
0.426502
0.426444
0.426339
0.426176
0.426052
0.425954
0.425876
0.425827
0.425686
0.425752
0.425823
0.42579
0.425739
0.425692
0.425788
0.425727
0.425826
0.426007
0.42598
0.425944
0.425891
0.425717
0.425691
0.425715
0.425616
0.425573
0.425604
0.425567
0.425676
0.425938
0.425942
0.425924
0.425732
0.425677
0.425893
0.425976
0.425924
0.42578
0.425731
0.425861
0.425919
0.425863
0.425692
0.425634
0.425824
0.425894
0.425859
0.425752
0.425819
0.425945
0.425935
0.425929
0.425812
0.425779
0.425616
0.381252
0.395071
0.40829
0.417796
0.423507
0.426077
0.426605
0.426599
0.426506
0.426584
0.426747
0.426537
0.426564
0.426711
0.426555
0.426635
0.426801
0.426787
0.426786
0.426607
0.426694
0.426861
0.426678
0.426644
0.426825
0.426887
0.426801
0.426839
0.426848
0.426801
0.426679
0.426631
0.426546
0.426492
0.426337
0.426343
0.426405
0.426406
0.426398
0.426131
0.426141
0.426187
0.426172
0.426164
0.425956
0.426008
0.426128
0.426107
0.42614
0.4261
0.426078
0.426091
0.426072
0.425877
0.425769
0.425841
0.425933
0.425884
0.425682
0.425689
0.425919
0.42599
0.425966
0.425905
0.425898
0.425813
0.425682
0.425752
0.425861
0.425779
0.425829
0.425893
0.425867
0.425865
0.425731
0.425807
0.426026
0.426002
0.425965
0.425784
0.425849
0.42595
0.425951
0.42595
0.425838
0.425771
0.425828
0.425872
0.425827
0.425687
0.381255
0.395029
0.408241
0.418068
0.423512
0.425482
0.426005
0.426023
0.425854
0.425951
0.426041
0.425908
0.425989
0.426034
0.425881
0.425942
0.426193
0.426103
0.426222
0.426362
0.426208
0.426172
0.426294
0.426307
0.426451
0.426705
0.426541
0.426621
0.426669
0.426621
0.426471
0.426473
0.426477
0.426418
0.426297
0.426312
0.426366
0.426186
0.426227
0.42628
0.426245
0.426237
0.426232
0.426244
0.426224
0.426212
0.426037
0.426077
0.426115
0.426101
0.426093
0.425911
0.425796
0.42582
0.425909
0.425863
0.425734
0.425669
0.425811
0.425878
0.425843
0.425789
0.425667
0.42574
0.425799
0.425771
0.42569
0.425719
0.425865
0.42581
0.425877
0.425905
0.425873
0.425841
0.425686
0.425673
0.425649
0.425763
0.426008
0.425845
0.425925
0.42613
0.426122
0.426077
0.426002
0.425883
0.425964
0.426095
0.426047
0.425863
0.381252
0.395077
0.408271
0.417842
0.423432
0.426125
0.426754
0.426756
0.426684
0.426749
0.426881
0.426687
0.426761
0.426862
0.426746
0.426762
0.426754
0.426616
0.426655
0.426797
0.426679
0.426749
0.426895
0.426912
0.426884
0.426899
0.426858
0.426796
0.42678
0.426744
0.426741
0.426742
0.426711
0.426705
0.426635
0.426572
0.426511
0.426405
0.426217
0.426118
0.426028
0.425806
0.42574
0.425916
0.425999
0.425977
0.42598
0.425915
0.425672
0.425691
0.42582
0.425633
0.425615
0.425857
0.425927
0.425873
0.425868
0.425837
0.425825
0.425662
0.425661
0.425948
0.426038
0.425998
0.425851
0.425931
0.426053
0.426023
0.425987
0.425772
0.425811
0.425868
0.425864
0.425863
0.425672
0.425788
0.425982
0.42599
0.425989
0.425783
0.425849
0.425989
0.425909
0.425939
0.425901
0.425841
0.425725
0.425778
0.425828
0.425655
0.381276
0.395096
0.408158
0.417958
0.423578
0.425647
0.426326
0.426349
0.426175
0.426114
0.426218
0.42633
0.426288
0.426132
0.426166
0.42643
0.426473
0.42643
0.426279
0.426342
0.426418
0.426269
0.426324
0.426504
0.426495
0.426444
0.426516
0.426595
0.426389
0.42642
0.426519
0.426341
0.426308
0.426417
0.426432
0.4264
0.426321
0.426289
0.426284
0.426278
0.426264
0.426222
0.426148
0.426139
0.426101
0.426024
0.425783
0.425606
0.425619
0.425569
0.425695
0.425812
0.425799
0.425798
0.425676
0.42582
0.42593
0.425943
0.42625
0.426336
0.426293
0.426206
0.426123
0.426168
0.426184
0.426121
0.426194
0.426222
0.426194
0.426192
0.426119
0.425925
0.425842
0.425925
0.425959
0.425926
0.425793
0.425825
0.425841
0.425675
0.42568
0.425932
0.42603
0.426003
0.42598
0.425841
0.425855
0.425878
0.42583
0.425683
0.381254
0.395095
0.408259
0.417847
0.423358
0.426096
0.426969
0.426995
0.426932
0.426928
0.42688
0.426956
0.427009
0.426983
0.426981
0.426943
0.426873
0.42663
0.42662
0.426755
0.426747
0.426758
0.426736
0.426637
0.426723
0.426875
0.426843
0.426804
0.426747
0.426741
0.426679
0.426659
0.426614
0.426539
0.426497
0.426442
0.426407
0.426362
0.426318
0.426272
0.426183
0.425993
0.425726
0.425749
0.425796
0.425757
0.425698
0.425571
0.425553
0.425468
0.425568
0.425752
0.425722
0.425647
0.425613
0.425803
0.426087
0.426088
0.425857
0.425848
0.42598
0.425845
0.425901
0.42604
0.425947
0.425933
0.425901
0.425902
0.425912
0.425864
0.425674
0.425678
0.425882
0.425959
0.425928
0.425875
0.425721
0.425772
0.425937
0.425883
0.425918
0.42594
0.425902
0.425735
0.425689
0.425774
0.425677
0.425683
0.425803
0.425679
0.381251
0.395082
0.408256
0.417886
0.423345
0.426175
0.42697
0.426983
0.426906
0.426965
0.426996
0.426961
0.426958
0.426773
0.426838
0.426918
0.426701
0.426765
0.426913
0.426695
0.426693
0.426864
0.426901
0.426845
0.426902
0.426952
0.426943
0.426941
0.426859
0.426853
0.426813
0.426787
0.426723
0.426655
0.426604
0.426556
0.426489
0.426353
0.426193
0.426083
0.426016
0.425887
0.425774
0.42573
0.425666
0.425649
0.425539
0.425611
0.425839
0.425864
0.425827
0.425777
0.425644
0.425635
0.42578
0.425897
0.42602
0.42587
0.425968
0.426093
0.425955
0.42604
0.426096
0.426064
0.426048
0.425874
0.42588
0.425897
0.425759
0.425766
0.426025
0.426089
0.426074
0.426073
0.426027
0.425939
0.425879
0.425899
0.42589
0.42589
0.425885
0.425752
0.425834
0.425965
0.425969
0.425968
0.425745
0.42579
0.425866
0.425661
0.381254
0.395092
0.408271
0.417813
0.423424
0.426079
0.426767
0.426929
0.426893
0.426728
0.4268
0.426876
0.42684
0.426724
0.426719
0.426802
0.426605
0.426584
0.426698
0.426708
0.426734
0.426739
0.426653
0.426734
0.426813
0.426728
0.426734
0.426684
0.426678
0.426666
0.426667
0.426629
0.426462
0.426325
0.426269
0.426133
0.426203
0.426298
0.426296
0.426293
0.426212
0.426199
0.426149
0.426088
0.425987
0.425877
0.425796
0.425628
0.425456
0.4256
0.425733
0.425739
0.42574
0.425532
0.425521
0.425787
0.426126
0.426104
0.425927
0.426007
0.426125
0.425975
0.426061
0.426129
0.426088
0.426014
0.425917
0.425967
0.42599
0.425869
0.425922
0.425994
0.425811
0.425896
0.42598
0.425945
0.425892
0.425791
0.42589
0.425979
0.425964
0.425963
0.425897
0.425731
0.425644
0.425718
0.425778
0.425742
0.425703
0.425572
0.381232
0.395158
0.408164
0.417894
0.423506
0.425974
0.42644
0.426445
0.426452
0.426341
0.426415
0.426468
0.426425
0.426282
0.426315
0.426482
0.426347
0.426451
0.426561
0.426554
0.426567
0.426507
0.426673
0.426702
0.426817
0.426905
0.426897
0.426895
0.426826
0.426817
0.42678
0.426769
0.426711
0.426648
0.426576
0.426513
0.426419
0.42634
0.426277
0.42618
0.426054
0.425981
0.425845
0.425718
0.425677
0.425557
0.425593
0.425618
0.425585
0.425561
0.425474
0.425841
0.42632
0.426317
0.426277
0.426328
0.426478
0.426475
0.42646
0.42626
0.426201
0.426226
0.426232
0.426214
0.426228
0.426244
0.426207
0.426102
0.426138
0.426227
0.426196
0.426194
0.426185
0.426178
0.42595
0.425984
0.426033
0.425886
0.425875
0.425875
0.425852
0.425801
0.425766
0.425697
0.42572
0.42576
0.42574
0.425758
0.425714
0.425556
0.381262
0.395058
0.408226
0.417983
0.42355
0.425635
0.425918
0.425814
0.425864
0.426114
0.426143
0.426114
0.426108
0.42596
0.426064
0.426312
0.426275
0.426281
0.426203
0.426316
0.42687
0.426984
0.42689
0.426949
0.426964
0.426923
0.426859
0.426806
0.426747
0.426719
0.426681
0.426645
0.426631
0.426565
0.426472
0.426177
0.426133
0.426167
0.426172
0.426166
0.426039
0.426023
0.425989
0.425912
0.425701
0.425637
0.425755
0.425808
0.425784
0.425794
0.425762
0.425741
0.425688
0.425558
0.425541
0.425474
0.425547
0.425621
0.42558
0.425597
0.425574
0.425584
0.42557
0.425531
0.425411
0.425492
0.425671
0.425619
0.425536
0.425606
0.425869
0.425812
0.425898
0.425981
0.425969
0.425964
0.425781
0.425834
0.426004
0.425924
0.425942
0.425947
0.425938
0.425772
0.425784
0.425811
0.425633
0.425701
0.425824
0.425619
0.381254
0.395069
0.408297
0.417784
0.423524
0.426091
0.426623
0.426637
0.426633
0.426613
0.426497
0.42657
0.426751
0.426715
0.426716
0.426662
0.426661
0.426637
0.426637
0.426572
0.426683
0.426937
0.426873
0.4269
0.427005
0.427001
0.426978
0.42697
0.426863
0.42684
0.426742
0.426464
0.426402
0.426394
0.426418
0.426412
0.426274
0.426255
0.426211
0.426147
0.426077
0.426025
0.425966
0.425927
0.425858
0.425712
0.425501
0.425539
0.425679
0.425673
0.425671
0.425507
0.425612
0.426178
0.426293
0.426267
0.426166
0.426291
0.426452
0.426339
0.426331
0.42633
0.426235
0.426315
0.426386
0.426203
0.426142
0.426132
0.425997
0.426024
0.426168
0.42604
0.426111
0.426281
0.426214
0.426278
0.426315
0.426239
0.426293
0.426309
0.426279
0.426253
0.425992
0.425875
0.425923
0.425949
0.425918
0.425884
0.425828
0.425612
0.381251
0.395079
0.408267
0.417858
0.423402
0.426166
0.426794
0.426675
0.426773
0.426916
0.426788
0.426789
0.42679
0.426793
0.426665
0.426744
0.426907
0.42669
0.426677
0.426875
0.426913
0.42691
0.426908
0.427058
0.427159
0.427065
0.427077
0.427078
0.427069
0.427024
0.42697
0.426887
0.426782
0.426706
0.426608
0.426388
0.426305
0.426209
0.425961
0.425892
0.426032
0.42606
0.426017
0.4259
0.425825
0.425781
0.425661
0.425759
0.425871
0.425871
0.425869
0.425648
0.425688
0.426151
0.426194
0.426315
0.4265
0.426455
0.426484
0.426486
0.426445
0.426279
0.426365
0.426458
0.426215
0.426211
0.426293
0.426118
0.426163
0.426313
0.426227
0.426304
0.42634
0.426233
0.426316
0.426356
0.426326
0.426319
0.426134
0.426183
0.426208
0.426123
0.426152
0.426165
0.426115
0.425941
0.42583
0.425894
0.425917
0.425745
0.38127
0.395027
0.408239
0.418057
0.423415
0.425734
0.426129
0.426068
0.426061
0.425991
0.426063
0.426095
0.425955
0.425921
0.426227
0.426475
0.426399
0.426617
0.426974
0.426938
0.426945
0.426932
0.426933
0.426926
0.426932
0.426894
0.426779
0.426833
0.426865
0.426781
0.426775
0.42677
0.426783
0.426734
0.426625
0.426557
0.426468
0.42631
0.425965
0.425885
0.425924
0.42582
0.425894
0.425923
0.425837
0.425841
0.425826
0.425668
0.425659
0.42574
0.425613
0.425561
0.425614
0.425703
0.425663
0.425507
0.4256
0.425768
0.425683
0.425693
0.425694
0.425638
0.425616
0.425885
0.426048
0.426037
0.426032
0.425919
0.425908
0.425807
0.4259
0.425987
0.425957
0.425863
0.425879
0.42595
0.425745
0.425728
0.425863
0.425862
0.425866
0.425869
0.425858
0.425723
0.42582
0.425965
0.425961
0.425962
0.425898
0.425686
0.381237
0.39512
0.408207
0.417873
0.42357
0.425917
0.426535
0.426533
0.426472
0.426428
0.426497
0.426551
0.426561
0.426524
0.426507
0.426488
0.426493
0.426451
0.426536
0.426627
0.426601
0.426518
0.426565
0.426782
0.426612
0.426607
0.426832
0.426906
0.426886
0.42688
0.426791
0.426524
0.426374
0.426365
0.426361
0.426323
0.426316
0.426274
0.426224
0.426182
0.426009
0.425926
0.425864
0.425758
0.425542
0.425482
0.425508
0.425517
0.425518
0.425348
0.425387
0.425696
0.425726
0.425669
0.425466
0.425441
0.425539
0.425399
0.425427
0.425613
0.425566
0.425642
0.425725
0.425648
0.425697
0.425758
0.425738
0.425716
0.425501
0.42552
0.42572
0.425723
0.425665
0.42573
0.425808
0.425588
0.425646
0.425796
0.425777
0.425775
0.425644
0.425769
0.42595
0.425943
0.425948
0.425919
0.42591
0.425873
0.425835
0.425563
0.381252
0.395074
0.408285
0.417809
0.423495
0.426098
0.426611
0.426609
0.42656
0.426655
0.426817
0.426634
0.426717
0.426872
0.426852
0.42684
0.42687
0.426898
0.426833
0.426867
0.426833
0.426735
0.426852
0.427031
0.427027
0.427036
0.427004
0.426987
0.426931
0.426913
0.426839
0.42678
0.426698
0.426626
0.426516
0.426263
0.426169
0.42612
0.426032
0.426029
0.425988
0.425926
0.425914
0.425912
0.425903
0.425821
0.425633
0.425431
0.425511
0.425641
0.425622
0.425613
0.425519
0.425582
0.425665
0.425648
0.425643
0.425478
0.425542
0.42565
0.425594
0.425536
0.425635
0.425848
0.425754
0.425816
0.425838
0.425787
0.425648
0.425599
0.425615
0.425489
0.425481
0.425789
0.425934
0.425906
0.425908
0.425852
0.425882
0.425891
0.425844
0.425716
0.425582
0.425739
0.42587
0.425829
0.425675
0.425666
0.425794
0.425636
0.381251
0.395082
0.408256
0.417888
0.423346
0.426182
0.426968
0.427042
0.426994
0.426794
0.426854
0.426948
0.426768
0.426856
0.426949
0.426743
0.426811
0.42697
0.426754
0.426736
0.426901
0.426927
0.426854
0.426951
0.427111
0.427036
0.427055
0.427047
0.427048
0.427033
0.42698
0.426975
0.426972
0.426897
0.426753
0.426478
0.42634
0.426261
0.426221
0.426179
0.42614
0.426097
0.426041
0.42603
0.425958
0.425716
0.425714
0.425744
0.425744
0.425743
0.425588
0.425519
0.425849
0.426388
0.426283
0.426387
0.42652
0.426475
0.426471
0.4264
0.426402
0.426383
0.4264
0.426402
0.426364
0.42633
0.426269
0.426071
0.426108
0.426268
0.426146
0.426138
0.426129
0.426144
0.426131
0.425972
0.426011
0.426107
0.426075
0.426069
0.426044
0.426037
0.425839
0.42585
0.426048
0.426059
0.426029
0.426035
0.425966
0.42567
0.381251
0.395079
0.408267
0.417857
0.423401
0.426167
0.426796
0.426678
0.426776
0.42692
0.426759
0.426815
0.426879
0.426839
0.426709
0.426757
0.426905
0.426691
0.426676
0.426806
0.426759
0.426894
0.427049
0.426899
0.426994
0.427059
0.427053
0.427052
0.426997
0.426991
0.426939
0.426878
0.426673
0.426563
0.426497
0.426374
0.426318
0.426226
0.425986
0.425894
0.426046
0.426086
0.426032
0.425917
0.425827
0.425791
0.425693
0.425781
0.425858
0.425849
0.425847
0.425653
0.425733
0.426212
0.426256
0.42616
0.426258
0.426358
0.426362
0.426363
0.426113
0.426127
0.426245
0.426063
0.426122
0.426255
0.426153
0.426148
0.426109
0.426039
0.425977
0.426112
0.426222
0.42615
0.426183
0.426191
0.426169
0.426171
0.426103
0.425854
0.425777
0.425852
0.425726
0.425793
0.425944
0.425866
0.425924
0.425945
0.42589
0.425667
0.381254
0.395069
0.408298
0.417782
0.42353
0.426074
0.426595
0.426769
0.426773
0.426613
0.426666
0.426687
0.426521
0.426567
0.426768
0.426821
0.426797
0.426755
0.426754
0.426637
0.426747
0.42689
0.426858
0.426796
0.42671
0.426699
0.426628
0.426595
0.42675
0.426867
0.426843
0.42684
0.426792
0.426746
0.426717
0.426679
0.426634
0.42655
0.426379
0.426111
0.425991
0.425946
0.425875
0.425832
0.425795
0.425726
0.425504
0.425559
0.425759
0.425781
0.425743
0.425547
0.425664
0.426207
0.426255
0.426235
0.426176
0.426259
0.426395
0.426397
0.426398
0.426191
0.426221
0.426289
0.42629
0.426291
0.426237
0.426225
0.426113
0.425969
0.426066
0.426181
0.426186
0.426186
0.426036
0.425977
0.425978
0.425916
0.426035
0.426134
0.426136
0.426136
0.426027
0.426017
0.425995
0.425853
0.425799
0.425854
0.42586
0.425737
0.381265
0.395049
0.408242
0.417972
0.423516
0.425697
0.426061
0.426042
0.425932
0.425981
0.426245
0.426301
0.426267
0.42619
0.426183
0.426083
0.426209
0.426394
0.426222
0.426234
0.426521
0.426853
0.426843
0.426662
0.426637
0.426754
0.426773
0.426668
0.426738
0.426794
0.426776
0.426771
0.426706
0.4267
0.426655
0.426585
0.426345
0.426274
0.426198
0.425962
0.426004
0.426079
0.425958
0.425959
0.425983
0.425994
0.425894
0.42591
0.425931
0.425805
0.42586
0.425909
0.425906
0.425905
0.425779
0.425769
0.425721
0.425634
0.425448
0.425556
0.4258
0.425829
0.425792
0.425593
0.425649
0.425919
0.425966
0.425961
0.425919
0.425816
0.425772
0.425868
0.425842
0.425983
0.426117
0.425933
0.426013
0.426089
0.425922
0.425996
0.426048
0.426018
0.426003
0.425832
0.425887
0.426052
0.426057
0.42603
0.426007
0.425754
0.381283
0.395082
0.408166
0.417969
0.423569
0.425628
0.426308
0.426338
0.426307
0.426304
0.426275
0.426259
0.426078
0.426042
0.426326
0.426481
0.426447
0.426452
0.426441
0.426365
0.426269
0.426533
0.426838
0.426823
0.426786
0.426595
0.42662
0.426706
0.426646
0.426637
0.426624
0.426562
0.426384
0.426389
0.426399
0.426336
0.426143
0.426141
0.426138
0.426027
0.426018
0.426026
0.426027
0.425992
0.425946
0.425922
0.425935
0.425929
0.425923
0.425862
0.425729
0.42553
0.425572
0.425673
0.425649
0.425575
0.425626
0.425769
0.425844
0.426026
0.426025
0.426001
0.425917
0.425973
0.425993
0.42595
0.425818
0.425884
0.425977
0.42578
0.42585
0.426067
0.426063
0.42601
0.425794
0.425783
0.425994
0.426045
0.425985
0.42598
0.425955
0.425748
0.425773
0.42589
0.425895
0.425891
0.425682
0.425728
0.425784
0.425595
0.381276
0.395095
0.408159
0.417959
0.423579
0.425648
0.426322
0.426343
0.42611
0.426164
0.426241
0.426231
0.426231
0.426089
0.426267
0.426473
0.426477
0.426478
0.426305
0.426435
0.426683
0.426659
0.426679
0.426631
0.426702
0.426724
0.426697
0.426648
0.426608
0.426569
0.426433
0.42627
0.426373
0.426476
0.426425
0.426447
0.426409
0.426344
0.426215
0.426157
0.426105
0.426069
0.426003
0.425868
0.425644
0.425651
0.425706
0.425671
0.42563
0.425497
0.425662
0.4258
0.425758
0.426019
0.426205
0.426211
0.426209
0.425976
0.426
0.42615
0.426096
0.426129
0.426091
0.426044
0.42604
0.42599
0.425823
0.425888
0.426057
0.426034
0.42603
0.426007
0.426001
0.425785
0.425765
0.425919
0.425993
0.425963
0.425872
0.425842
0.42582
0.425846
0.425801
0.425773
0.425763
0.425609
0.425617
0.425784
0.425786
0.425665
0.381251
0.39508
0.408263
0.417865
0.423386
0.426163
0.426858
0.426914
0.426876
0.426724
0.426818
0.42694
0.426802
0.42689
0.426956
0.426912
0.426765
0.426769
0.426876
0.426688
0.426696
0.426836
0.426741
0.426839
0.426927
0.426786
0.426867
0.426897
0.426856
0.426807
0.426749
0.42665
0.426331
0.426301
0.426348
0.426253
0.426205
0.426099
0.426095
0.426099
0.426059
0.425983
0.425876
0.425869
0.425785
0.42588
0.426042
0.425846
0.425908
0.426103
0.42609
0.426053
0.426003
0.425953
0.425757
0.42571
0.425834
0.425826
0.425865
0.425874
0.425897
0.425902
0.425881
0.425874
0.425748
0.425761
0.425881
0.425889
0.425889
0.425848
0.426017
0.426088
0.426074
0.426072
0.42597
0.425908
0.425941
0.426019
0.425996
0.42599
0.425931
0.425711
0.425725
0.425987
0.426007
0.425958
0.42577
0.425815
0.425903
0.425675
0.381253
0.395097
0.408253
0.417862
0.423317
0.426163
0.426888
0.42684
0.426916
0.426937
0.426798
0.426874
0.426952
0.426935
0.426911
0.426938
0.427011
0.42699
0.427022
0.427019
0.427047
0.427006
0.426973
0.426849
0.426925
0.426976
0.426844
0.426839
0.426839
0.426838
0.426855
0.42685
0.426818
0.426731
0.426465
0.42638
0.426327
0.426293
0.426282
0.426124
0.426095
0.426086
0.426041
0.425894
0.425914
0.425959
0.425908
0.425804
0.425832
0.425997
0.425917
0.425955
0.426006
0.425972
0.425826
0.42591
0.426042
0.426044
0.426044
0.425921
0.425904
0.425796
0.425861
0.426099
0.425972
0.426041
0.426217
0.426139
0.426181
0.42619
0.426155
0.426053
0.426007
0.426108
0.426189
0.426157
0.426114
0.426002
0.425944
0.425968
0.425979
0.425987
0.425949
0.425898
0.425704
0.425711
0.425796
0.425804
0.425803
0.425591
0.381235
0.395146
0.408193
0.417842
0.423547
0.425983
0.426396
0.426369
0.426403
0.426357
0.426201
0.426151
0.426228
0.426184
0.426149
0.426267
0.426397
0.426365
0.426254
0.426319
0.426568
0.426518
0.426576
0.426646
0.426635
0.426652
0.426611
0.426501
0.426336
0.426424
0.426521
0.426482
0.426423
0.426281
0.426336
0.426361
0.426264
0.42625
0.42625
0.42625
0.426227
0.426134
0.425935
0.425638
0.425665
0.425735
0.425701
0.425649
0.425548
0.425723
0.425823
0.425813
0.425812
0.425701
0.4257
0.425627
0.425629
0.425995
0.426179
0.426074
0.426107
0.426117
0.426082
0.426017
0.426012
0.425908
0.42599
0.426084
0.425961
0.42595
0.425948
0.42583
0.425891
0.425996
0.42578
0.425835
0.425981
0.425929
0.425856
0.425804
0.425958
0.42601
0.42594
0.425946
0.425939
0.425796
0.42577
0.425854
0.425862
0.425742
0.381251
0.395079
0.408269
0.417847
0.423431
0.426098
0.426866
0.426959
0.426885
0.426888
0.426842
0.426905
0.426937
0.426717
0.426767
0.426866
0.426687
0.426784
0.426931
0.426723
0.426788
0.426928
0.426815
0.426893
0.426932
0.42691
0.426895
0.426723
0.426618
0.4266
0.42655
0.426629
0.426644
0.426576
0.426573
0.426552
0.426463
0.426313
0.426208
0.426136
0.426039
0.425965
0.425821
0.425645
0.425601
0.425568
0.425558
0.425602
0.425559
0.425642
0.425931
0.425994
0.425966
0.425915
0.425764
0.425784
0.425916
0.425902
0.4258
0.425821
0.425921
0.425726
0.425726
0.425846
0.425796
0.425737
0.425776
0.425812
0.425721
0.425785
0.426013
0.426041
0.42603
0.426028
0.42595
0.425875
0.425912
0.425941
0.425896
0.425756
0.425809
0.425969
0.42596
0.425961
0.425923
0.425894
0.425728
0.425773
0.425821
0.425649
0.381248
0.395048
0.40825
0.41802
0.42351
0.42562
0.425907
0.425804
0.425789
0.426035
0.426182
0.426176
0.426172
0.42596
0.426046
0.426398
0.426405
0.426361
0.426405
0.426601
0.426611
0.426577
0.426694
0.426918
0.426804
0.426901
0.42695
0.426936
0.426924
0.426741
0.426718
0.426647
0.426604
0.426526
0.426277
0.426313
0.42635
0.426306
0.426281
0.426227
0.426177
0.426138
0.426132
0.426091
0.426047
0.425881
0.425944
0.426027
0.426022
0.426021
0.425954
0.42593
0.425775
0.425613
0.425721
0.425826