/*--------------------------------*- C++ -*----------------------------------*\
  =========                 |
  \\      /  F ield         | OpenFOAM: The Open Source CFD Toolbox
   \\    /   O peration     | Website:  https://openfoam.org
    \\  /    A nd           | Version:  11
     \\/     M anipulation  |
\*---------------------------------------------------------------------------*/
FoamFile
{
    format      ascii;
    class       volScalarField;
    location    "0.064";
    object      nut;
}
// * * * * * * * * * * * * * * * * * * * * * * * * * * * * * * * * * * * * * //

dimensions      [0 2 -1 0 0 0 0];

internalField   nonuniform List<scalar> 
287084
(
0.000835775
0.000867054
0.000897776
0.000921036
0.000934581
0.000940124
0.000941318
0.000941603
0.000941503
0.000941632
0.000942052
0.000941849
0.000942029
0.000942127
0.000942046
0.000941974
0.000941697
0.000941587
0.000941224
0.000941281
0.000941755
0.000941448
0.000941604
0.000941748
0.000941728
0.000941721
0.000941288
0.000941436
0.000941797
0.000941817
0.000941916
0.000942017
0.000942179
0.000942161
0.000942203
0.000942273
0.000942127
0.000942316
0.000942498
0.000942554
0.000942382
0.00094257
0.000942762
0.000942777
0.000942887
0.000942873
0.0009427
0.000942665
0.000942971
0.000942827
0.000942985
0.000943386
0.000943443
0.000943457
0.000943331
0.000942969
0.000942984
0.000943098
0.000942765
0.000942985
0.000943165
0.000943025
0.000942803
0.000942915
0.000943477
0.000943485
0.00094343
0.000942952
0.00094297
0.000943309
0.000943291
0.000943171
0.000942791
0.000942881
0.000943044
0.000943214
0.000943211
0.000943146
0.000943162
0.000942944
0.000942976
0.000942899
0.000943146
0.000943304
0.000943265
0.000943217
0.00094268
0.000942565
0.000942634
0.000942316
0.00118142
0.00122419
0.00126547
0.00129654
0.00131445
0.00132155
0.00132269
0.00132235
0.00132257
0.00132334
0.00132349
0.00132333
0.00132308
0.00132297
0.0013227
0.00132203
0.00132184
0.00132201
0.00132197
0.00132194
0.00132169
0.00132213
0.00132303
0.001323
0.00132288
0.00132287
0.00132281
0.00132267
0.00132207
0.00132213
0.00132263
0.00132253
0.00132292
0.0013232
0.00132321
0.00132347
0.00132356
0.00132346
0.00132333
0.00132398
0.00132449
0.0013246
0.0013247
0.00132433
0.00132467
0.00132518
0.00132502
0.00132528
0.00132543
0.00132546
0.00132545
0.00132468
0.00132461
0.00132478
0.00132459
0.00132457
0.00132456
0.00132442
0.0013242
0.00132432
0.00132423
0.00132464
0.00132506
0.00132497
0.00132492
0.00132441
0.00132466
0.00132515
0.00132502
0.00132481
0.00132457
0.00132506
0.00132543
0.00132528
0.00132528
0.00132518
0.00132454
0.00132436
0.00132461
0.0013245
0.00132455
0.00132455
0.00132443
0.00132419
0.00132451
0.00132476
0.00132456
0.00132455
0.00132442
0.00132373
0.00118148
0.00122435
0.00126568
0.00129675
0.0013143
0.0013219
0.00132344
0.00132349
0.00132337
0.00132318
0.00132322
0.00132302
0.00132305
0.00132298
0.00132277
0.00132246
0.00132264
0.001323
0.00132287
0.00132275
0.00132208
0.00132209
0.00132224
0.00132254
0.00132302
0.00132294
0.00132286
0.00132272
0.00132277
0.00132293
0.00132312
0.00132318
0.00132331
0.00132335
0.00132344
0.00132343
0.00132332
0.00132346
0.00132351
0.00132405
0.00132447
0.00132416
0.00132457
0.00132485
0.00132496
0.00132509
0.00132468
0.00132504
0.00132547
0.00132552
0.00132558
0.00132543
0.0013254
0.00132505
0.00132453
0.00132475
0.00132497
0.00132443
0.0013244
0.00132472
0.00132466
0.00132482
0.00132482
0.00132465
0.00132442
0.00132476
0.00132541
0.00132547
0.00132533
0.00132504
0.00132509
0.00132496
0.00132479
0.00132431
0.00132437
0.0013245
0.0013241
0.00132405
0.00132415
0.00132415
0.00132379
0.00132395
0.00132461
0.00132451
0.00132451
0.00132454
0.00132456
0.00132448
0.00132429
0.00132363
0.00118142
0.00122457
0.00126595
0.00129679
0.00131462
0.0013224
0.00132399
0.00132397
0.0013238
0.00132351
0.0013238
0.00132388
0.00132366
0.00132333
0.00132285
0.00132306
0.00132332
0.00132292
0.00132289
0.00132285
0.00132265
0.00132253
0.00132246
0.00132191
0.00132198
0.00132207
0.00132194
0.00132204
0.00132189
0.00132253
0.00132319
0.00132337
0.00132357
0.00132356
0.00132383
0.00132399
0.00132415
0.00132418
0.00132362
0.00132394
0.0013244
0.00132449
0.00132428
0.00132439
0.00132486
0.00132496
0.00132513
0.00132524
0.00132526
0.00132472
0.00132489
0.00132508
0.0013251
0.00132512
0.00132491
0.00132489
0.00132468
0.00132438
0.00132478
0.00132537
0.00132537
0.00132535
0.00132489
0.00132481
0.00132447
0.00132477
0.00132531
0.00132469
0.00132488
0.00132536
0.00132516
0.00132478
0.00132471
0.00132477
0.00132432
0.00132446
0.00132512
0.00132546
0.00132542
0.0013255
0.00132535
0.00132468
0.00132455
0.00132487
0.00132494
0.00132481
0.0013243
0.00132444
0.00132457
0.00132389
0.00118143
0.00122469
0.00126601
0.00129685
0.00131506
0.00132205
0.00132292
0.0013232
0.00132369
0.00132343
0.00132311
0.00132328
0.00132346
0.0013232
0.00132261
0.00132247
0.00132262
0.00132217
0.00132212
0.00132207
0.00132192
0.00132157
0.00132169
0.00132216
0.0013222
0.00132213
0.00132212
0.00132207
0.0013222
0.00132237
0.00132259
0.0013228
0.00132292
0.00132312
0.00132321
0.00132294
0.00132309
0.00132421
0.00132482
0.00132503
0.00132524
0.00132506
0.0013252
0.00132521
0.00132525
0.00132527
0.00132524
0.00132522
0.00132512
0.00132478
0.00132458
0.00132476
0.00132485
0.00132482
0.0013249
0.00132474
0.00132464
0.00132439
0.00132466
0.00132484
0.00132462
0.00132455
0.00132442
0.00132441
0.00132421
0.0013241
0.00132404
0.00132441
0.00132457
0.00132449
0.00132429
0.00132443
0.00132535
0.00132549
0.00132538
0.00132518
0.00132513
0.00132482
0.00132469
0.00132458
0.00132444
0.00132437
0.00132422
0.00132379
0.00132387
0.00132447
0.00132448
0.00132452
0.00132437
0.00132385
0.00118142
0.00122464
0.00126612
0.00129727
0.00131487
0.00132115
0.00132205
0.00132236
0.00132348
0.00132358
0.00132339
0.00132316
0.00132294
0.00132239
0.00132188
0.00132205
0.00132201
0.00132209
0.00132229
0.00132212
0.00132193
0.00132178
0.00132139
0.00132155
0.00132186
0.00132127
0.00132138
0.00132228
0.00132257
0.00132259
0.0013225
0.00132268
0.00132272
0.00132285
0.00132278
0.0013233
0.00132377
0.00132369
0.00132411
0.00132454
0.0013247
0.00132484
0.00132489
0.00132481
0.00132478
0.0013245
0.00132449
0.00132491
0.0013252
0.0013252
0.00132524
0.00132488
0.00132479
0.00132524
0.00132545
0.00132534
0.00132522
0.00132491
0.00132493
0.0013252
0.00132536
0.00132523
0.00132493
0.00132486
0.00132438
0.00132455
0.00132533
0.00132548
0.00132534
0.00132511
0.0013251
0.00132492
0.00132439
0.00132447
0.00132506
0.00132484
0.00132493
0.00132512
0.00132503
0.00132483
0.00132474
0.00132409
0.00132402
0.00132467
0.00132493
0.00132483
0.00132445
0.00132445
0.00132441
0.00132395
0.00118134
0.00122471
0.00126619
0.00129729
0.001315
0.00132131
0.00132329
0.00132331
0.00132321
0.0013231
0.00132237
0.00132212
0.00132316
0.00132391
0.00132334
0.00132344
0.00132412
0.001324
0.00132371
0.00132323
0.0013231
0.00132288
0.00132254
0.00132236
0.00132275
0.00132293
0.00132282
0.00132235
0.00132256
0.0013229
0.00132264
0.00132262
0.00132281
0.00132306
0.00132358
0.00132393
0.00132406
0.00132373
0.00132405
0.00132488
0.00132517
0.00132529
0.00132486
0.00132518
0.00132557
0.00132556
0.00132534
0.00132529
0.0013255
0.00132578
0.00132572
0.00132513
0.0013253
0.0013254
0.00132534
0.00132519
0.00132517
0.00132547
0.00132524
0.00132528
0.00132528
0.00132515
0.00132455
0.00132458
0.00132501
0.00132471
0.00132477
0.00132484
0.00132471
0.00132423
0.0013244
0.00132467
0.00132444
0.00132423
0.00132447
0.00132503
0.00132488
0.00132489
0.00132474
0.00132437
0.0013242
0.00132449
0.00132472
0.00132464
0.0013245
0.00132412
0.00132434
0.00132489
0.00132477
0.00132427
0.0011814
0.00122472
0.00126636
0.00129674
0.00131474
0.00132321
0.00132541
0.00132593
0.00132582
0.00132577
0.00132539
0.00132527
0.00132518
0.001325
0.00132484
0.00132455
0.00132418
0.00132384
0.00132368
0.00132321
0.00132332
0.00132342
0.00132312
0.00132305
0.00132302
0.00132278
0.00132279
0.00132302
0.00132301
0.00132317
0.00132336
0.00132361
0.00132375
0.00132344
0.00132343
0.00132364
0.00132386
0.00132394
0.00132461
0.00132536
0.00132561
0.00132582
0.00132537
0.00132565
0.0013261
0.001326
0.00132611
0.00132615
0.00132591
0.00132577
0.00132593
0.00132569
0.00132603
0.00132644
0.00132612
0.0013261
0.00132587
0.00132606
0.00132612
0.00132602
0.00132599
0.00132576
0.0013251
0.00132506
0.00132505
0.00132466
0.0013244
0.00132468
0.00132508
0.00132479
0.0013249
0.00132514
0.00132502
0.00132486
0.00132438
0.0013246
0.00132537
0.00132536
0.00132524
0.0013251
0.00132492
0.00132423
0.00132423
0.00132498
0.00132506
0.0013249
0.00132433
0.00132446
0.00132471
0.00132395
0.00118138
0.00122469
0.00126626
0.00129728
0.00131484
0.00132215
0.00132352
0.00132345
0.00132324
0.00132275
0.00132246
0.00132307
0.001324
0.00132393
0.00132351
0.00132333
0.00132323
0.00132303
0.0013234
0.00132367
0.00132339
0.00132336
0.00132322
0.00132265
0.0013228
0.00132301
0.00132296
0.00132305
0.00132322
0.00132341
0.00132328
0.00132343
0.0013235
0.00132306
0.00132337
0.00132388
0.00132403
0.00132431
0.00132452
0.00132445
0.00132498
0.0013257
0.00132526
0.00132557
0.00132618
0.00132624
0.00132632
0.00132645
0.00132655
0.0013265
0.00132643
0.00132579
0.00132558
0.00132548
0.00132531
0.00132479
0.00132495
0.00132556
0.00132546
0.00132531
0.00132469
0.00132487
0.00132538
0.0013254
0.00132524
0.0013249
0.00132481
0.00132427
0.00132429
0.0013253
0.00132545
0.00132531
0.00132514
0.00132476
0.00132463
0.00132428
0.00132443
0.00132546
0.0013256
0.00132551
0.00132543
0.00132529
0.00132509
0.00132447
0.00132458
0.00132492
0.00132459
0.00132465
0.00132451
0.0013239
0.00118143
0.00122443
0.00126661
0.0012972
0.00131478
0.00132194
0.00132303
0.00132296
0.00132271
0.00132283
0.00132353
0.0013234
0.00132318
0.00132237
0.0013224
0.00132286
0.00132245
0.00132232
0.00132215
0.00132198
0.00132137
0.00132144
0.00132165
0.0013214
0.00132138
0.00132138
0.0013211
0.00132116
0.00132202
0.00132247
0.00132263
0.00132299
0.00132317
0.0013229
0.00132341
0.00132401
0.00132423
0.00132457
0.00132491
0.00132524
0.00132541
0.00132566
0.00132573
0.00132562
0.001325
0.00132473
0.00132499
0.00132533
0.00132525
0.00132479
0.0013247
0.00132507
0.00132518
0.00132502
0.00132445
0.00132458
0.00132482
0.00132428
0.00132414
0.0013249
0.00132531
0.00132518
0.00132497
0.00132455
0.0013244
0.00132401
0.00132398
0.00132438
0.00132434
0.00132452
0.00132457
0.00132441
0.00132396
0.00132413
0.00132448
0.00132397
0.00132384
0.00132453
0.00132484
0.00132477
0.00132474
0.00132419
0.00132441
0.0013251
0.00132514
0.00132512
0.00132473
0.00132456
0.0013244
0.00132386
0.00118143
0.00122462
0.00126629
0.00129717
0.0013151
0.00132225
0.00132331
0.00132322
0.00132297
0.00132302
0.00132317
0.00132279
0.00132248
0.00132261
0.00132273
0.00132204
0.00132212
0.00132273
0.00132218
0.00132235
0.00132249
0.0013223
0.00132218
0.00132152
0.00132171
0.00132194
0.00132134
0.00132167
0.00132204
0.00132217
0.00132233
0.00132246
0.0013232
0.00132385
0.00132415
0.00132435
0.00132464
0.00132501
0.00132524
0.00132549
0.00132576
0.00132571
0.00132511
0.00132502
0.00132503
0.00132465
0.00132497
0.00132573
0.00132575
0.00132578
0.00132556
0.00132576
0.00132581
0.00132565
0.00132515
0.00132521
0.00132526
0.00132488
0.00132465
0.00132496
0.00132532
0.00132514
0.0013248
0.00132449
0.00132486
0.00132501
0.0013248
0.00132433
0.00132414
0.00132451
0.00132479
0.00132466
0.00132435
0.00132461
0.00132472
0.00132454
0.00132449
0.00132413
0.00132435
0.00132501
0.00132454
0.00132441
0.00132486
0.00132516
0.001325
0.00132447
0.00132458
0.00132473
0.00132458
0.00132406
0.00118135
0.00122476
0.0012662
0.00129725
0.001315
0.00132226
0.00132401
0.00132406
0.00132385
0.00132367
0.00132316
0.00132315
0.00132378
0.00132405
0.00132399
0.00132341
0.00132326
0.00132292
0.00132228
0.00132224
0.00132259
0.00132215
0.00132185
0.00132176
0.00132167
0.00132211
0.00132249
0.00132252
0.00132269
0.00132296
0.00132332
0.00132357
0.00132398
0.00132417
0.00132444
0.00132468
0.00132494
0.00132503
0.00132491
0.00132488
0.00132489
0.00132492
0.00132501
0.00132477
0.00132514
0.00132549
0.00132548
0.00132539
0.00132529
0.00132561
0.00132543
0.00132573
0.00132627
0.00132616
0.00132601
0.0013258
0.00132521
0.00132508
0.0013251
0.00132474
0.00132455
0.0013246
0.00132443
0.00132471
0.00132548
0.00132544
0.00132534
0.0013247
0.00132448
0.00132511
0.00132533
0.00132514
0.00132465
0.00132447
0.00132484
0.00132499
0.00132479
0.00132423
0.00132403
0.0013246
0.0013248
0.00132467
0.00132432
0.00132451
0.00132489
0.00132485
0.00132482
0.00132444
0.00132433
0.00132377
0.0011814
0.00122471
0.00126644
0.00129667
0.00131496
0.00132322
0.00132494
0.00132486
0.00132445
0.00132454
0.00132486
0.001324
0.00132387
0.0013241
0.00132337
0.00132338
0.00132365
0.00132336
0.00132312
0.00132234
0.00132241
0.00132275
0.00132205
0.00132184
0.00132236
0.00132257
0.00132239
0.00132265
0.00132291
0.00132305
0.00132302
0.00132327
0.00132345
0.00132375
0.00132375
0.00132426
0.00132492
0.00132536
0.00132575
0.00132529
0.00132565
0.00132608
0.00132627
0.00132645
0.00132596
0.00132625
0.00132671
0.00132671
0.00132684
0.00132673
0.00132666
0.00132668
0.00132659
0.00132595
0.00132556
0.00132573
0.00132596
0.00132575
0.00132506
0.00132503
0.00132568
0.00132585
0.00132571
0.00132546
0.00132539
0.00132507
0.00132461
0.00132478
0.00132508
0.00132478
0.00132489
0.00132505
0.00132494
0.00132489
0.00132444
0.00132465
0.00132531
0.00132521
0.00132507
0.00132448
0.00132466
0.00132496
0.00132494
0.00132493
0.00132456
0.00132434
0.00132451
0.00132464
0.00132449
0.001324
0.00118141
0.00122458
0.00126628
0.00129752
0.00131497
0.00132137
0.00132306
0.00132306
0.0013224
0.00132254
0.00132263
0.001322
0.00132202
0.00132192
0.00132119
0.00132112
0.00132163
0.0013211
0.0013212
0.0013214
0.00132071
0.0013204
0.00132064
0.00132057
0.00132097
0.00132178
0.00132136
0.00132178
0.00132217
0.00132234
0.00132226
0.0013227
0.0013232
0.00132352
0.00132367
0.00132423
0.0013249
0.00132481
0.00132537
0.00132593
0.00132616
0.00132643
0.00132666
0.00132689
0.00132699
0.00132707
0.00132661
0.00132678
0.00132693
0.00132689
0.00132684
0.00132625
0.00132585
0.00132587
0.0013261
0.00132589
0.00132542
0.00132515
0.00132553
0.00132567
0.0013255
0.00132526
0.00132482
0.00132499
0.00132511
0.00132497
0.00132466
0.0013247
0.00132511
0.00132489
0.00132506
0.0013251
0.00132497
0.00132483
0.00132431
0.00132424
0.00132414
0.00132447
0.00132521
0.00132468
0.0013249
0.00132552
0.00132548
0.00132532
0.00132507
0.00132469
0.00132493
0.00132533
0.00132517
0.00132455
0.0011814
0.00122473
0.00126638
0.00129681
0.00131472
0.00132336
0.00132538
0.00132532
0.00132496
0.00132498
0.00132519
0.00132437
0.00132435
0.00132441
0.00132378
0.00132355
0.00132325
0.00132254
0.00132239
0.00132257
0.00132196
0.00132198
0.00132227
0.00132221
0.00132208
0.00132215
0.00132212
0.00132211
0.00132233
0.00132256
0.00132297
0.00132346
0.00132388
0.00132441
0.00132476
0.00132512
0.00132546
0.00132563
0.0013255
0.0013256
0.00132568
0.00132529
0.00132533
0.00132607
0.00132648
0.00132653
0.00132661
0.00132645
0.00132571
0.00132576
0.00132614
0.00132551
0.0013254
0.0013261
0.00132625
0.00132601
0.00132592
0.00132575
0.00132564
0.00132506
0.00132498
0.0013258
0.00132602
0.00132583
0.00132531
0.0013255
0.00132582
0.00132567
0.00132551
0.00132479
0.00132487
0.001325
0.00132495
0.00132491
0.00132428
0.00132461
0.00132518
0.00132518
0.00132515
0.00132449
0.00132467
0.00132509
0.00132482
0.0013249
0.00132476
0.00132456
0.00132419
0.00132435
0.00132449
0.00132391
0.00118148
0.00122479
0.00126602
0.00129717
0.00131516
0.00132186
0.00132403
0.00132403
0.00132335
0.00132298
0.00132309
0.0013232
0.00132282
0.00132206
0.00132188
0.00132241
0.00132224
0.00132181
0.00132105
0.00132097
0.00132096
0.00132028
0.00132027
0.00132071
0.00132064
0.0013205
0.00132084
0.00132129
0.00132094
0.00132141
0.00132217
0.00132213
0.0013226
0.00132353
0.00132418
0.00132467
0.00132499
0.00132541
0.00132588
0.00132628
0.0013266
0.00132678
0.0013268
0.00132696
0.00132699
0.00132686
0.00132617
0.00132565
0.0013257
0.00132553
0.00132588
0.00132619
0.00132609
0.00132602
0.00132556
0.00132593
0.00132619
0.00132615
0.00132703
0.00132721
0.001327
0.00132666
0.00132632
0.00132639
0.00132638
0.00132611
0.00132628
0.00132631
0.00132617
0.00132611
0.00132584
0.00132519
0.00132489
0.00132511
0.00132518
0.00132505
0.0013246
0.00132467
0.0013247
0.00132415
0.00132415
0.00132491
0.0013252
0.0013251
0.00132501
0.00132457
0.0013246
0.00132466
0.0013245
0.001324
0.00118141
0.00122478
0.00126634
0.00129682
0.00131447
0.00132325
0.00132602
0.00132602
0.00132567
0.00132547
0.00132511
0.00132509
0.00132499
0.00132463
0.00132432
0.00132389
0.00132336
0.00132229
0.00132195
0.00132208
0.00132178
0.00132158
0.00132133
0.0013209
0.00132111
0.00132161
0.00132164
0.00132174
0.00132187
0.00132226
0.00132256
0.00132305
0.00132352
0.00132392
0.00132443
0.00132488
0.00132537
0.00132578
0.00132614
0.00132644
0.00132654
0.00132625
0.00132567
0.00132594
0.00132623
0.00132621
0.00132608
0.0013257
0.00132564
0.00132535
0.00132561
0.00132613
0.00132596
0.00132564
0.00132545
0.00132596
0.00132676
0.00132667
0.00132586
0.00132575
0.00132607
0.00132557
0.00132567
0.00132603
0.00132567
0.00132556
0.0013254
0.00132534
0.00132531
0.00132511
0.00132447
0.00132444
0.00132503
0.00132523
0.0013251
0.0013249
0.00132438
0.00132451
0.001325
0.00132481
0.0013249
0.00132494
0.0013248
0.00132427
0.00132411
0.00132436
0.00132405
0.00132406
0.00132442
0.00132399
0.0011814
0.00122475
0.00126632
0.00129693
0.00131442
0.00132349
0.001326
0.00132596
0.00132557
0.00132555
0.00132542
0.00132505
0.00132476
0.00132389
0.00132378
0.00132371
0.0013227
0.00132257
0.0013227
0.00132171
0.00132142
0.00132171
0.00132163
0.00132132
0.00132145
0.00132164
0.00132175
0.00132197
0.00132206
0.00132248
0.00132288
0.0013234
0.00132384
0.00132429
0.00132481
0.00132532
0.00132574
0.00132589
0.00132591
0.00132602
0.00132619
0.00132611
0.00132601
0.00132606
0.001326
0.00132604
0.00132574
0.00132598
0.00132668
0.00132672
0.00132654
0.00132632
0.00132582
0.0013257
0.00132606
0.00132633
0.00132662
0.00132605
0.00132626
0.00132656
0.00132604
0.00132622
0.00132631
0.00132614
0.00132601
0.0013254
0.00132535
0.00132534
0.00132485
0.00132482
0.00132557
0.00132573
0.00132564
0.00132559
0.00132541
0.0013251
0.00132488
0.00132492
0.00132486
0.00132483
0.0013248
0.00132436
0.0013246
0.00132499
0.00132499
0.00132496
0.00132425
0.00132438
0.00132461
0.00132392
0.00118141
0.00122478
0.00126637
0.0012967
0.00131466
0.00132317
0.00132536
0.00132577
0.0013255
0.00132478
0.00132476
0.00132473
0.00132433
0.00132366
0.00132332
0.00132325
0.00132229
0.00132187
0.00132189
0.00132159
0.00132137
0.00132113
0.00132066
0.00132077
0.00132096
0.00132074
0.00132091
0.00132101
0.00132135
0.00132178
0.00132234
0.00132285
0.00132301
0.00132329
0.00132382
0.00132409
0.00132496
0.00132585
0.00132638
0.00132683
0.00132697
0.00132725
0.00132735
0.00132735
0.00132716
0.00132691
0.00132669
0.00132618
0.00132561
0.00132602
0.00132636
0.0013263
0.00132621
0.00132547
0.00132533
0.00132606
0.00132701
0.00132684
0.00132619
0.00132634
0.00132661
0.00132605
0.00132624
0.00132636
0.00132616
0.00132586
0.00132549
0.00132558
0.00132559
0.00132516
0.00132527
0.00132544
0.00132483
0.00132505
0.00132527
0.00132513
0.00132493
0.00132458
0.00132486
0.00132512
0.00132505
0.00132502
0.0013248
0.00132426
0.00132397
0.00132419
0.00132437
0.00132424
0.00132411
0.00132366
0.00118134
0.00122498
0.00126603
0.00129695
0.00131491
0.00132284
0.00132433
0.00132425
0.0013241
0.00132355
0.00132353
0.00132343
0.00132299
0.00132223
0.00132199
0.00132216
0.00132137
0.00132134
0.00132132
0.00132096
0.00132069
0.00132024
0.00132054
0.00132049
0.0013208
0.00132111
0.00132125
0.00132151
0.00132168
0.00132215
0.00132262
0.00132325
0.00132378
0.00132432
0.00132483
0.00132535
0.00132573
0.0013261
0.00132645
0.00132662
0.00132663
0.00132672
0.00132655
0.00132634
0.00132634
0.00132605
0.00132619
0.00132627
0.00132614
0.001326
0.00132566
0.00132671
0.00132811
0.001328
0.00132776
0.00132781
0.00132816
0.00132805
0.00132789
0.00132717
0.00132688
0.00132687
0.0013268
0.00132666
0.00132662
0.00132659
0.00132641
0.00132601
0.00132607
0.00132628
0.00132613
0.00132608
0.001326
0.00132594
0.00132519
0.00132526
0.00132537
0.00132489
0.00132482
0.0013248
0.0013247
0.00132452
0.00132439
0.00132416
0.00132421
0.00132432
0.00132425
0.0013243
0.00132415
0.00132361
0.00118143
0.00122467
0.00126622
0.00129722
0.00131504
0.00132178
0.00132269
0.00132226
0.00132225
0.00132281
0.00132265
0.00132228
0.00132196
0.00132117
0.00132114
0.00132155
0.00132106
0.0013207
0.00132009
0.0013201
0.00132149
0.00132157
0.00132105
0.00132109
0.00132109
0.00132101
0.00132098
0.0013211
0.00132133
0.00132175
0.00132225
0.00132283
0.00132352
0.00132408
0.00132455
0.00132437
0.00132493
0.00132566
0.00132624
0.0013267
0.00132671
0.00132699
0.00132713
0.00132708
0.00132654
0.00132642
0.00132682
0.00132697
0.00132686
0.00132682
0.00132664
0.00132648
0.00132621
0.00132569
0.00132552
0.0013252
0.00132531
0.00132543
0.00132519
0.00132514
0.00132496
0.0013249
0.00132476
0.00132455
0.00132409
0.00132427
0.00132475
0.00132452
0.0013242
0.00132436
0.00132512
0.00132489
0.00132511
0.00132533
0.00132525
0.0013252
0.00132459
0.00132473
0.00132523
0.00132495
0.00132498
0.00132498
0.00132493
0.00132439
0.00132441
0.00132449
0.00132392
0.00132412
0.00132449
0.0013238
0.00118141
0.00122471
0.00126644
0.0012966
0.00131495
0.00132318
0.00132487
0.00132481
0.00132462
0.00132434
0.00132372
0.00132366
0.00132391
0.00132346
0.00132311
0.00132256
0.00132218
0.00132172
0.00132134
0.00132078
0.00132079
0.0013213
0.00132087
0.00132081
0.00132108
0.00132112
0.00132123
0.00132151
0.0013216
0.00132206
0.00132239
0.00132224
0.00132281
0.00132357
0.00132442
0.00132516
0.00132544
0.00132602
0.00132645
0.00132674
0.00132693
0.0013271
0.00132717
0.00132723
0.00132714
0.00132675
0.00132611
0.00132622
0.00132661
0.00132652
0.00132643
0.00132581
0.00132603
0.00132768
0.00132792
0.00132772
0.00132728
0.00132755
0.00132794
0.00132748
0.00132735
0.00132724
0.00132685
0.00132701
0.00132715
0.0013265
0.00132623
0.00132613
0.00132565
0.00132567
0.00132606
0.00132561
0.00132579
0.00132627
0.00132602
0.00132618
0.00132626
0.00132599
0.00132613
0.00132615
0.00132603
0.00132593
0.0013251
0.00132471
0.00132485
0.00132491
0.00132481
0.00132469
0.00132451
0.00132379
0.0011814
0.00122474
0.00126635
0.00129683
0.00131456
0.00132341
0.00132539
0.00132492
0.00132504
0.00132527
0.00132461
0.00132432
0.001324
0.00132367
0.0013229
0.00132277
0.00132288
0.00132181
0.00132139
0.00132163
0.00132142
0.00132111
0.00132088
0.00132119
0.00132146
0.00132123
0.00132145
0.00132177
0.00132217
0.00132258
0.00132307
0.00132354
0.00132399
0.00132455
0.00132505
0.00132513
0.00132559
0.00132595
0.00132575
0.00132603
0.00132687
0.00132729
0.00132741
0.00132723
0.00132712
0.00132704
0.00132669
0.00132697
0.00132728
0.0013272
0.0013271
0.0013263
0.00132631
0.00132764
0.00132765
0.0013279
0.00132835
0.00132809
0.00132807
0.00132796
0.00132772
0.0013271
0.00132727
0.00132747
0.00132663
0.00132653
0.00132671
0.0013261
0.00132617
0.00132658
0.00132625
0.00132644
0.0013265
0.00132612
0.00132634
0.00132643
0.0013263
0.00132624
0.00132564
0.00132576
0.00132581
0.00132553
0.0013256
0.00132562
0.00132545
0.00132489
0.00132453
0.00132472
0.00132478
0.0013242
0.00118146
0.00122457
0.00126626
0.00129745
0.00131461
0.00132206
0.00132332
0.00132302
0.00132282
0.00132238
0.00132234
0.00132214
0.00132138
0.00132093
0.00132151
0.0013219
0.00132126
0.00132154
0.00132226
0.00132178
0.00132145
0.00132111
0.00132089
0.00132071
0.00132068
0.00132063
0.00132046
0.00132094
0.00132149
0.00132179
0.00132243
0.00132316
0.00132399
0.00132465
0.00132512
0.00132569
0.00132614
0.0013263
0.00132581
0.00132606
0.00132659
0.0013266
0.00132708
0.00132736
0.00132721
0.00132728
0.00132725
0.00132674
0.00132666
0.00132683
0.00132634
0.00132607
0.00132611
0.00132627
0.00132602
0.0013254
0.00132557
0.00132597
0.00132559
0.0013255
0.0013254
0.00132512
0.00132495
0.00132569
0.00132612
0.001326
0.00132591
0.00132548
0.00132538
0.00132501
0.00132524
0.00132546
0.00132531
0.00132497
0.00132498
0.00132517
0.00132449
0.00132441
0.0013248
0.00132476
0.00132475
0.00132474
0.00132468
0.00132424
0.00132453
0.00132497
0.00132494
0.00132493
0.00132472
0.00132401
0.00118136
0.00122486
0.00126616
0.00129687
0.00131509
0.00132263
0.00132458
0.00132447
0.00132409
0.00132373
0.00132368
0.00132355
0.00132326
0.00132279
0.00132237
0.00132192
0.00132154
0.001321
0.00132087
0.00132078
0.00132036
0.00131979
0.00131971
0.00132023
0.00131965
0.00131971
0.00132059
0.00132114
0.00132152
0.00132207
0.00132247
0.00132239
0.00132272
0.00132351
0.00132431
0.00132498
0.00132569
0.00132621
0.00132664
0.00132701
0.00132688
0.00132696
0.00132702
0.00132687
0.00132631
0.00132619
0.00132628
0.00132629
0.00132624
0.00132563
0.00132565
0.00132651
0.00132648
0.00132618
0.00132541
0.00132521
0.00132539
0.00132483
0.00132479
0.00132526
0.001325
0.00132514
0.00132529
0.00132496
0.00132503
0.00132513
0.00132499
0.00132485
0.00132411
0.00132411
0.00132468
0.00132464
0.0013244
0.00132456
0.00132476
0.00132404
0.00132418
0.00132462
0.00132453
0.00132449
0.00132406
0.00132443
0.00132497
0.00132493
0.00132493
0.00132482
0.00132478
0.00132466
0.00132453
0.00132363
0.0011814
0.00122472
0.0012664
0.00129667
0.00131485
0.00132319
0.00132482
0.0013247
0.00132437
0.00132443
0.00132468
0.00132381
0.00132374
0.00132387
0.00132344
0.00132301
0.00132271
0.00132239
0.00132179
0.00132152
0.00132107
0.00132047
0.0013206
0.001321
0.00132094
0.00132104
0.00132112
0.00132139
0.00132166
0.00132218
0.00132262
0.00132318
0.00132373
0.00132432
0.00132479
0.00132479
0.00132523
0.00132574
0.00132605
0.00132653
0.00132682
0.00132696
0.00132717
0.00132735
0.00132744
0.00132724
0.00132667
0.00132602
0.00132622
0.00132654
0.00132639
0.00132625
0.00132583
0.00132591
0.00132604
0.00132585
0.00132571
0.00132507
0.00132515
0.00132538
0.00132509
0.0013248
0.00132501
0.00132558
0.0013252
0.00132531
0.0013253
0.00132508
0.00132457
0.00132436
0.00132435
0.00132391
0.00132383
0.00132475
0.00132515
0.00132503
0.001325
0.00132479
0.00132485
0.00132485
0.00132468
0.00132426
0.00132382
0.00132429
0.00132469
0.00132454
0.00132405
0.00132401
0.0013244
0.00132386
0.0011814
0.00122474
0.00126631
0.00129692
0.00131439
0.00132345
0.00132593
0.00132605
0.00132572
0.00132487
0.0013248
0.00132479
0.0013239
0.00132383
0.00132375
0.00132273
0.00132254
0.00132264
0.00132158
0.00132114
0.00132132
0.0013211
0.00132065
0.00132079
0.00132123
0.00132107
0.00132131
0.00132161
0.00132206
0.00132257
0.00132307
0.0013238
0.00132458
0.00132516
0.00132552
0.00132544
0.00132574
0.00132615
0.00132661
0.00132698
0.00132727
0.00132746
0.00132754
0.00132769
0.00132758
0.00132689
0.0013269
0.00132698
0.00132692
0.00132684
0.00132626
0.00132594
0.00132685
0.00132841
0.00132795
0.00132815
0.00132844
0.00132817
0.00132804
0.0013277
0.0013276
0.00132744
0.00132739
0.00132731
0.0013271
0.00132691
0.00132665
0.00132596
0.00132601
0.00132644
0.00132601
0.00132593
0.00132585
0.00132585
0.00132577
0.00132523
0.00132532
0.00132559
0.00132545
0.00132541
0.00132531
0.00132526
0.00132463
0.00132464
0.00132524
0.00132526
0.00132515
0.00132516
0.00132494
0.00132397
0.0011814
0.00122474
0.00126634
0.00129683
0.00131456
0.00132342
0.0013254
0.00132493
0.00132505
0.00132528
0.00132452
0.00132439
0.00132428
0.00132381
0.00132304
0.00132281
0.00132288
0.00132182
0.00132139
0.00132142
0.00132093
0.00132106
0.00132131
0.0013207
0.00132094
0.00132121
0.00132137
0.00132168
0.00132194
0.00132248
0.00132297
0.00132351
0.00132365
0.00132411
0.0013247
0.00132509
0.00132563
0.001326
0.00132582
0.00132603
0.00132692
0.00132737
0.00132746
0.00132728
0.00132712
0.00132708
0.00132679
0.00132704
0.00132724
0.00132713
0.00132703
0.00132632
0.00132645
0.00132783
0.00132784
0.00132742
0.0013276
0.00132779
0.00132769
0.00132757
0.00132669
0.00132663
0.0013269
0.00132624
0.00132634
0.00132667
0.00132628
0.00132619
0.00132601
0.00132572
0.00132547
0.00132584
0.00132613
0.00132587
0.00132593
0.00132591
0.00132581
0.00132578
0.00132554
0.00132474
0.00132447
0.00132469
0.00132427
0.00132446
0.00132491
0.00132466
0.00132483
0.00132488
0.0013247
0.00132395
0.00118141
0.0012247
0.00126645
0.00129659
0.00131497
0.00132313
0.00132478
0.00132522
0.00132506
0.00132434
0.00132425
0.00132403
0.0013232
0.00132301
0.00132327
0.00132306
0.00132261
0.00132209
0.0013217
0.00132098
0.00132099
0.00132115
0.00132083
0.00132049
0.00132017
0.00132019
0.00132015
0.00132034
0.00132125
0.00132214
0.0013227
0.00132341
0.00132402
0.00132466
0.00132536
0.00132599
0.00132656
0.00132694
0.00132698
0.00132663
0.00132666
0.00132685
0.00132688
0.00132693
0.00132694
0.00132679
0.00132612
0.00132628
0.00132686
0.00132686
0.00132665
0.00132594
0.00132619
0.00132777
0.0013278
0.00132762
0.00132731
0.00132745
0.00132776
0.00132766
0.00132755
0.00132681
0.00132681
0.00132693
0.00132685
0.00132677
0.00132653
0.00132642
0.00132601
0.0013255
0.00132574
0.00132605
0.00132602
0.00132597
0.00132547
0.00132524
0.00132521
0.00132499
0.00132533
0.00132561
0.00132559
0.00132557
0.0013252
0.00132516
0.00132507
0.00132461
0.00132444
0.00132459
0.0013246
0.00132417
0.00118144
0.00122464
0.00126627
0.00129719
0.00131493
0.00132197
0.00132313
0.00132297
0.00132246
0.0013224
0.00132297
0.00132286
0.00132245
0.00132188
0.00132151
0.00132084
0.00132086
0.00132106
0.00132015
0.00131984
0.00132041
0.00132116
0.00132091
0.0013202
0.00132007
0.00132049
0.00132072
0.00132068
0.0013213
0.00132199
0.00132255
0.00132322
0.00132375
0.0013245
0.00132512
0.00132564
0.00132559
0.00132599
0.00132632
0.00132606
0.0013266
0.00132716
0.00132703
0.00132722
0.00132742
0.00132753
0.00132725
0.00132729
0.00132732
0.00132686
0.00132695
0.00132701
0.00132689
0.00132678
0.00132626
0.00132612
0.00132585
0.00132547
0.00132478
0.00132501
0.00132566
0.00132566
0.00132545
0.00132474
0.00132483
0.0013256
0.00132567
0.00132559
0.00132539
0.00132501
0.00132482
0.00132507
0.00132494