/*--------------------------------*- C++ -*----------------------------------*\
  =========                 |
  \\      /  F ield         | OpenFOAM: The Open Source CFD Toolbox
   \\    /   O peration     | Website:  https://openfoam.org
    \\  /    A nd           | Version:  11
     \\/     M anipulation  |
\*---------------------------------------------------------------------------*/
FoamFile
{
    format      ascii;
    class       volScalarField;
    location    "0.064";
    object      omega;
}
// * * * * * * * * * * * * * * * * * * * * * * * * * * * * * * * * * * * * * //

dimensions      [0 0 -1 0 0 0 0];

internalField   nonuniform List<scalar> 
287084
(
54.991
55.9944
56.9163
57.5627
57.9085
58.0258
58.0374
58.0347
58.0255
58.029
58.0426
58.0362
58.0417
58.045
58.0436
58.0433
58.036
58.0348
58.0278
58.0331
58.0501
58.0412
58.0469
58.0515
58.0508
58.0506
58.0379
58.0425
58.053
58.0515
58.0511
58.0493
58.0487
58.041
58.0351
58.0327
58.0253
58.0259
58.0264
58.0231
58.013
58.0145
58.016
58.0121
58.0116
58.0081
57.9978
57.997
58.0082
58.0001
58.0039
58.016
58.0157
58.0155
58.0113
58.0007
58.0025
58.0064
57.9975
58.0046
58.0095
58.0045
57.9986
58.0052
58.0236
58.0226
58.0202
58.0077
58.0104
58.0191
58.0197
58.0196
58.0074
58.01
58.0127
58.0179
58.0209
58.0191
58.0177
58.014
58.018
58.0154
58.0228
58.0269
58.0258
58.0249
58.0067
58.0054
58.0105
58.0001
54.9949
55.9889
56.9015
57.5533
57.9056
58.03
58.0429
58.0326
58.0369
58.0515
58.0522
58.0523
58.0475
58.0473
58.0436
58.0314
58.0317
58.0389
58.0385
58.037
58.0347
58.0493
58.0662
58.0678
58.0651
58.0623
58.0598
58.0558
58.0427
58.0441
58.0526
58.0455
58.0488
58.0497
58.0443
58.0437
58.0418
58.0325
58.0262
58.0378
58.0431
58.04
58.0347
58.0256
58.0314
58.039
58.0339
58.036
58.0369
58.0353
58.0325
58.0155
58.0156
58.0192
58.0138
58.0139
58.0131
58.0069
58.0037
58.01
58.0077
58.0167
58.0252
58.0228
58.0225
58.0133
58.0198
58.0303
58.0277
58.0205
58.018
58.0317
58.039
58.0378
58.0385
58.0347
58.0174
58.0166
58.026
58.0232
58.0252
58.0225
58.0174
58.0154
58.0245
58.0293
58.0238
58.0237
58.0225
58.0069
54.9951
55.9878
56.9011
57.5519
57.8979
58.0356
58.0578
58.0558
58.0491
58.0468
58.0516
58.0478
58.0482
58.0484
58.0479
58.0431
58.0498
58.0592
58.0579
58.0571
58.0457
58.0473
58.0501
58.0585
58.0676
58.0676
58.0676
58.0597
58.0593
58.0602
58.061
58.0582
58.0539
58.0502
58.0472
58.0414
58.0339
58.0318
58.0305
58.0388
58.0423
58.0318
58.0361
58.0379
58.0362
58.0359
58.0254
58.0312
58.0378
58.0368
58.0366
58.0314
58.029
58.0193
58.0097
58.0158
58.0199
58.009
58.0099
58.0181
58.0166
58.0184
58.0185
58.0145
58.0104
58.0209
58.0324
58.0329
58.033
58.0264
58.0261
58.0256
58.0217
58.0125
58.015
58.0181
58.0112
58.0112
58.0145
58.0143
58.006
58.0103
58.0257
58.0237
58.0239
58.0223
58.0199
58.018
58.0144
58.0031
54.9932
55.9904
56.9009
57.545
57.8974
58.0398
58.064
58.0622
58.0553
58.052
58.0614
58.0641
58.0609
58.0528
58.0473
58.0567
58.0643
58.0595
58.0596
58.0597
58.0598
58.0576
58.0572
58.0473
58.0486
58.0501
58.0483
58.0494
58.0432
58.0547
58.0642
58.0635
58.0634
58.0577
58.0566
58.0543
58.0529
58.049
58.0323
58.035
58.0399
58.037
58.0279
58.0284
58.0362
58.0348
58.0348
58.0349
58.0335
58.0186
58.0211
58.0238
58.023
58.0229
58.0173
58.0164
58.0108
58.0057
58.0173
58.0295
58.029
58.0285
58.0177
58.0168
58.0121
58.0199
58.0317
58.0186
58.0239
58.0343
58.0288
58.0214
58.022
58.0243
58.0148
58.0191
58.0321
58.0404
58.0396
58.0387
58.0384
58.0218
58.0213
58.03
58.0307
58.0298
58.0179
58.0208
58.0234
58.01
54.993
55.991
56.8992
57.5437
57.9032
58.0269
58.0345
58.0406
58.0552
58.0485
58.0437
58.0512
58.0567
58.0536
58.0431
58.0445
58.0512
58.0436
58.0439
58.0441
58.0458
58.04
58.0436
58.052
58.055
58.0532
58.0491
58.0489
58.0524
58.0522
58.0506
58.0499
58.0476
58.0457
58.043
58.0336
58.0336
58.0531
58.0585
58.057
58.056
58.0461
58.0434
58.0394
58.0369
58.0341
58.0308
58.0299
58.0254
58.0146
58.0118
58.0158
58.0167
58.0153
58.0138
58.013
58.0133
58.0075
58.013
58.0164
58.0112
58.0108
58.0108
58.009
58.0051
58.0056
58.005
58.0127
58.0158
58.0143
58.0107
58.0164
58.0354
58.0358
58.0365
58.0321
58.0289
58.0222
58.0217
58.0194
58.0153
58.0141
58.0138
58.0063
58.0092
58.0234
58.021
58.0201
58.0171
58.0082
54.9926
55.9894
56.9012
57.5503
57.894
58.0028
58.0125
58.0207
58.0482
58.0488
58.0494
58.0491
58.0446
58.0322
58.027
58.0354
58.036
58.0417
58.0492
58.0486
58.0468
58.0472
58.0395
58.0435
58.05
58.0371
58.0401
58.057
58.0598
58.057
58.0483
58.0469
58.0457
58.0457
58.0376
58.0422
58.0459
58.0393
58.0416
58.045
58.0425
58.038
58.0343
58.0284
58.025
58.0154
58.0153
58.0237
58.0272
58.0252
58.0248
58.0149
58.0137
58.025
58.0252
58.0252
58.0252
58.0182
58.019
58.0233
58.0248
58.025
58.0183
58.0173
58.0093
58.0149
58.0305
58.0318
58.032
58.0272
58.0264
58.0235
58.0137
58.0179
58.0319
58.0273
58.0282
58.0296
58.0305
58.0261
58.0225
58.0106
58.0119
58.026
58.0278
58.0281
58.0218
58.0231
58.0203
58.0107
54.9907
55.9906
56.9016
57.5495
57.8955
58.0066
58.0396
58.0409
58.0402
58.04
58.0246
58.0237
58.0546
58.071
58.0618
58.0683
58.0835
58.0852
58.0826
58.0719
58.071
58.0706
58.0644
58.0625
58.0732
58.0759
58.0725
58.0599
58.0621
58.066
58.0537
58.0498
58.0514
58.0509
58.0541
58.0548
58.0515
58.0373
58.0399
58.0503
58.0513
58.0511
58.0354
58.0385
58.0431
58.0398
58.0293
58.0285
58.0323
58.0336
58.0337
58.0211
58.0241
58.0254
58.0237
58.0205
58.0223
58.0298
58.0251
58.0252
58.0256
58.0247
58.0111
58.0135
58.0244
58.0178
58.0182
58.0183
58.0186
58.0095
58.0134
58.0193
58.0137
58.0102
58.0179
58.03
58.026
58.0259
58.025
58.0147
58.0127
58.0211
58.0226
58.0236
58.0211
58.0129
58.0192
58.0308
58.0282
58.0178
54.9921
55.9908
56.9041
57.5358
57.8923
58.0511
58.0865
58.0986
58.0972
58.0959
58.093
58.0939
58.0951
58.0946
58.0946
58.092
58.0848
58.0832
58.0861
58.078
58.0824
58.0863
58.0835
58.0838
58.0817
58.0758
58.0763
58.0796
58.0765
58.0765
58.0759
58.0762
58.0703
58.0532
58.0493
58.0498
58.0447
58.0399
58.0501
58.0596
58.0583
58.0575
58.0438
58.0464
58.0526
58.0483
58.0488
58.0459
58.0355
58.0335
58.0394
58.0324
58.0392
58.0472
58.0388
58.0383
58.036
58.0402
58.0414
58.0397
58.0395
58.0355
58.0215
58.0217
58.0222
58.0128
58.009
58.0178
58.0265
58.022
58.024
58.0266
58.0271
58.0251
58.0149
58.0215
58.0359
58.0373
58.0346
58.0292
58.0279
58.0144
58.0165
58.0325
58.0333
58.0308
58.0177
58.0212
58.0265
58.011
54.9916
55.9898
56.9025
57.5473
57.8914
58.0238
58.0417
58.042
58.0419
58.0301
58.0281
58.0492
58.0685
58.0718
58.0683
58.0689
58.0683
58.0676
58.0818
58.0897
58.0883
58.0908
58.0881
58.0759
58.0804
58.0842
58.084
58.0841
58.0819
58.081
58.0721
58.0676
58.0629
58.0483
58.0495
58.0535
58.0471
58.0435
58.0413
58.0359
58.0434
58.053
58.0385
58.042
58.052
58.0484
58.048
58.049
58.0497
58.0471
58.0431
58.0273
58.0224
58.0203
58.0174
58.0089
58.0145
58.0253
58.0254
58.0253
58.0112
58.0165
58.0252
58.0255
58.0255
58.0182
58.0171
58.0076
58.0104
58.0333
58.0352
58.0321
58.026
58.0182
58.0162
58.0119
58.0186
58.0401
58.0432
58.0413
58.0371
58.037
58.0331
58.0197
58.0234
58.0307
58.0224
58.0219
58.0213
58.0102
54.9924
55.9844
56.9104
57.5446
57.8896
58.0178
58.0329
58.032
58.0286
58.0357
58.0544
58.053
58.0505
58.0384
58.0449
58.0588
58.0549
58.0571
58.0546
58.0518
58.0444
58.0498
58.0562
58.0539
58.0548
58.0528
58.0448
58.0454
58.0604
58.0639
58.0614
58.0599
58.0582
58.0461
58.0498
58.0545
58.0531
58.0532
58.0505
58.05
58.047
58.0452
58.0414
58.0346
58.0167
58.0114
58.0161
58.0215
58.0192
58.0046
58.0041
58.0136
58.0149
58.0123
57.9996
58.0035
58.009
57.996
57.995
58.0161
58.0237
58.0206
58.0139
58.0083
58.0088
58.0005
58.0014
58.012
58.0113
58.0143
58.0154
58.0131
58.0037
58.0088
58.0166
58.0036
58.0028
58.0213
58.0266
58.0247
58.0242
58.0139
58.0201
58.0353
58.0349
58.0339
58.0244
58.0194
58.017
58.0084
54.9928
55.9881
56.9029
57.5449
57.8969
58.0245
58.0387
58.038
58.0346
58.0387
58.0451
58.0394
58.0372
58.0463
58.0524
58.0426
58.05
58.0676
58.0598
58.0675
58.0732
58.0716
58.0713
58.0596
58.0647
58.0686
58.0542
58.059
58.0626
58.0605
58.0546
58.0526
58.063
58.0677
58.0656
58.0582
58.0551
58.0549
58.0548
58.053
58.0511
58.0435
58.0232
58.0178
58.0172
58.0077
58.0134
58.0285
58.0284
58.0285
58.0226
58.0255
58.0264
58.0238
58.0131
58.0152
58.0169
58.0081
58.0049
58.0147
58.0226
58.0193
58.0098
58.0065
58.0176
58.0205
58.0172
58.0046
58.0036
58.0146
58.0203
58.0188
58.0124
58.0192
58.0213
58.0172
58.0171
58.0112
58.0171
58.032
58.0186
58.0175
58.0296
58.0352
58.0322
58.0203
58.0233
58.0266
58.0233
58.0127
54.991
55.9912
56.9007
57.5464
57.8944
58.0258
58.0528
58.0554
58.0528
58.0491
58.0445
58.0509
58.0673
58.0761
58.0818
58.0728
58.0726
58.0725
58.0648
58.0689
58.0806
58.0714
58.0685
58.0712
58.0699
58.0781
58.0837
58.0807
58.0804
58.0809
58.0819
58.079
58.0764
58.0712
58.0674
58.0632
58.0592
58.0517
58.0405
58.0324
58.0261
58.0211
58.019
58.0119
58.0172
58.0216
58.0194
58.013
58.0121
58.0225
58.0169
58.0233
58.032
58.032
58.032
58.0247
58.0133
58.0137
58.0156
58.0059
58.0038
58.0091
58.0059
58.0134
58.0307
58.0293
58.0266
58.0121
58.0107
58.0282
58.0319
58.0283
58.0152
58.0144
58.025
58.0278
58.0243
58.0091
58.0076
58.023
58.026
58.0235
58.0161
58.0217
58.0298
58.0284
58.0273
58.0182
58.0155
58.0065
54.9922
55.9904
56.9051
57.5331
57.8958
58.0486
58.0758
58.0747
58.0679
58.0736
58.0841
58.0697
58.0726
58.083
58.0712
58.0768
58.0874
58.0854
58.0853
58.0741
58.0804
58.0909
58.0757
58.0749
58.0894
58.0919
58.0877
58.0887
58.0891
58.0872
58.0756
58.0711
58.0655
58.0627
58.0549
58.0566
58.0612
58.0604
58.0597
58.042
58.0434
58.0467
58.0449
58.0441
58.031
58.0351
58.0429
58.0409
58.0403
58.0402
58.0415
58.0399
58.0371
58.0221
58.0172
58.0237
58.0293
58.0262
58.0117
58.0143
58.029
58.0302
58.031
58.0263
58.023
58.0166
58.0108
58.0173
58.0242
58.0199
58.0222
58.0261
58.0238
58.0212
58.0144
58.0215
58.0329
58.0331
58.0329
58.0192
58.0237
58.03
58.0296
58.0294
58.0204
58.0169
58.0218
58.0243
58.0213
58.0116
54.9923
55.9871
56.9031
57.5522
57.892
58.0048
58.0317
58.0335
58.023
58.0299
58.0352
58.0271
58.0321
58.0343
58.0248
58.0299
58.0475
58.0404
58.0482
58.0567
58.0437
58.0425
58.0547
58.0546
58.064
58.0801
58.069
58.0743
58.0769
58.0736
58.0635
58.0638
58.0643
58.0593
58.0518
58.054
58.0578
58.0464
58.049
58.0524
58.0496
58.0495
58.0499
58.0508
58.0486
58.0466
58.0365
58.0394
58.0417
58.0404
58.0395
58.025
58.0191
58.0219
58.0279
58.0248
58.0126
58.0104
58.0221
58.0254
58.0224
58.0156
58.0099
58.0164
58.0198
58.0178
58.0122
58.0155
58.0258
58.0223
58.0255
58.0267
58.0242
58.0186
58.0108
58.0131
58.0113
58.019
58.0349
58.0236
58.0295
58.0401
58.0413
58.0386
58.0302
58.0244
58.0318
58.0401
58.0367
58.0236
54.9922
55.9907
56.9039
57.536
57.8906
58.053
58.0865
58.0861
58.0805
58.0847
58.0933
58.0801
58.0853
58.0915
58.0846
58.0868
58.0842
58.0741
58.0777
58.0873
58.0792
58.0836
58.09
58.0933
58.091
58.0892
58.0889
58.0843
58.0842
58.0843
58.0819
58.0818
58.0796
58.0769
58.0721
58.0681
58.0639
58.0563
58.0436
58.0374
58.0321
58.0164
58.0152
58.0297
58.0339
58.0319
58.0292
58.0257
58.0109
58.0139
58.023
58.0094
58.0096
58.0263
58.0289
58.0271
58.0271
58.022
58.0197
58.0105
58.0125
58.0321
58.0364
58.034
58.0235
58.0299
58.0346
58.0347
58.0347
58.0183
58.0208
58.0244
58.0238
58.0237
58.0114
58.0205
58.0327
58.0324
58.0321
58.0188
58.0239
58.0329
58.0261
58.0259
58.0255
58.0206
58.0135
58.0184
58.0214
58.0103
54.9942
55.9914
56.8964
57.5453
57.8979
58.0173
58.0546
58.0559
58.0419
58.0395
58.0483
58.0551
58.0523
58.0411
58.0453
58.0616
58.0641
58.0616
58.0507
58.0554
58.0598
58.0505
58.0546
58.0669
58.0667
58.0628
58.0669
58.0717
58.0582
58.0609
58.0678
58.0528
58.0524
58.0614
58.0617
58.059
58.0542
58.055
58.0549
58.0519
58.0484
58.0477
58.0424
58.0401
58.0393
58.0348
58.015
58.0058
58.0103
58.0063
58.0144
58.0213
58.0198
58.0193
58.0127
58.0231
58.0266
58.0294
58.053
58.0571
58.0535
58.0446
58.0415
58.0454
58.0461
58.0437
58.0474
58.0487
58.0463
58.0461
58.041
58.0246
58.0219
58.0289
58.0305
58.0302
58.0202
58.0214
58.0222
58.0118
58.0135
58.0303
58.0355
58.0328
58.028
58.0214
58.0232
58.0247
58.0214
58.0112
54.9924
55.9919
56.903
57.5361
57.8853
58.0523
58.0998
58.1003
58.098
58.0984
58.0947
58.0985
58.1014
58.0991
58.096
58.0929
58.0888
58.0741
58.0756
58.0857
58.082
58.0796
58.0779
58.0738
58.0814
58.088
58.088
58.0879
58.0812
58.0803
58.0759
58.0755
58.0721
58.0654
58.0628
58.0593
58.0572
58.0544
58.0516
58.0484
58.0422
58.0282
58.0135
58.0169
58.0199
58.0164
58.0094
58.0037
58.0055
57.9991
58.0058
58.0176
58.0153
58.0072
58.0069
58.0232
58.0382
58.0397
58.0243
58.0253
58.0353
58.0243
58.0281
58.0374
58.0288
58.0287
58.0289
58.0266
58.0242
58.0226
58.0112
58.0132
58.0261
58.0277
58.028
58.0244
58.0138
58.0188
58.0298
58.0272
58.0278
58.029
58.0283
58.0128
58.0113
58.0209
58.0126
58.0135
58.0226
58.0124
54.9922
55.991
56.9031
57.5387
57.8846
58.0579
58.0993
58.0994
58.0962
58.0989
58.1005
58.1003
58.1003
58.0858
58.0901
58.0949
58.0802
58.085
58.0944
58.0793
58.0805
58.0907
58.0923
58.0905
58.0928
58.0957
58.0949
58.0947
58.0885
58.0879
58.085
58.0819
58.0776
58.0733
58.0702
58.0671
58.0625
58.0529
58.0422
58.0353
58.0307
58.0218
58.0146
58.0134
58.0089
58.0063
58.0017
58.0088
58.0212
58.0217
58.0218
58.0175
58.0088
58.0105
58.0191
58.025
58.0356
58.026
58.0329
58.0406
58.0319
58.0373
58.0403
58.0375
58.0329
58.0239
58.0252
58.0263
58.0181
58.0196
58.0369
58.0396
58.0381
58.038
58.0349
58.0261
58.0245
58.0289
58.0281
58.0281
58.0271
58.0171
58.0229
58.0311
58.0309
58.0307
58.016
58.0192
58.0241
58.0104
54.9925
55.9917
56.9037
57.5339
57.8899
58.0499
58.0856
58.0964
58.0946
58.0826
58.0879
58.0924
58.0898
58.0817
58.0828
58.0888
58.0737
58.0737
58.0826
58.0821
58.0839
58.0817
58.0753
58.0816
58.0862
58.0793
58.0791
58.0783
58.0797
58.079
58.0794
58.0744
58.0595
58.0502
58.049
58.0422
58.0476
58.0538
58.0534
58.0532
58.047
58.0466
58.0427
58.0363
58.0292
58.0218
58.0162
58.0041
57.9957
58.0084
58.0162
58.016
58.0159
58.0024
58.0033
58.0227
58.0439
58.0427
58.0294
58.0353
58.0427
58.0331
58.0388
58.0426
58.0392
58.0311
58.0272
58.0316
58.0327
58.0258
58.0286
58.0331
58.0212
58.0271
58.0321
58.0291
58.0224
58.0182
58.0268
58.032
58.0304
58.0303
58.0257
58.0112
58.008
58.0145
58.015
58.015
58.0146
58.0048
54.9911
55.996
56.8963
57.5405
57.8948
58.0407
58.0641
58.063
58.0602
58.0548
58.0613
58.0643
58.0612
58.0512
58.0549
58.0664
58.0565
58.0634
58.0698
58.0686
58.0682
58.0663
58.0779
58.0782
58.0873
58.0926
58.0916
58.0914
58.0862
58.0859
58.0833
58.0807
58.0768
58.0727
58.0681
58.064
58.0578
58.0528
58.0487
58.0418
58.0335
58.0286
58.0191
58.0109
58.0085
58.0032
58.0064
58.0078
58.0051
58.0005
57.9974
58.0286
58.0581
58.0578
58.0547
58.0582
58.0684
58.068
58.0661
58.049
58.0471
58.052
58.0494
58.0481
58.0493
58.0502
58.0477
58.0405
58.0436
58.0493
58.0491
58.0492
58.0458
58.0449
58.0301
58.0326
58.0356
58.0266
58.0271
58.0265
58.0217
58.016
58.0136
58.0118
58.0141
58.0166
58.015
58.0134
58.0123
58.0032
54.9929
55.989
56.9015
57.5466
57.8958
58.0147
58.0273
58.0207
58.0247
58.04
58.0418
58.0393
58.036
58.0284
58.0379
58.0538
58.0524
58.053
58.0467
58.0559
58.0931
58.0982
58.093
58.0956
58.0961
58.0929
58.0858
58.082
58.0783
58.0766
58.0762
58.074
58.072
58.0673
58.0611
58.0436
58.0438
58.047
58.0451
58.0441
58.0346
58.0323
58.0305
58.0259
58.0101
58.0088
58.0186
58.0211
58.019
58.0183
58.0158
58.013
58.01
58.0008
57.999
57.9973
58.0036
58.008
58.007
58.0087
58.0041
58.002
58.002
58.0016
57.9943
58
58.0116
58.0062
58.001
58.0082
58.0261
58.0224
58.0273
58.0322
58.0308
58.0301
58.0188
58.0233
58.0348
58.0298
58.0319
58.0293
58.0261
58.0171
58.0183
58.0201
58.0088
58.0136
58.0215
58.0076
54.9923
55.9902
56.9055
57.5323
57.897
58.0495
58.0742
58.0747
58.0771
58.0744
58.0662
58.0725
58.0842
58.0804
58.0803
58.0788
58.0792
58.0771
58.0772
58.0719
58.0794
58.0958
58.0921
58.0933
58.0979
58.0986
58.0968
58.0957
58.0877
58.0849
58.0789
58.059
58.0587
58.0614
58.061
58.0603
58.0499
58.0493
58.0461
58.0401
58.0356
58.0322
58.0283
58.0257
58.0208
58.01
57.9988
58.0034
58.0127
58.0115
58.0112
58.0011
58.0108
58.0492
58.0516
58.0521
58.047
58.0556
58.0655
58.0586
58.0589
58.0589
58.0515
58.0562
58.0604
58.0454
58.0428
58.045
58.0345
58.0369
58.0473
58.0374
58.0425
58.0536
58.0499
58.053
58.0549
58.0515
58.0538
58.0543
58.0518
58.0494
58.0291
58.0238
58.0282
58.0296
58.0271
58.0218
58.0196
58.0064
54.9922
55.9908
56.9037
57.537
57.8886
58.0561
58.0892
58.0798
58.0865
58.0955
58.0876
58.0888
58.086
58.0839
58.0773
58.0839
58.0941
58.0791
58.0796
58.0922
58.0931
58.0924
58.0922
58.1043
58.1098
58.1048
58.1068
58.1041
58.1005
58.1003
58.0965
58.0884
58.0814
58.0766
58.07
58.055
58.05
58.0445
58.0269
58.0258
58.0373
58.0381
58.0366
58.0252
58.0187
58.0174
58.0114
58.019
58.0258
58.0252
58.0249
58.0104
58.0153
58.0473
58.0474
58.0574
58.069
58.0648
58.0643
58.0641
58.0639
58.0539
58.0598
58.0654
58.0487
58.0498
58.0559
58.0425
58.0462
58.0565
58.0508
58.055
58.0567
58.0509
58.0558
58.0578
58.0552
58.0547
58.0432
58.0462
58.0474
58.0434
58.0438
58.0444
58.0421
58.0262
58.0207
58.0264
58.0274
58.0165
54.9934
55.9868
56.903
57.551
57.8865
58.0232
58.0424
58.0386
58.0386
58.0333
58.037
58.0384
58.0271
58.0259
58.0509
58.065
58.0605
58.0768
58.0992
58.0973
58.0979
58.0965
58.0967
58.0933
58.0933
58.0928
58.0848
58.0879
58.0898
58.0861
58.0867
58.084
58.0822
58.0786
58.0714
58.0671
58.061
58.0491
58.026
58.0252
58.0315
58.0232
58.0275
58.0289
58.0248
58.0259
58.023
58.0115
58.0125
58.0186
58.006
58.0036
58.0083
58.0139
58.0117
58.0004
58.0079
58.0186
58.0138
58.0153
58.0151
58.0079
58.007
58.0288
58.0375
58.0358
58.0347
58.0261
58.0236
58.0195
58.0276
58.0327
58.0306
58.0241
58.0259
58.0308
58.0163
58.0168
58.0273
58.0262
58.0265
58.026
58.0221
58.0135
58.0221
58.0312
58.0303
58.0302
58.0258
58.0111
54.9913
55.9935
56.8993
57.5392
57.899
58.037
58.0713
58.0704
58.0628
58.0611
58.0669
58.0671
58.0673
58.0673
58.0687
58.0673
58.0677
58.0641
58.0686
58.0738
58.0719
58.0659
58.0706
58.0859
58.073
58.0739
58.0889
58.0926
58.0908
58.0908
58.0848
58.063
58.0563
58.0567
58.0569
58.0543
58.0514
58.0511
58.0476
58.0435
58.031
58.0253
58.021
58.0131
57.9985
57.9982
58.0032
58.0032
58.0031
57.9903
57.9944
58.0144
58.0152
58.0114
57.997
57.9975
58.0052
57.9938
57.9965
58.01
58.006
58.01
58.015
58.0113
58.0133
58.017
58.015
58.0118
57.9988
58.0023
58.0168
58.0166
58.0121
58.0155
58.0203
58.0054
58.0101
58.02
58.0175
58.0173
58.0099
58.0191
58.0304
58.029
58.0287
58.0265
58.0261
58.0231
58.02
58.0026
54.9922
55.9905
56.9047
57.5339
57.895
58.0501
58.0761
58.0756
58.0719
58.0785
58.0888
58.0764
58.0825
58.0922
58.0921
58.0912
58.0918
58.0933
58.0874
58.087
58.0865
58.0817
58.0902
58.1013
58.1003
58.0999
58.0975
58.097
58.0929
58.0921
58.0867
58.081
58.0758
58.071
58.0636
58.0462
58.0409
58.0389
58.033
58.0325
58.0324
58.0306
58.0306
58.028
58.0242
58.0183
58.0046
57.9941
58.0018
58.01
58.0079
58.0041
58.0004
58.0061
58.0112
58.0094
58.0087
57.9987
58.0033
58.0101
58.0049
58.0014
58.0103
58.024
58.0183
58.0214
58.0223
58.0195
58.0066
58.0054
58.0095
57.9996
58
58.022
58.0292
58.0264
58.0263
58.0247
58.0252
58.0256
58.0234
58.0109
58.0036
58.017
58.0246
58.0216
58.0108
58.0121
58.0218
58.0092
54.9921
55.9909
56.9031
57.5389
57.8847
58.0583
58.0994
58.1037
58.1011
58.0867
58.0915
58.0974
58.0855
58.0916
58.0971
58.0832
58.0882
58.0982
58.0832
58.0834
58.0935
58.0937
58.0906
58.0967
58.1067
58.103
58.1053
58.1018
58.0992
58.0982
58.0978
58.098
58.0982
58.0927
58.0794
58.0605
58.0522
58.0476
58.0453
58.0426
58.0401
58.0397
58.0358
58.0329
58.0285
58.0141
58.015
58.0172
58.0165
58.0163
58.0039
58.0006
58.029
58.0631
58.055
58.062
58.0702
58.066
58.066
58.0631
58.064
58.0624
58.0638
58.0631
58.0574
58.0528
58.0493
58.038
58.0422
58.0532
58.0449
58.0453
58.0446
58.0459
58.043
58.0315
58.0347
58.0409
58.0379
58.0377
58.0385
58.0379
58.0227
58.0248
58.0369
58.0371
58.0347
58.0337
58.0299
58.0098
54.9922
55.9908
56.9037
57.5369
57.8886
58.0562
58.0893
58.08
58.0867
58.0958
58.0853
58.0886
58.0924
58.0896
58.0804
58.0846
58.0944
58.0792
58.0795
58.0895
58.0846
58.0933
58.1026
58.0929
58.0992
58.1029
58.1022
58.102
58.0979
58.097
58.0932
58.0889
58.0741
58.0667
58.0625
58.0544
58.0511
58.0456
58.0285
58.0258
58.0384
58.0399
58.0362
58.0253
58.0188
58.0174
58.0133
58.0202
58.0247
58.0236
58.0233
58.0109
58.0187
58.0507
58.0517
58.0467
58.0529
58.0588
58.0587
58.0586
58.0418
58.044
58.0525
58.0388
58.043
58.0517
58.0429
58.0428
58.0417
58.0343
58.0313
58.0426
58.0489
58.0455
58.0461
58.0463
58.0456
58.0433
58.0379
58.0193
58.0173
58.0262
58.0157
58.0202
58.0301
58.0257
58.0283
58.0293
58.0263
58.0101
54.9923
55.9902
56.9056
57.5322
57.8974
58.0482
58.073
58.0827
58.085
58.0753
58.0783
58.0791
58.0687
58.0725
58.0838
58.085
58.0858
58.0824
58.0813
58.0752
58.0832
58.0918
58.0889
58.0815
58.0781
58.0805
58.0722
58.0707
58.0837
58.0905
58.0884
58.0857
58.0825
58.0798
58.0788
58.0763
58.0729
58.0668
58.0545
58.0364
58.0294
58.0268
58.0219
58.0193
58.0166
58.0124
57.9995
58.0052
58.0157
58.0161
58.0161
58.0037
58.0144
58.0503
58.0516
58.0498
58.0459
58.0529
58.0615
58.0614
58.0613
58.0475
58.0495
58.0539
58.0534
58.0534
58.0491
58.0477
58.0387
58.0304
58.0392
58.0462
58.046
58.0459
58.0339
58.0312
58.0343
58.0294
58.037
58.0427
58.0424
58.0423
58.0365
58.0368
58.0335
58.0202
58.0189
58.0261
58.0261
58.0164
54.9931
55.9885
56.9027
57.5455
57.8937
58.0198
58.0375
58.0357
58.0278
58.0328
58.049
58.0497
58.0499
58.0439
58.0438
58.0386
58.0475
58.0589
58.0471
58.0491
58.0694
58.0873
58.0878
58.0735
58.0735
58.0829
58.0832
58.0778
58.0818
58.0853
58.0839
58.0835
58.0789
58.0778
58.0747
58.0703
58.053
58.0483
58.044
58.0303
58.0346
58.0395
58.0325
58.0338
58.0331
58.0317
58.0272
58.0281
58.0294
58.0221
58.0251
58.028
58.0274
58.0272
58.0173
58.0162
58.0123
58.0044
57.9948
58.0052
58.0183
58.0189
58.019
58.0064
58.0116
58.028
58.0289
58.0311
58.0282
58.0181
58.0173
58.0276
58.0247
58.0338
58.0418
58.0296
58.035
58.0395
58.0289
58.0337
58.0365
58.0339
58.0302
58.021
58.0265
58.0345
58.0369
58.0347
58.0321
58.0159
54.9946
55.9904
56.8971
57.546
57.897
58.016
58.0534
58.0551
58.0526
58.0525
58.0501
58.049
58.0349
58.0343
58.0572
58.0651
58.0643
58.0648
58.0612
58.0524
58.0484
58.0706
58.086
58.0864
58.0863
58.0718
58.0739
58.0801
58.0769
58.077
58.0735
58.0659
58.0569
58.0586
58.0595
58.0554
58.0423
58.0426
58.0427
58.0369
58.0374
58.0356
58.0327
58.0302
58.03
58.0302
58.0315
58.0291
58.0256
58.0211
58.0112
58.0007
58.0053
58.0118
58.0101
58.005
58.0091
58.016
58.0215
58.0339
58.034
58.0349
58.0297
58.0322
58.033
58.0301
58.021
58.0263
58.0321
58.019
58.0246
58.0361
58.0375
58.0348
58.0191
58.0204
58.0341
58.0364
58.0342
58.0343
58.0307
58.0156
58.0187
58.0268
58.0258
58.0251
58.0117
58.0149
58.0184
58.006
54.9942
55.9913
56.8965
57.5454
57.8979
58.0174
58.0543
58.0555
58.04
58.044
58.0488
58.0476
58.0475
58.0392
58.0524
58.0648
58.064
58.0636
58.0528
58.0629
58.0785
58.0781
58.0797
58.0757
58.079
58.0799
58.0775
58.0745
58.0745
58.0693
58.0566
58.0489
58.0584
58.0649
58.0608
58.0601
58.059
58.0544
58.0444
58.0408
58.0375
58.0351
58.0307
58.0205
58.0084
58.0102
58.014
58.0108
58.0048
57.9987
58.0128
58.0208
58.0195
58.0384
58.0488
58.0483
58.0479
58.0325
58.0354
58.0461
58.0398
58.0395
58.0395
58.0359
58.0331
58.0301
58.021
58.027
58.038
58.0353
58.0352
58.0361
58.0357
58.019
58.0193
58.0291
58.0329
58.0305
58.0243
58.0246
58.0205
58.0195
58.0191
58.0198
58.0186
58.007
58.0088
58.0212
58.0204
58.0111
54.9922
55.9909
56.9035
57.5374
57.8875
58.0563
58.0914
58.0918
58.0918
58.0831
58.0896
58.097
58.0884
58.094
58.0976
58.0945
58.084
58.0857
58.0935
58.0791
58.0806
58.0909
58.083
58.089
58.0942
58.0856
58.0906
58.0921
58.0887
58.0827
58.0787
58.0726
58.0531
58.0539
58.0579
58.0486
58.0431
58.0391
58.0395
58.0401
58.0391
58.0306
58.0247
58.0274
58.021
58.0273
58.0375
58.0242
58.0291
58.0391
58.04
58.0373
58.0311
58.0295
58.0146
58.0136
58.0261
58.0243
58.0248
58.0248
58.0265
58.0266
58.0276
58.0269
58.0173
58.0189
58.0278
58.027
58.0239
58.0226
58.0362
58.0396
58.0381
58.0378
58.0296
58.0265
58.0297
58.0347
58.0326
58.0292
58.0263
58.013
58.0163
58.033
58.0336
58.0311
58.0174
58.0211
58.0267
58.0112
54.9924
55.992
56.9027
57.537
57.8827
58.0567
58.0961
58.0918
58.0956
58.0964
58.0883
58.093
58.0976
58.0972
58.0955
58.0972
58.102
58.1018
58.1043
58.101
58.0997
58.0995
58.0997
58.0902
58.0947
58.0975
58.0898
58.0898
58.0901
58.0899
58.0891
58.0871
58.0842
58.0796
58.0603
58.0548
58.0548
58.0553
58.0546
58.04
58.0368
58.0363
58.0357
58.0275
58.0287
58.0318
58.0266
58.0199
58.0239
58.0354
58.03
58.0312
58.0314
58.0317
58.0231
58.0289
58.0372
58.0367
58.0364
58.0268
58.0267
58.0211
58.0262
58.0428
58.033
58.0379
58.0497
58.0448
58.0461
58.0464
58.0461
58.0355
58.0334
58.0419
58.0465
58.044
58.0378
58.0296
58.029
58.0337
58.0317
58.0316
58.0301
58.0235
58.0117
58.014
58.0199
58.0196
58.0193
58.0055
54.9913
55.9953
56.8981
57.5369
57.8979
58.041
58.0609
58.057
58.0566
58.0558
58.0438
58.042
58.0509
58.0438
58.0417
58.0515
58.0592
58.0569
58.049
58.055
58.0721
58.0685
58.0709
58.075
58.0742
58.0724
58.071
58.0623
58.0529
58.0611
58.0672
58.0638
58.0567
58.0503
58.0557
58.0572
58.0524
58.0525
58.0522
58.0496
58.0455
58.0388
58.0241
58.0073
58.0112
58.0158
58.0128
58.0063
58.0022
58.0168
58.022
58.0208
58.0206
58.012
58.0113
58.0088
58.0106
58.0368
58.0467
58.0403
58.0412
58.0416
58.0411
58.0337
58.0308
58.0265
58.0338
58.0395
58.0322
58.0324
58.0321
58.023
58.0267
58.0333
58.0187
58.0231
58.0328
58.0274
58.0197
58.0193
58.0318
58.0339
58.0309
58.032
58.0308
58.0171
58.017
58.0263
58.026
58.0167
54.9922
55.9908
56.9038
57.5363
57.8904
58.0517
58.0925
58.0982
58.0948
58.0958
58.0921
58.0949
58.0965
58.0818
58.0853
58.0916
58.0798
58.0868
58.0959
58.0816
58.0863
58.0952
58.0884
58.0927
58.0946
58.0926
58.0909
58.0776
58.0726
58.0746
58.0711
58.0752
58.0758
58.0734
58.074
58.07
58.0606
58.0501
58.0435
58.0387
58.0322
58.0272
58.0168
58.0083
58.0084
58.0035
58.0032
58.0094
58.0056
58.0116
58.0291
58.0307
58.0312
58.0279
58.0175
58.0203
58.0297
58.0279
58.0205
58.0227
58.0297
58.0155
58.0167
58.0257
58.0186
58.015
58.0184
58.0205
58.0159
58.0205
58.0337
58.0361
58.0351
58.0348
58.0284
58.0241
58.0275
58.0291
58.0261
58.0164
58.0213
58.0319
58.0301
58.03
58.0269
58.0219
58.0135
58.018
58.0209
58.0099
54.9918
55.9885
56.9035
57.5489
57.8927
58.0138
58.0266
58.0173
58.0172
58.0373
58.0451
58.0439
58.0434
58.0297
58.0377
58.0621
58.0621
58.0585
58.0614
58.0754
58.075
58.0722
58.0806
58.0948
58.0875
58.0935
58.0961
58.0947
58.0936
58.0797
58.0771
58.0722
58.0695
58.065
58.0504
58.0541
58.0566
58.0531
58.0489
58.0452
58.0451
58.0451
58.0429
58.0371
58.0341
58.0252
58.0307
58.0358
58.0351
58.035
58.0297
58.0274
58.0152
58.0062
58.0159
58.0221
58.0194
58.0143
58.0089
58.0153
58.0209
58.0182
58.009
58.0143
58.0211
58.0207
58.0206
58.0084
58.0114
58.0214
58.0145
58.019
58.0232
58.0227
58.0225
58.0107
58.0152
58.0206
58.0084
58.0059
58.0216
58.0316
58.0288
58.0297
58.0303
58.0293
58.0282
58.0263
58.0216
58.0055
54.9922
55.9906
56.9046
57.5338
57.8952
58.0482
58.0734
58.0842
58.093
58.0925
58.092
58.0773
58.0811
58.087
58.0758
58.0807
58.0853
58.0793
58.0821
58.0826
58.0717
58.0744
58.0827
58.0791
58.0809
58.0845
58.0834
58.0844
58.0833
58.0686
58.0619
58.0687
58.0714
58.0676
58.059
58.0524
58.0505
58.0429
58.048
58.0542
58.0541
58.0538
58.0426
58.0389
58.0357
58.0254
58.0251
58.0407
58.0447
58.0418
58.0366
58.0325
58.0303
58.028
58.0251
58.0228
58.0198
58.0091
58.0112
58.0163
58.0168
58.0145
58.0125
58.0096
58.008
58.0053
58.0133
58.0271
58.0195
58.0149
58.0245
58.0322
58.0313
58.0309
58.0176
58.023
58.0327
58.0322
58.0318
58.0187
58.0241
58.0331
58.0262
58.026
58.0256
58.0207
58.0137
58.0185
58.0215
58.0104
54.991
55.9912
56.9007
57.5464
57.8944
58.0257
58.0527
58.0553
58.0527
58.049
58.0446
58.0503
58.0647
58.0697
58.0885
58.0886
58.0849
58.0749
58.0721
58.0768
58.067
58.0684
58.0772
58.076
58.0807
58.0823
58.0749
58.0795
58.0825
58.0815
58.0813
58.0765
58.0756
58.0704
58.0688
58.0637
58.0531
58.0401
58.0365
58.0282
58.0333
58.044
58.0367
58.0302
58.036
58.0421
58.0417
58.0416
58.0376
58.0245
58.0246
58.0275
58.0186
58.0181
58.0182
58.0169
58.0107
58.0085
58.0085
58.0018
58.0065
58.0183
58.017
58.0096
58.0121
58.0172
58.0152
58.009
58.0073
58.0225
58.0294
58.0272
58.0129
58.0123
58.0249
58.0262
58.0226
58.0123
58.0085
58.0261
58.0349
58.0333
58.0325
58.0253
58.0218
58.0117
58.0107
58.0248
58.0267
58.018
54.9924
55.9867
56.9043
57.5497
57.8945
58.0076
58.0164
58.012
58.0268
58.057
58.0482
58.0546
58.0675
58.0552
58.0612
58.068
58.0553
58.0615
58.0694
58.0555
58.0605
58.07
58.0586
58.0637
58.0667
58.0638
58.0582
58.0552
58.0647
58.0684
58.0664
58.0665
58.0637
58.0603
58.0598
58.0589
58.057
58.0549
58.0531
58.0495
58.0471
58.0442
58.038
58.0236
58.0114
58.0142
58.0157
58.0077
58.0128
58.0186
58.0075
58.0056
58.0214
58.0285
58.0276
58.0273
58.0146
58.0176
58.0254
58.0257
58.0257
58.023
58.0208
58.0093
58.0116
58.0139
58.0046
58.0073
58.0258
58.0321
58.0304
58.0283
58.0262
58.0155
58.0078
58.0125
58.011
58.0167
58.0386
58.0426
58.0407
58.0383
58.0373
58.0321
58.0252
58.0226
58.0178
58.0163
58.0133
58.005
54.9922
55.991
56.9007
57.5454
57.8944
58.0129
58.0426
58.0432
58.043
58.0333
58.0341
58.0512
58.0521
58.0529
58.0512
58.0512
58.046
58.0541
58.0646
58.0649
58.065
58.0523
58.0585
58.0714
58.0691
58.0699
58.068
58.0659
58.0523
58.055
58.0604
58.0574
58.0523
58.0451
58.0435
58.0419
58.0421
58.0392
58.0309
58.0316
58.0319
58.0283
58.0175
58.0183
58.0192
58.0071
58.0112
58.0356
58.0369
58.0328
58.033
58.0334
58.0336
58.0291
58.0137
58.0139
58.0215
58.0202
58.0154
58.0091
58.0208
58.0276
58.0263
58.0258
58.0135
58.0135
58.0381
58.0438
58.0433
58.0424
58.0432
58.044
58.0401
58.0397
58.0354
58.026
58.0186
58.0315
58.0403
58.0374
58.0265
58.0273
58.0332
58.0336
58.0336
58.0218
58.0183
58.0184
58.0183
58.0102
54.9935
55.9882
56.9031
57.5447
57.8899
58.0279
58.0511
58.0501
58.0476
58.0406
58.0348
58.0468
58.0638
58.0731
58.0804
58.0669
58.0719
58.0825
58.07
58.076
58.0852
58.0857
58.0857
58.0715
58.0738
58.077
58.0676
58.0705
58.0713