/*--------------------------------*- C++ -*----------------------------------*\
  =========                 |
  \\      /  F ield         | OpenFOAM: The Open Source CFD Toolbox
   \\    /   O peration     | Website:  https://openfoam.org
    \\  /    A nd           | Version:  11
     \\/     M anipulation  |
\*---------------------------------------------------------------------------*/
FoamFile
{
    format      ascii;
    class       volScalarField;
    location    "0.064";
    object      p;
}
// * * * * * * * * * * * * * * * * * * * * * * * * * * * * * * * * * * * * * //

dimensions      [0 2 -2 0 0 0 0];

internalField   nonuniform List<scalar> 
287084
(
1.70569
1.41943
1.35999
1.29216
1.22258
1.17033
1.12078
1.07495
1.03099
0.987376
0.944026
0.901161
0.858319
0.814753
0.77002
0.724656
0.679129
0.633393
0.587605
0.542019
0.496811
0.452355
0.408757
0.366547
0.325203
0.285851
0.25177
0.221588
0.193987
0.169874
0.147238
0.128027
0.110664
0.0951966
0.0841074
0.076187
0.0710282
0.0683225
0.0677552
0.0690247
0.071844
0.0759345
0.0810104
0.0868393
0.0931799
0.0998393
0.106634
0.113342
0.120021
0.126035
0.131619
0.138085
0.144118
0.14808
0.152013
0.155108
0.15743
0.159684
0.161543
0.162592
0.162832
0.162543
0.161571
0.16021
0.158255
0.155797
0.152855
0.149416
0.145635
0.141096
0.136768
0.13262
0.127261
0.121066
0.115027
0.108755
0.102342
0.0951199
0.0876367
0.0803814
0.0728297
0.0652224
0.0571197
0.0485658
0.0393284
0.0282552
0.0177971
0.0121086
0.00669524
0.00278057
1.56977
1.37827
1.32949
1.27169
1.21102
1.16246
1.11542
1.07104
1.02796
0.98496
0.942156
0.899535
0.856166
0.812057
0.767365
0.722086
0.676444
0.630526
0.58453
0.538705
0.493289
0.448618
0.404851
0.362664
0.321446
0.282628
0.249214
0.219483
0.190383
0.163657
0.14024
0.120174
0.103503
0.0897576
0.079296
0.0718136
0.0670035
0.0646158
0.0643484
0.065909
0.0690044
0.0733607
0.0786895
0.0847566
0.0913212
0.0981873
0.105177
0.112137
0.118957
0.125516
0.131672
0.137527
0.14288
0.146945
0.150779
0.154779
0.157385
0.159422
0.161166
0.162136
0.162432
0.162191
0.161407
0.160029
0.15815
0.155739
0.152749
0.149419
0.145594
0.141476
0.13679
0.1319
0.126919
0.121114
0.11484
0.108541
0.10231
0.0952881
0.0878556
0.0805645
0.072912
0.0651323
0.0572222
0.0483727
0.0388854
0.0302039
0.0221861
0.0153318
0.00890664
0.00326138
1.54357
1.37177
1.32178
1.26601
1.20761
1.15937
1.11263
1.06826
1.02494
0.981923
0.938928
0.895811
0.85224
0.807944
0.762948
0.717333
0.671267
0.624887
0.578412
0.532085
0.486175
0.441049
0.396959
0.354382
0.313636
0.275244
0.239838
0.207558
0.178484
0.152381
0.129643
0.110155
0.0937527
0.0804672
0.0703996
0.0633446
0.0590401
0.0571781
0.0574591
0.0595712
0.0632088
0.0680851
0.073922
0.0804646
0.087476
0.094759
0.10212
0.109423
0.116504
0.123234
0.12951
0.135447
0.141055
0.145854
0.150005
0.153718
0.156584
0.158921
0.160588
0.161592
0.162004
0.161816
0.161019
0.159709
0.157794
0.155432
0.152604
0.149253
0.145452
0.141269
0.136634
0.131761
0.126546
0.120736
0.114705
0.108525
0.101993
0.0951421
0.0880817
0.0807625
0.0733456
0.0657549
0.0577793
0.0494487
0.0405657
0.0317109
0.0236139
0.0157743
0.0078147
0.00250298
1.49624
1.33742
1.29312
1.24275
1.19009
1.14558
1.10178
1.05945
1.01747
0.975343
0.932857
0.889839
0.846089
0.801476
0.75613
0.710056
0.663431
0.616422
0.569248
0.522189
0.475545
0.429659
0.384903
0.341707
0.300401
0.261478
0.225726
0.193089
0.163436
0.137062
0.114084
0.0946139
0.0786498
0.0660969
0.0567869
0.0505444
0.0470558
0.0460432
0.0471728
0.0501334
0.0545958
0.0602639
0.0668509
0.0741045
0.0817781
0.0896712
0.0975994
0.105408
0.112972
0.120172
0.126953
0.133258
0.139013
0.143981
0.148299
0.152176
0.155328
0.157762
0.159565
0.16074
0.161242
0.161146
0.160492
0.159224
0.157446
0.155143
0.152254
0.148972
0.145241
0.141075
0.136526
0.131608
0.126351
0.120657
0.114667
0.1084
0.101874
0.095054
0.0879287
0.0806513
0.0732125
0.0655282
0.0577335
0.0496688
0.041287
0.0329209
0.0245684
0.0162661
0.00813534
0.00285159
1.47333
1.32281
1.28106
1.23266
1.18208
1.13839
1.09518
1.05305
1.01108
0.968838
0.926145
0.882762
0.838547
0.793421
0.747437
0.700636
0.653207
0.605281
0.557162
0.509095
0.461422
0.414543
0.368804
0.324712
0.28263
0.243036
0.206388
0.172975
0.142968
0.116475
0.0937273
0.0747053
0.0593373
0.0475245
0.0390893
0.0337933
0.0313432
0.0314065
0.0336337
0.0376863
0.0432255
0.0499351
0.0575186
0.0657064
0.0742546
0.0829547
0.0916244
0.100114
0.108279
0.116033
0.123279
0.129961
0.136055
0.141454
0.146173
0.150282
0.153631
0.156287
0.158271
0.159587
0.160265
0.160309
0.159724
0.158575
0.156849
0.154591
0.151868
0.148631
0.144939
0.140833
0.136305
0.131397
0.12616
0.120519
0.114547
0.108317
0.101817
0.0950276
0.0880088
0.0807563
0.073326
0.0657342
0.0579146
0.0499281
0.0417698
0.0335019
0.0251766
0.0166228
0.00809588
0.0026898
1.44917
1.30043
1.26042
1.21434
1.16631
1.12468
1.08324
1.04243
1.00135
0.959631
0.917118
0.873595
0.829029
0.78333
0.736638
0.688974
0.640534
0.591528
0.542202
0.492888
0.443941
0.395758
0.348801
0.303504
0.260372
0.219828
0.182394
0.14833
0.117924
0.0913451
0.0687298
0.0501037
0.035396
0.0244909
0.0171331
0.0130587
0.0119083
0.0133356
0.0169477
0.0223818
0.0292678
0.0372721
0.0460848
0.0554293
0.0650532
0.0747478
0.0843272
0.0936387
0.102558
0.110982
0.118838
0.126064
0.132627
0.138458
0.143552
0.147947
0.151611
0.154541
0.156754
0.158268
0.159101
0.15928
0.158845
0.157802
0.156194
0.154049
0.151357
0.14817
0.144536
0.140455
0.135972
0.131099
0.125874
0.120288
0.114373
0.108172
0.101686
0.0949472
0.0879628
0.0807658
0.0733918
0.0658184
0.0580752
0.0501931
0.0421164
0.0339195
0.0255664
0.0168696
0.00822071
0.00280877
1.43121
1.285
1.2467
1.20196
1.1553
1.1145
1.07366
1.03312
0.992113
0.950269
0.907454
0.86347
0.81825
0.771761
0.724105
0.67533
0.625677
0.575291
0.524534
0.473696
0.423191
0.373476
0.324981
0.278285
0.233829
0.192166
0.153756
0.118973
0.0881617
0.061478
0.0391153
0.0210481
0.00719387
-0.00262749
-0.00869827
-0.0113381
-0.0109458
-0.0079082
-0.00265852
0.00439805
0.0128724
0.022405
0.0326697
0.0433786
0.0542694
0.0651273
0.0757744
0.0860594
0.0958509
0.105064
0.11362
0.121471
0.12858
0.134908
0.140452
0.145233
0.149223
0.152442
0.154915
0.156663
0.157708
0.158071
0.157788
0.156887
0.155393
0.153331
0.15075
0.147663
0.144103
0.140092
0.13566
0.130827
0.125631
0.120082
0.114205
0.10803
0.101582
0.0948708
0.0879243
0.0807608
0.0734078
0.0658777
0.0581718
0.0503285
0.0423062
0.0341382
0.0257519
0.0169948
0.00828996
0.00283222
1.41458
1.26875
1.23109
1.18744
1.1418
1.10194
1.06186
1.02189
0.981183
0.939376
0.896329
0.851853
0.805949
0.758547
0.709803
0.659766
0.608668
0.556744
0.504291
0.451701
0.399395
0.347851
0.297615
0.249221
0.20327
0.160278
0.120802
0.0852514
0.0539892
0.0272523
0.0051713
-0.0122476
-0.0251327
-0.0336945
-0.0382619
-0.0392247
-0.0370273
-0.0321179
-0.0249721
-0.0160334
-0.0057288
0.00555907
0.0174871
0.02975
0.0420826
0.0542702
0.0661278
0.0775073
0.0882931
0.0983989
0.107754
0.11631
0.124048
0.130935
0.136975
0.142179
0.146554
0.150118
0.152889
0.154891
0.156159
0.156719
0.156607
0.155859
0.154495
0.152556
0.150075
0.14707
0.143581
0.139633
0.135258
0.13048
0.12533
0.119827
0.113994
0.107862
0.101448
0.0947748
0.0878626
0.0807349
0.0734139
0.0659179
0.0582516
0.0504429
0.0424484
0.034276
0.0258612
0.0170638
0.00836948
0.00290497
1.40004
1.25489
1.21797
1.17496
1.13
1.0906
1.05085
1.01096
0.970196
0.928082
0.884545
0.839387
0.79257
0.744086
0.694043
0.642527
0.589801
0.536061
0.481706
0.427099
0.372722
0.319135
0.266866
0.216604
0.168912
0.124447
0.0837751
0.0473605
0.0156598
-0.01114
-0.0328298
-0.0494799
-0.0612136
-0.0683147
-0.0711717
-0.0702241
-0.0659925
-0.0589739
-0.0496991
-0.0386539
-0.0262979
-0.0130514
0.000724931
0.0147213
0.0286549
0.0423096
0.0555078
0.0681011
0.0799798
0.0910634
0.101291
0.11063
0.119057
0.12656
0.133145
0.138831
0.143625
0.147554
0.150647
0.152935
0.154455
0.155236
0.155317
0.154731
0.153515
0.151701
0.149329
0.146424
0.143026
0.139155
0.134843
0.130121
0.125017
0.11956
0.113769
0.107675
0.101302
0.0946611
0.0877822
0.0806851
0.073394
0.065926
0.0582815
0.0504962
0.0425451
0.0344124
0.02607
0.0172721
0.00837428
0.00283607
1.3867
1.24172
1.20511
1.16249
1.11791
1.07884
1.03927
0.999444
0.958524
0.916058
0.871939
0.825964
0.778139
0.72841
0.676929
0.623773
0.569201
0.513485
0.45698
0.400152
0.343492
0.287598
0.23312
0.180725
0.131146
0.0850303
0.0430515
0.00574772
-0.0264507
-0.0532409
-0.0744956
-0.0902455
-0.100685
-0.106148
-0.107075
-0.104002
-0.0974946
-0.0881367
-0.0765035
-0.0631368
-0.0485385
-0.0331475
-0.0173515
-0.00147932
0.0141936
0.0294458
0.0440913
0.0579972
0.0710563
0.0831996
0.094377
0.104551
0.11372
0.121879
0.129044
0.135237
0.14048
0.144806
0.148252
0.150846
0.152629
0.153642
0.153926
0.153523
0.152463
0.150785
0.148532
0.145731
0.142419
0.138626
0.134385
0.129726
0.124679
0.119273
0.113527
0.107473
0.101135
0.0945325
0.0876867
0.0806226
0.0733587
0.0659189
0.058302
0.0505416
0.0425815
0.0344506
0.0260402
0.0171926
0.00841798
0.00291105
1.37448
1.22965
1.19326
1.15091
1.10653
1.06754
1.02798
0.987942
0.946715
0.903724
0.858852
0.811944
0.762939
0.711838
0.658737
0.603766
0.547192
0.489268
0.430441
0.371156
0.311985
0.2536
0.19666
0.141999
0.0903249
0.0424528
-0.000923695
-0.0392047
-0.0718568
-0.098636
-0.119327
-0.134058
-0.14303
-0.146663
-0.145475
-0.140063
-0.131084
-0.119184
-0.105008
-0.0891441
-0.0721289
-0.0544414
-0.0364861
-0.0186009
-0.00107582
0.0158654
0.0320532
0.0473448
0.0616504
0.074907
0.0870768
0.098141
0.108093
0.116948
0.124727
0.131463
0.137179
0.141919
0.14573
0.148645
0.15071
0.151968
0.152469
0.152252
0.151356
0.149821
0.147693
0.145
0.141787
0.13808
0.133911
0.129318
0.124327
0.118971
0.113271
0.107259
0.100958
0.0943876
0.0875776
0.0805404
0.0733018
0.0658892
0.0582895
0.0505425
0.0426088
0.0344959
0.0260965
0.017245
0.0084386
0.00292412
1.36317
1.21838
1.18209
1.13982
1.09547
1.05647
1.01674
0.976432
0.934774
0.891106
0.845401
0.797416
0.747137
0.694511
0.639678
0.582749
0.523997
0.463739
0.402386
0.340494
0.278632
0.217549
0.158021
0.100878
0.0470132
-0.00275303
-0.0476023
-0.0868653
-0.120004
-0.146675
-0.166755
-0.180335
-0.187705
-0.189349
-0.185854
-0.177927
-0.166286
-0.151671
-0.13478
-0.116261
-0.0966968
-0.076586
-0.0563627
-0.0363789
-0.0169206
0.00178904
0.019573
0.0363123
0.0519203
0.0663389
0.0795418
0.0915223
0.102289
0.111859
0.12027
0.127556
0.133763
0.138937
0.143123
0.146369
0.148728
0.150241
0.150963
0.150943
0.150214
0.148826
0.146824
0.144247
0.141133
0.137511
0.133419
0.128889
0.123959
0.118657
0.113005
0.107034
0.100767
0.0942349
0.0874573
0.08045
0.0732379
0.0658393
0.0582631
0.0505358
0.0426082
0.034508
0.0261492
0.0172874
0.00842113
0.0028944
1.35268
1.20789
1.1716
1.12937
1.08497
1.04581
1.00582
0.96507
0.922815
0.878454
0.831779
0.782647
0.730965
0.67673
0.620033
0.561028
0.499982
0.437217
0.373225
0.308532
0.243845
0.179929
0.117631
0.0579353
0.00173484
-0.0499791
-0.0963477
-0.136619
-0.170177
-0.196722
-0.21606
-0.228383
-0.234004
-0.233501
-0.227558
-0.216958
-0.202525
-0.185064
-0.165347
-0.14407
-0.121857
-0.0992455
-0.0766809
-0.0545318
-0.0330843
-0.0125646
0.00686264
0.0250779
0.0420083
0.0576103
0.0718663
0.0847807
0.0963723
0.106679
0.115737
0.123595
0.1303
0.135909
0.140478
0.144062
0.146715
0.148484
0.149431
0.149602
0.149049
0.147813
0.145945
0.143482
0.140464
0.136932
0.132918
0.128462
0.12359
0.118336
0.112733
0.106806
0.10058
0.0940771
0.0873242
0.0803455
0.0731588
0.0657868
0.058224
0.0505093
0.0425949
0.0344877
0.0260859
0.017248
0.00846754
0.00296173
1.34294
1.19813
1.1618
1.11952
1.07493
1.03557
0.995223
0.953975
0.91106
0.865879
0.818191
0.767796
0.714657
0.658709
0.600087
0.538911
0.475472
0.410131
0.343365
0.275818
0.20816
0.141318
0.0761792
0.0137979
-0.0447707
-0.0984982
-0.146396
-0.187649
-0.221621
-0.247937
-0.266477
-0.277427
-0.281198
-0.278443
-0.269933
-0.256562
-0.23923
-0.218836
-0.196209
-0.172109
-0.147202
-0.122045
-0.0971091
-0.0727664
-0.0493135
-0.0269672
-0.00588717
0.0138198
0.0320841
0.0488762
0.0641889
0.0780411
0.090467
0.101505
0.111208
0.119629
0.126834
0.132885
0.137836
0.141752
0.144696
0.146724
0.147899
0.14827
0.147886
0.146801
0.145063
0.142716
0.139799
0.136354
0.132418
0.128027
0.123216
0.118015
0.112458
0.106572
0.10038
0.0939165
0.0871934
0.0802372
0.0730754
0.0657178
0.0581715
0.0504713
0.0425582
0.0344751
0.0260659
0.0172176
0.00846097
0.00296394
1.33395
1.18909
1.15267
1.11029
1.06552
1.02585
0.985098
0.943297
0.899641
0.853565
0.804792
0.753116
0.69845
0.640763
0.580139
0.516745
0.450856
0.382858
0.313291
0.242773
0.172138
0.102287
0.0342562
-0.0308122
-0.0917961
-0.147512
-0.196925
-0.239127
-0.27343
-0.29947
-0.317109
-0.326614
-0.328444
-0.323353
-0.312213
-0.29601
-0.275744
-0.25239
-0.226841
-0.199909
-0.172302
-0.144605
-0.1173
-0.0907776
-0.0653294
-0.0411732
-0.0184579
0.00271895
0.0223
0.04027
0.0566273
0.0714036
0.0846463
0.0964085
0.106745
0.115728
0.123422
0.129901
0.135231
0.13948
0.14272
0.145002
0.146395
0.146954
0.146741
0.145805
0.144196
0.14196
0.139139
0.135782
0.131924
0.127602
0.122849
0.117699
0.112189
0.106342
0.100188
0.0937508
0.0870549
0.0801286
0.0729865
0.0656537
0.0581216
0.0504389
0.0425408
0.0344602
0.0260626
0.0172161
0.00846894
0.00297325
1.32566
1.18076
1.14423
1.1017
1.05665
1.01666
0.975443
0.933067
0.888659
0.841696
0.791808
0.738805
0.6826
0.623143
0.56053
0.494896
0.426558
0.35591
0.283502
0.210066
0.136398
0.0635775
-0.007347
-0.0750985
-0.138451
-0.196129
-0.246997
-0.290091
-0.32467
-0.350351
-0.367042
-0.375037
-0.374886
-0.367438
-0.353656
-0.334627
-0.311442
-0.285149
-0.256711
-0.226993
-0.196733
-0.166548
-0.136934
-0.10828
-0.080887
-0.054964
-0.0306538
-0.00804197
0.0128199
0.0319292
0.0493044
0.0649787
0.0790154
0.0914742
0.10243
0.111957
0.120126
0.127022
0.132715
0.137281
0.140793
0.14332
0.144932
0.145683
0.145632
0.14484
0.143357
0.14123
0.138507
0.135233
0.131444
0.127185
0.122493
0.117394
0.111924
0.106114
0.0999925
0.0935871
0.0869198
0.0800147
0.0728948
0.0655755
0.0580587
0.0503823
0.0424939
0.0344003
0.026027
0.0172178
0.00847563
0.00298789
1.3181
1.17315
1.13651
1.09379
1.0485
1.00813
0.966445
0.92339
0.878291
0.830426
0.779412
0.725092
0.667369
0.606165
0.541572
0.473745
0.402979
0.329717
0.254545
0.178193
0.101604
0.0258338
-0.0478916
-0.118248
-0.183886
-0.243428
-0.295676
-0.33956
-0.374343
-0.399603
-0.415295
-0.421759
-0.419629
-0.40984
-0.393461
-0.37167
-0.345646
-0.316509
-0.285284
-0.252879
-0.220071
-0.187495
-0.15566
-0.124967
-0.0957108
-0.0680992
-0.0422674
-0.0182884
0.00379453
0.0239906
0.0423303
0.0588608
0.0736466
0.0867752
0.0983195
0.108362
0.116984
0.124272
0.130314
0.13519
0.138971
0.141733
0.143548
0.144473
0.144577
0.14392
0.142556
0.140534
0.137902
0.134707
0.130991
0.126797
0.122154
0.117101
0.111674
0.105899
0.0998127
0.0934356
0.0867931
0.0799124
0.0728066
0.0655097
0.0580053
0.0503524
0.0424768
0.0344033
0.0260298
0.0171964
0.00845749
0.00297092
1.31129
1.16628
1.1295
1.08662
1.04102
1.00032
0.958121
0.914524
0.868637
0.81984
0.76777
0.7122
0.652995
0.590119
0.523629
0.453677
0.380598
0.304825
0.226976
0.147862
0.0684265
-0.0101161
-0.0865504
-0.159361
-0.227162
-0.288452
-0.341946
-0.386544
-0.421437
-0.44624
-0.460911
-0.465864
-0.461809
-0.449769
-0.430906
-0.406484
-0.377765
-0.345934
-0.31207
-0.277132
-0.241921
-0.207094
-0.173177
-0.14057
-0.109568
-0.0803739
-0.0531131
-0.0278555
-0.00463004
0.0165812
0.035823
0.0531535
0.0686521
0.082399
0.094488
0.105011
0.114053
0.121713
0.128081
0.133236
0.137265
0.140244
0.142248
0.143341
0.14359
0.143064
0.141811
0.139886
0.13734
0.134223
0.130571
0.126427
0.121836
0.116826
0.111437
0.105696
0.0996377
0.0932855
0.0866647
0.0798028
0.0727147
0.0654325
0.0579446
0.0503002
0.0424341
0.0343948
0.0260476
0.0172316
0.00843233
0.00291985
1.30526
1.16018
1.12325
1.08021
1.03435
0.993268
0.950618
0.906406
0.859854
0.810237
0.757117
0.70034
0.639765
0.575296
0.50702
0.435083
0.359807
0.281684
0.201338
0.119613
0.0375599
-0.0436177
-0.122518
-0.197623
-0.267394
-0.330256
-0.384874
-0.430042
-0.464997
-0.489289
-0.502965
-0.506465
-0.500589
-0.48643
-0.465248
-0.438381
-0.407167
-0.372855
-0.33657
-0.299306
-0.261894
-0.22501
-0.189186
-0.154828
-0.122229
-0.0915852
-0.063024
-0.0365992
-0.0123271
0.00981551
0.0298783
0.0479397
0.064076
0.0783945
0.0909888
0.101952
0.111382
0.119375
0.126039
0.131457
0.135713
0.138891
0.14107
0.142314
0.142696
0.142282
0.141132
0.139294
0.136827
0.133775
0.130183
0.126093
0.121546
0.116578
0.111223
0.105512
0.0994811
0.0931559
0.0865595
0.0797154
0.0726411
0.065375
0.0578965
0.0502698
0.0424227
0.0343799
0.0260428
0.017188
0.00841308
0.00294457
1.3
1.15489
1.11786
1.0746
1.02848
0.987076
0.944007
0.899306
0.852049
0.801589
0.747582
0.689731
0.627885
0.561983
0.492082
0.41833
0.341089
0.260806
0.178192
0.0941136
0.00964752
-0.0738576
-0.155034
-0.232157
-0.303699
-0.367945
-0.423509
-0.46917
-0.504095
-0.527893
-0.540615
-0.542769
-0.535224
-0.519151
-0.49588
-0.466823
-0.433381
-0.396845
-0.358392
-0.319048
-0.279669
-0.240946
-0.203422
-0.167502
-0.133478
-0.101548
-0.0718225
-0.0443592
-0.0191615
0.00380667
0.0246117
0.0433246
0.0600361
0.0748507
0.087881
0.0992326
0.109005
0.117302
0.124225
0.129871
0.134331
0.137684
0.140015
0.141397
0.141896
0.141588
0.140524
0.138768
0.136371
0.133379
0.129839
0.125793
0.121287
0.116352
0.11103
0.105349
0.0993374
0.0930291
0.0864486
0.0796208
0.0725623
0.065306
0.0578415
0.0502181
0.0423731
0.0343423
0.0259955
0.0171605
0.00841315
0.00295771
1.2956
1.1504
1.11322
1.06989
1.0235
0.981821
0.938351
0.893191
0.845345
0.794206
0.739377
0.680561
0.617615
0.550438
0.479108
0.403772
0.324771
0.242618
0.158016
0.0718734
-0.0146598
-0.100244
-0.183349
-0.26224
-0.335292
-0.400697
-0.457053
-0.50306
-0.537943
-0.56125
-0.573109
-0.57407
-0.565056
-0.547308
-0.522222
-0.491264
-0.455891
-0.417444
-0.377129
-0.336002
-0.294934
-0.254635
-0.215649
-0.17839
-0.143146
-0.110104
-0.0793865
-0.0510309
-0.0250367
-0.00135905
0.0200666
0.0393334
0.0565389
0.0717949
0.085208
0.0968957
0.106964
0.115521
0.122673
0.128515
0.133147
0.136652
0.139117
0.140613
0.141216
0.140995
0.14001
0.138317
0.13598
0.133043
0.129548
0.125542
0.12107
0.116166
0.110866
0.105206
0.0992202
0.0929331
0.0863695
0.0795543
0.0725087
0.0652643
0.0578051
0.0501979
0.0423586
0.0343298
0.0259996
0.0171664
0.00841436
0.00294984
1.29201
1.14679
1.10952
1.06604
1.01947
0.977526
0.933761
0.888191
0.839848
0.788113
0.732614
0.673003
0.609126
0.540901
0.46838
0.391714
0.311281
0.227549
0.141294
0.0534315
-0.034852
-0.122109
-0.206854
-0.287162
-0.361463
-0.427805
-0.484745
-0.531032
-0.565827
-0.588713
-0.59984
-0.599786
-0.58955
-0.570417
-0.543836
-0.511319
-0.474366
-0.434345
-0.392501
-0.349904
-0.30745
-0.265855
-0.225671
-0.187311
-0.151064
-0.117122
-0.0855808
-0.0564912
-0.0298433
-0.00558491
0.0163601
0.0360856
0.0536997
0.0693042
0.083026
0.0949853
0.105295
0.114065
0.1214
0.127404
0.132177
0.135806
0.138378
0.139972
0.140653
0.140502
0.13958
0.137946
0.135654
0.132758
0.129301
0.125327
0.120888
0.116008
0.110733
0.105092
0.0991182
0.0928436
0.0862902
0.0794876
0.072451
0.0652101
0.057762
0.0501531
0.0423218
0.0342753
0.0259476
0.0171532
0.00841823
0.00296473
1.28931
1.14406
1.1067
1.06313
1.01639
0.974282
0.930237
0.884377
0.835652
0.783482
0.727441
0.667205
0.602612
0.533557
0.46011
0.382423
0.300849
0.215914
0.128382
0.039195
-0.0504166
-0.13899
-0.224969
-0.306365
-0.381673
-0.448623
-0.506008
-0.552486
-0.58722
-0.609749
-0.62029
-0.619461
-0.608276
-0.588075
-0.560342
-0.526629
-0.488463
-0.447247
-0.404235
-0.360518
-0.317006
-0.274426
-0.233327
-0.194129
-0.157116
-0.122479
-0.0903193
-0.0606693
-0.0335227
-0.00881878
0.0135187
0.0335929
0.0515148
0.0673949
0.0813556
0.0935276
0.104018
0.112945
0.120424
0.126553
0.131435
0.135158
0.137816
0.139477
0.140225
0.140133
0.139259
0.137664
0.135411
0.132548
0.129118
0.125172
0.120748
0.115888
0.110628
0.105002
0.0990434
0.0927785
0.086239
0.0794461
0.0724191
0.0651892
0.0577441
0.0501444
0.0423083
0.034274
0.0259234
0.0171084
0.00842716
0.0029866
1.2875
1.14222
1.10481
1.06117
1.01432
0.972068
0.927863
0.881776
0.832818
0.780346
0.723937
0.663278
0.598188
0.528592
0.454514
0.37612
0.293794
0.208028
0.119614
0.029525
-0.0610194
-0.150456
-0.237321
-0.319435
-0.395501
-0.462887
-0.520327
-0.566911
-0.601666
-0.623963
-0.634115
-0.632745
-0.620922
-0.599997
-0.571488
-0.536967
-0.497987
-0.45596
-0.412159
-0.367686
-0.32346
-0.28021
-0.238492
-0.198728
-0.161201
-0.126097
-0.093515
-0.0634893
-0.0360018
-0.0110014
0.0116014
0.031912
0.0500396
0.0660999
0.0802244
0.0925352
0.103155
0.112194
0.11977
0.125982
0.130936
0.134726
0.13744
0.139155
0.139942
0.139881
0.139036
0.137472
0.135241
0.132398
0.128991
0.125059
0.120654
0.115808
0.110561
0.104943
0.0989892
0.0927377
0.0862012
0.0794111
0.0723876
0.065159
0.0577232
0.0501226
0.0423042
0.0342823
0.0259801
0.0171819
0.00839078
0.00293032
1.28659
1.14131
1.10387
1.06019
1.0133
0.970966
0.926665
0.880409
0.831409
0.778844
0.722181
0.661295
0.595963
0.526066
0.451665
0.372922
0.290196
0.204019
0.115167
0.0246251
-0.066365
-0.156268
-0.243531
-0.326059
-0.402498
-0.470117
-0.527478
-0.574206
-0.608965
-0.631122
-0.641074
-0.639437
-0.627283
-0.605994
-0.577091
-0.542163
-0.502771
-0.460338
-0.416142
-0.371295
-0.32671
-0.283123
-0.241097
-0.201047
-0.163257
-0.127916
-0.0951238
-0.0649079
-0.0372541
-0.0120981
0.0106436
0.0310733
0.049303
0.0654543
0.0796588
0.0920428
0.10272
0.111813
0.119439
0.125693
0.130685
0.134504
0.137243
0.138979
0.139793
0.139753
0.138927
0.137375
0.135159
0.132329
0.128928
0.125006
0.120605
0.115767
0.110522
0.104912
0.0989686
0.0927144
0.0861832
0.0793962
0.0723779
0.0651579
0.0577201
0.0501246
0.0422996
0.0342722
0.0259538
0.0171254
0.00839082
0.0029548
1.2866
1.14131
1.10386
1.06019
1.0133
0.970961
0.926658
0.88039
0.83142
0.778863
0.722181
0.661306
0.595965
0.52608
0.451679
0.372934
0.290217
0.204031
0.115181
0.0246379
-0.0663583
-0.156253
-0.243526
-0.326047
-0.402482
-0.470105
-0.527456
-0.574194
-0.608945
-0.631105
-0.641054
-0.639416
-0.627265
-0.605976
-0.577075
-0.542148
-0.502755
-0.460321
-0.416126
-0.371278
-0.326693
-0.28311
-0.241084
-0.201037
-0.163249
-0.127913
-0.0951208
-0.064903
-0.0372469
-0.0120951
0.0106403
0.0310655
0.049298
0.0654507
0.0796571
0.0920387
0.102719
0.111814
0.11944
0.125693
0.130685
0.13451
0.13725
0.138986
0.139797
0.139757
0.138927
0.137375
0.135156
0.132323
0.128926
0.125005
0.120609
0.115769
0.110524
0.104914
0.0989661
0.0927141
0.0861804
0.0793937
0.0723731
0.0651471
0.0577181
0.050121
0.0422958
0.034272
0.0259346
0.0171234
0.00840753
0.00296433
1.28751
1.14223
1.10482
1.06118
1.01435
0.972078
0.92787
0.88173
0.832848
0.780421
0.723965
0.663291
0.598208
0.528599
0.454515
0.376135
0.293797
0.208043
0.119629
0.0295563
-0.0609778
-0.150418
-0.237266
-0.319382
-0.395456
-0.46281
-0.520246
-0.566875
-0.601609
-0.6239
-0.63405
-0.632684
-0.620864
-0.599946
-0.57144
-0.536922
-0.497941
-0.455917
-0.41212
-0.367653
-0.323432
-0.280182
-0.238468
-0.198705
-0.161181
-0.12608
-0.0934985
-0.0634734
-0.0359904
-0.0109882
0.0116157
0.0319294
0.0500604
0.0661164
0.0802357
0.092545
0.103159
0.112194
0.11977
0.125983
0.130937
0.134726
0.137436
0.139145
0.139936
0.139876
0.139035
0.137471
0.135243
0.1324
0.128988
0.12506
0.120651
0.115806
0.110556
0.104941
0.098995
0.0927367
0.0862001
0.0794094
0.0723874
0.0651634
0.0577252
0.0501333
0.0423051
0.0342838
0.0259477
0.017112
0.00838761
0.00295787
1.28932
1.14407
1.10672
1.06313
1.01641
0.974276
0.930246
0.884373
0.835669
0.783526
0.727463
0.667235
0.602634
0.53359
0.460145
0.382458
0.3009
0.215958
0.12843
0.0392507
-0.0503658
-0.138917
-0.22491
-0.306288
-0.381594
-0.448524
-0.505908
-0.552402
-0.587117
-0.609653
-0.620188
-0.619362
-0.608179
-0.587983
-0.560255
-0.526547
-0.488389
-0.447177
-0.40417
-0.36046
-0.316951
-0.274375
-0.233282
-0.194088
-0.157079
-0.122447
-0.0902911
-0.0606454
-0.0335022
-0.00880148
0.013533
0.0336036
0.0515236
0.0673985
0.0813569
0.0935245
0.104018
0.112949
0.12043
0.126558
0.131439
0.135167
0.137819
0.139482
0.140234
0.140137
0.139257
0.137665
0.135408
0.132541
0.129117
0.12517
0.120748
0.115888
0.110627
0.105001
0.0990413
0.0927773
0.0862331
0.0794381
0.072416
0.0651827
0.0577454
0.0501432
0.0423196
0.0342975
0.0259745
0.0171549
0.00839909
0.00295679
1.29202
1.14681
1.10953
1.06605
1.01949
0.977542
0.933772
0.88819
0.839886
0.788173
0.732655
0.673036
0.609164
0.540943
0.468415
0.391767
0.311316
0.227607
0.141352
0.0535012
-0.0347621
-0.122027
-0.206744
-0.287069
-0.361341
-0.427689
-0.484615
-0.530895
-0.565685
-0.588571
-0.599698
-0.599651
-0.589421
-0.570295
-0.543717
-0.511209
-0.474261
-0.434252
-0.392419
-0.349827
-0.307379
-0.265787
-0.225609
-0.187254
-0.151013
-0.117079
-0.0855448
-0.0564599
-0.0298168
-0.00556053
0.0163789
0.0361028
0.0537167
0.0693199
0.0830385
0.0949942
0.105301
0.114069
0.121406
0.127411
0.132181
0.135809
0.138381
0.139971
0.140658
0.140503
0.139581
0.137945
0.135652
0.132757
0.129301
0.125329
0.120883
0.116003
0.110728
0.105092
0.0991216
0.0928443
0.0862932
0.079489
0.0724525
0.0652171
0.0577692
0.0501676
0.0423253
0.0343044
0.0259589
0.0171217
0.0084029
0.00296272
1.2956
1.15042
1.11326
1.06989
1.02353
0.981823
0.938377
0.893206
0.845372
0.794256
0.739414
0.680607
0.617659
0.55049
0.479165
0.403829
0.324853
0.242692
0.158099
0.0719708
-0.0145662
-0.100121
-0.183238
-0.262106
-0.335148
-0.400548
-0.456881
-0.502904
-0.537762
-0.561083
-0.572934
-0.5739
-0.564888
-0.54715
-0.522073
-0.491128
-0.455767
-0.417329
-0.377023
-0.335903
-0.294838
-0.254548
-0.215568
-0.178315
-0.143078
-0.110049
-0.0793387
-0.0509895
-0.0250008
-0.00132711
0.0200959
0.0393571
0.0565598
0.0718074
0.0852147
0.0968993
0.106966
0.115523
0.122679
0.128526
0.133157
0.136663
0.139122
0.140618
0.141225
0.141003
0.140011
0.13832
0.135978
0.133035
0.129545
0.12554
0.121068
0.116165
0.110866
0.105206
0.0992182
0.0929257
0.0863609
0.0795491
0.072505
0.0652566
0.0578026
0.0501892
0.0423555
0.0343272
0.0259943
0.0171712
0.008407
0.00294788
1.30002
1.15491
1.11787
1.07463
1.0285
0.987102
0.944034
0.89933
0.852085
0.801649
0.747634
0.689778
0.627943
0.562052
0.492148
0.418413
0.341161
0.260894
0.17829
0.0942126
0.00978592
-0.07374
-0.154872
-0.232017
-0.303524
-0.367776
-0.423322
-0.468972
-0.503898
-0.527691
-0.540418
-0.542571
-0.535032
-0.518965
-0.495703
-0.466659
-0.433226
-0.396701
-0.358262
-0.318925
-0.279556
-0.240841
-0.203326
-0.167415
-0.133402
-0.101481
-0.0717663
-0.0443133
-0.0191232
0.00383782
0.0246279
0.0433362
0.0600488
0.0748652
0.087893
0.0992422
0.109016
0.117314
0.124241
0.129885
0.13434
0.137692
0.140024
0.141402
0.141904
0.14159
0.14053
0.138773
0.136369
0.133378
0.12984
0.125796
0.121286
0.116351
0.111026
0.10535
0.0993425
0.093032
0.08645
0.0796224
0.0725623
0.0653091
0.0578449
0.0502249
0.0423676
0.0343311
0.0259552
0.0171172
0.00842882
0.00297373
1.30528
1.16021
1.12329
1.08023
1.03436
0.993284
0.950648
0.906466
0.859907
0.810248
0.757158
0.700404
0.639828
0.575371
0.507107
0.435169
0.359917
0.281789
0.201455
0.119754
0.037696
-0.0434504
-0.122359
-0.197443
-0.267201
-0.330062
-0.384655
-0.429836
-0.464767
-0.48907
-0.502738
-0.506238
-0.500364
-0.486217
-0.465048
-0.438196
-0.406998
-0.372699
-0.336424
-0.299172
-0.261767
-0.224895
-0.189081
-0.154733
-0.12214
-0.0915048
-0.0629531
-0.0365398
-0.0122782
0.00985934
0.029918
0.0479721
0.0641096
0.0784191
0.0909993
0.101958
0.111384
0.119383
0.126049
0.131465
0.135721
0.138899
0.141074
0.142318
0.142705
0.142292
0.141138
0.139303
0.136831
0.133776
0.130183
0.126092
0.121542
0.116574
0.111223
0.105512
0.0994789
0.0931483
0.0865498
0.0797066
0.0726339
0.0653651
0.0578889
0.0502579
0.0423934
0.0343449
0.0259535
0.0171185
0.00844396
0.00299063
1.31134
1.16631
1.1295
1.08667
1.04106
1.00034
0.958161
0.914443
0.868691
0.82
0.76785
0.712267
0.653077
0.590204
0.523717
0.453778
0.380707
0.304934
0.227112
0.147984
0.0685998
-0.00996982
-0.0863527
-0.159181
-0.226948
-0.288236
-0.341715
-0.386299
-0.421198
-0.44599
-0.460668
-0.46562
-0.461576
-0.449537
-0.430685
-0.406277
-0.377568
-0.345748
-0.311901
-0.276976
-0.24178
-0.206965
-0.173061
-0.140463
-0.109472
-0.0802849
-0.0530368
-0.0277949
-0.00457486
0.0166287
0.0358588
0.0531818
0.0686729
0.0824156
0.0944995
0.105022
0.114068
0.121728
0.128094
0.133247
0.137275
0.140252
0.142256
0.143347
0.1436
0.143072
0.141819
0.139892
0.137344
0.134226
0.130574
0.12643
0.121834
0.116825
0.111434
0.105699
0.0996379
0.0932849
0.0866629
0.0798023
0.0727131
0.0654316
0.0579457
0.0503018
0.0424341
0.0343787
0.0260296
0.0172024
0.00843609
0.00295612
1.31813
1.17319
1.13654
1.09383
1.04853
1.00818
0.966477
0.923489
0.878329
0.830483
0.779464
0.72517
0.667445
0.606252
0.541677
0.473851
0.403107
0.329856
0.254686
0.178361
0.101773
0.0260237
-0.0476893
-0.118041
-0.183655
-0.243201
-0.295422
-0.339311
-0.37408
-0.39934
-0.415032
-0.421495
-0.419375
-0.409596
-0.393231
-0.371451
-0.34544
-0.316318
-0.285105
-0.252716
-0.219916
-0.187356
-0.155537
-0.124858
-0.0956087
-0.0680051
-0.0421832
-0.018216
0.00385929
0.0240468
0.0423747
0.0589006
0.0736826
0.0867999
0.0983357
0.108376
0.116995
0.124284
0.130325
0.135198
0.138979
0.14174
0.143558
0.144483
0.144586
0.143934
0.142568
0.140544
0.137911
0.134713
0.130993
0.126795
0.122152
0.1171
0.11167
0.105895
0.0998057
0.0934273
0.0867858
0.0799033
0.072797
0.065499
0.0579945
0.0503369
0.0424595
0.034385
0.0260226
0.0171655
0.00843718
0.00298022
1.32571
1.18079
1.14424
1.10176
1.05671
1.01671
0.975496
0.933123
0.888721
0.841745
0.791871
0.738884
0.682686
0.623243
0.560638
0.495017
0.426691
0.356035
0.283672
0.210209
0.136599
0.0637509
-0.00713132
-0.0748849
-0.138213
-0.195884
-0.246739
-0.28982
-0.324399
-0.350071
-0.366768
-0.374759
-0.374626
-0.367175
-0.353407
-0.33439
-0.311219
-0.284942
-0.256522
-0.22682
-0.196576
-0.166405
-0.136808
-0.108163
-0.0807776
-0.0548609
-0.0305601
-0.00796461
0.0128913
0.0319886
0.0493491
0.0650164
0.0790441
0.0914993
0.102451
0.111973
0.120146
0.127038
0.132728
0.137292
0.140805
0.143331