/*--------------------------------*- C++ -*----------------------------------*\
  =========                 |
  \\      /  F ield         | OpenFOAM: The Open Source CFD Toolbox
   \\    /   O peration     | Website:  https://openfoam.org
    \\  /    A nd           | Version:  11
     \\/     M anipulation  |
\*---------------------------------------------------------------------------*/
FoamFile
{
    format      ascii;
    class       volScalarField;
    location    "0.058";
    object      k;
}
// * * * * * * * * * * * * * * * * * * * * * * * * * * * * * * * * * * * * * //

dimensions      [0 2 -2 0 0 0 0];

internalField   nonuniform List<scalar> 
287084
(
0.381322
0.395608
0.40823
0.416575
0.420659
0.421774
0.421829
0.421785
0.421652
0.421752
0.421944
0.421863
0.421915
0.421944
0.421909
0.421865
0.421739
0.421721
0.421691
0.421817
0.422053
0.421917
0.421987
0.422033
0.422009
0.422006
0.421852
0.42193
0.422067
0.422055
0.422058
0.422033
0.422008
0.421817
0.421694
0.421663
0.421647
0.421675
0.421681
0.421673
0.421509
0.421521
0.421541
0.421464
0.421458
0.421417
0.421279
0.421325
0.421522
0.421358
0.421425
0.421603
0.421577
0.421539
0.42141
0.421302
0.421365
0.421414
0.42132
0.421415
0.42146
0.421343
0.421278
0.42145
0.42165
0.421644
0.421638
0.421447
0.421502
0.421625
0.421598
0.421563
0.42143
0.421466
0.421474
0.421569
0.421619
0.421596
0.421534
0.42154
0.421665
0.421599
0.421674
0.421709
0.421676
0.421645
0.421401
0.42143
0.421519
0.421337
0.381378
0.395513
0.408027
0.416466
0.420634
0.421829
0.421883
0.421757
0.421842
0.42206
0.422047
0.422004
0.42189
0.421871
0.421857
0.421718
0.421756
0.421869
0.421849
0.421777
0.421782
0.422056
0.422203
0.422194
0.422193
0.422139
0.422021
0.421983
0.421865
0.421925
0.42205
0.421963
0.421974
0.421979
0.421923
0.421887
0.421856
0.421651
0.421635
0.421879
0.421909
0.421853
0.421683
0.421633
0.421777
0.421865
0.42184
0.421856
0.421818
0.421785
0.421744
0.421504
0.421532
0.421585
0.421506
0.421505
0.421501
0.421366
0.421368
0.421537
0.42146
0.421575
0.421667
0.421644
0.421646
0.421518
0.421614
0.421744
0.421702
0.421545
0.421571
0.421803
0.421819
0.421828
0.421791
0.421739
0.421527
0.421574
0.421735
0.421638
0.421639
0.421635
0.421497
0.421494
0.421679
0.421711
0.421683
0.421699
0.421631
0.421368
0.38138
0.395499
0.408023
0.416435
0.420539
0.421961
0.422122
0.422082
0.421935
0.421959
0.422094
0.422013
0.422039
0.421998
0.421896
0.421869
0.422024
0.422133
0.422087
0.421984
0.421896
0.421946
0.421961
0.422124
0.422252
0.422232
0.422228
0.422127
0.422108
0.422082
0.422047
0.421999
0.421936
0.421886
0.421851
0.421759
0.42174
0.421802
0.421783
0.421871
0.421893
0.421777
0.421821
0.421833
0.4218
0.421795
0.421688
0.421773
0.42185
0.421817
0.421784
0.421687
0.421618
0.421456
0.421408
0.42155
0.421583
0.421454
0.421485
0.421621
0.421599
0.421639
0.4216
0.421438
0.421424
0.421654
0.421777
0.421764
0.421764
0.421684
0.421657
0.421622
0.421504
0.421443
0.421514
0.421547
0.421494
0.421497
0.421513
0.421523
0.421406
0.421489
0.421717
0.421606
0.421535
0.421508
0.421472
0.421441
0.421438
0.421335
0.381355
0.39554
0.408005
0.416339
0.420559
0.422041
0.422222
0.422182
0.422028
0.42204
0.422189
0.422196
0.422188
0.421958
0.421932
0.422135
0.422206
0.422183
0.422202
0.422159
0.422113
0.42203
0.422003
0.421933
0.421958
0.421975
0.421947
0.421875
0.421861
0.422112
0.422203
0.422174
0.422137
0.422037
0.422034
0.422041
0.421991
0.421925
0.421729
0.421798
0.421863
0.421819
0.421685
0.421734
0.421859
0.421824
0.421786
0.421743
0.421732
0.421564
0.421607
0.421637
0.421617
0.421613
0.421506
0.421487
0.421383
0.421356
0.421611
0.421739
0.421705
0.421648
0.421507
0.421516
0.421489
0.42163
0.421769
0.421581
0.421672
0.421804
0.421663
0.421578
0.421609
0.421638
0.421538
0.4216
0.421712
0.421803
0.421861
0.421841
0.421836
0.421611
0.421643
0.42175
0.421758
0.421757
0.421559
0.421596
0.421623
0.421447
0.381354
0.395547
0.407979
0.416336
0.420621
0.421816
0.421782
0.421879
0.422092
0.42192
0.421881
0.422044
0.422093
0.422047
0.421885
0.42193
0.422026
0.421895
0.421881
0.421881
0.421866
0.421826
0.421908
0.42194
0.422012
0.422027
0.422
0.422013
0.42199
0.42196
0.42193
0.42188
0.421849
0.421822
0.421821
0.421761
0.421817
0.422081
0.422133
0.422093
0.422037
0.421868
0.421811
0.421801
0.421806
0.421795
0.421697
0.421645
0.421559
0.421475
0.421492
0.421519
0.421527
0.421504
0.421478
0.421426
0.421421
0.421409
0.421501
0.421529
0.421509
0.421518
0.421478
0.421358
0.421347
0.421449
0.421428
0.421498
0.421515
0.421492
0.421441
0.421586
0.421804
0.421805
0.421802
0.421688
0.421669
0.421551
0.421546
0.421546
0.421532
0.42156
0.421521
0.421391
0.421469
0.42169
0.421562
0.421518
0.421547
0.421433
0.381344
0.39553
0.408024
0.416409
0.420424
0.421397
0.421406
0.421603
0.421989
0.422001
0.421966
0.421923
0.421872
0.421668
0.421669
0.421883
0.421851
0.421885
0.421894
0.421914
0.421919
0.421886
0.421812
0.421902
0.42198
0.421809
0.421882
0.422062
0.422075
0.422076
0.421933
0.42192
0.421906
0.421926
0.421835
0.421895
0.421935
0.421891
0.421922
0.421884
0.421842
0.42176
0.421669
0.421589
0.42156
0.4215
0.421538
0.421595
0.421645
0.421647
0.421608
0.421501
0.421546
0.421748
0.421734
0.421735
0.421712
0.421587
0.421608
0.421676
0.421651
0.421637
0.421512
0.421482
0.421431
0.421557
0.421771
0.421751
0.421747
0.421651
0.421572
0.421568
0.421494
0.421589
0.421779
0.421703
0.421691
0.421669
0.421633
0.421562
0.421523
0.421424
0.421507
0.421729
0.421686
0.421683
0.421606
0.421608
0.421604
0.421471
0.381316
0.395552
0.408026
0.4164
0.420458
0.421507
0.421801
0.421847
0.421846
0.421844
0.421629
0.421672
0.422193
0.422323
0.422202
0.422304
0.422461
0.422456
0.422456
0.42234
0.422362
0.42232
0.422166
0.422184
0.422349
0.422354
0.422337
0.422127
0.422164
0.422213
0.421965
0.421964
0.422089
0.42207
0.422092
0.422055
0.421999
0.421806
0.421888
0.422037
0.422023
0.422012
0.42181
0.421862
0.42192
0.421871
0.421713
0.421738
0.421801
0.42178
0.421776
0.421625
0.421653
0.421661
0.42162
0.42158
0.421643
0.421747
0.421677
0.421676
0.421671
0.421614
0.421443
0.421522
0.421677
0.421558
0.421545
0.421542
0.421489
0.421404
0.421503
0.421572
0.421447
0.421419
0.421597
0.421741
0.421726
0.421736
0.421674
0.421456
0.421488
0.421688
0.421603
0.421531
0.421505
0.421463
0.421604
0.42175
0.421707
0.421542
0.381339
0.395555
0.408033
0.416193
0.420534
0.422268
0.422519
0.422639
0.422681
0.422666
0.422627
0.422642
0.422655
0.422642
0.422641
0.422604
0.422498
0.422515
0.422566
0.422433
0.422473
0.422513
0.422493
0.422494
0.422415
0.422343
0.422373
0.422419
0.422389
0.422353
0.422302
0.42226
0.422189
0.421961
0.421981
0.422041
0.421874
0.421834
0.422061
0.42216
0.422118
0.422049
0.421914
0.421983
0.422066
0.422013
0.422021
0.421994
0.421788
0.421808
0.421962
0.421812
0.421907
0.421998
0.421908
0.421931
0.421886
0.421893
0.421898
0.421863
0.42182
0.421789
0.421601
0.421604
0.421609
0.421421
0.421405
0.421596
0.421686
0.421667
0.421678
0.421678
0.421641
0.421605
0.421514
0.421644
0.42179
0.421782
0.42178
0.421678
0.421655
0.421501
0.421576
0.421785
0.42178
0.421764
0.421554
0.421608
0.421674
0.421453
0.38133
0.39554
0.408035
0.416361
0.420439
0.421776
0.421884
0.421861
0.421855
0.421674
0.421696
0.42209
0.422214
0.422313
0.42231
0.422292
0.422249
0.42227
0.422509
0.422529
0.422534
0.422527
0.422525
0.422381
0.422437
0.422476
0.422464
0.422463
0.42242
0.422384
0.422219
0.422123
0.422076
0.421942
0.421988
0.422044
0.421909
0.421843
0.421854
0.421822
0.421959
0.422071
0.421864
0.421934
0.422072
0.422023
0.422021
0.421998
0.421995
0.42194
0.421839
0.42158
0.421518
0.421492
0.421439
0.421402
0.421544
0.421679
0.421659
0.421644
0.421468
0.421564
0.421671
0.421657
0.421653
0.421513
0.421505
0.421421
0.421507
0.421796
0.421801
0.421782
0.421587
0.421531
0.421592
0.421513
0.421624
0.421895
0.421873
0.421836
0.421763
0.421726
0.421686
0.42156
0.421648
0.42174
0.421652
0.421675
0.421628
0.421436
0.381332
0.395477
0.408156
0.416301
0.420405
0.421673
0.421748
0.421731
0.421681
0.421835
0.422039
0.422028
0.422015
0.421836
0.421957
0.422135
0.422072
0.422075
0.422061
0.42196
0.421871
0.421997
0.422065
0.422006
0.421982
0.421986
0.421906
0.421953
0.422163
0.422162
0.422124
0.422104
0.422094
0.421933
0.422002
0.42206
0.422029
0.422029
0.421984
0.421934
0.421886
0.421842
0.42178
0.421671
0.421448
0.421466
0.421569
0.421566
0.421563
0.421375
0.421404
0.42153
0.421509
0.421472
0.421294
0.421363
0.421428
0.421254
0.421284
0.421604
0.421646
0.421592
0.421401
0.421395
0.421498
0.421332
0.421366
0.421545
0.421521
0.421538
0.421507
0.421474
0.421354
0.42144
0.421534
0.421359
0.421388
0.421654
0.421674
0.421634
0.421532
0.421459
0.421628
0.421781
0.421784
0.421783
0.421569
0.42155
0.421599
0.42144
0.381345
0.395514
0.40804
0.416336
0.420526
0.421769
0.421834
0.421791
0.421746
0.421847
0.421924
0.421798
0.42179
0.421976
0.422025
0.421912
0.422039
0.422269
0.422164
0.422266
0.422318
0.422273
0.422267
0.422132
0.422199
0.422236
0.422042
0.422112
0.422148
0.422118
0.422037
0.422067
0.422226
0.4222
0.42216
0.422082
0.422084
0.422094
0.422095
0.422016
0.421946
0.421806
0.421534
0.421548
0.421591
0.421434
0.421537
0.421743
0.421703
0.421702
0.421677
0.421714
0.421679
0.421631
0.421493
0.421521
0.421539
0.421362
0.421351
0.421558
0.421632
0.42158
0.421387
0.421407
0.42158
0.421588
0.421574
0.421361
0.421393
0.421551
0.421544
0.421538
0.421505
0.421588
0.421594
0.421557
0.421538
0.421475
0.421583
0.421785
0.421574
0.421598
0.421747
0.421758
0.421758
0.421592
0.421635
0.421672
0.421621
0.421459
0.381322
0.395557
0.408006
0.416357
0.42049
0.42182
0.422026
0.422019
0.422018
0.421945
0.421893
0.422057
0.422201
0.422313
0.422464
0.422361
0.42239
0.42235
0.422213
0.422291
0.422453
0.422228
0.422225
0.422365
0.422321
0.422407
0.422459
0.422437
0.422433
0.422402
0.4224
0.422349
0.422259
0.422186
0.422138
0.42208
0.42202
0.421899
0.421738
0.421633
0.421549
0.421532
0.421543
0.42148
0.421568
0.42161
0.421577
0.421485
0.421527
0.42171
0.421593
0.421674
0.421778
0.421775
0.421769
0.421595
0.421461
0.421495
0.421521
0.421368
0.421374
0.42152
0.421434
0.42154
0.421724
0.421712
0.421694
0.421473
0.421507
0.42175
0.421755
0.421713
0.421504
0.421539
0.42164
0.421646
0.421646
0.421418
0.421453
0.421653
0.421662
0.421662
0.421541
0.421632
0.421728
0.421682
0.421585
0.421487
0.421513
0.421402
0.381341
0.395551
0.408044
0.416159
0.420586
0.422204
0.422408
0.422379
0.422269
0.422378
0.422511
0.422301
0.422364
0.422512
0.422325
0.422414
0.422546
0.422529
0.422527
0.422353
0.422454
0.422583
0.422355
0.422387
0.422564
0.422569
0.422534
0.422521
0.422507
0.422442
0.422237
0.42217
0.422142
0.422145
0.422078
0.422107
0.422172
0.422149
0.422136
0.421899
0.421928
0.421974
0.421935
0.421888
0.42175
0.421837
0.421937
0.421923
0.421924
0.421895
0.421869
0.421835
0.42177
0.421558
0.421568
0.421669
0.421688
0.42169
0.421474
0.421553
0.421731
0.421732
0.42173
0.421609
0.421581
0.421462
0.421429
0.421577
0.421649
0.421638
0.421655
0.421646
0.421606
0.421581
0.421513
0.421643
0.421784
0.421762
0.42175
0.421579
0.421654
0.421728
0.421707
0.421702
0.421525
0.421515
0.42162
0.421636
0.421626
0.421464
0.381334
0.395502
0.408061
0.416431
0.420399
0.421472
0.421673
0.42174
0.421623
0.421721
0.421773
0.421694
0.421736
0.421749
0.421648
0.421745
0.422
0.421875
0.421982
0.422073
0.421893
0.421914
0.422139
0.42209
0.422216
0.422419
0.422262
0.422329
0.422352
0.422302
0.422157
0.422169
0.422182
0.422077
0.421994
0.422066
0.422118
0.421986
0.422009
0.422056
0.422044
0.422038
0.422005
0.421969
0.421931
0.421919
0.421841
0.421891
0.421912
0.421881
0.421852
0.42158
0.421563
0.42164
0.42167
0.421673
0.42145
0.421473
0.421656
0.421668
0.421653
0.421449
0.42142
0.421559
0.42158
0.421547
0.421467
0.421548
0.421688
0.421676
0.421705
0.421674
0.421616
0.421472
0.42142
0.421564
0.421514
0.421615
0.421823
0.421659
0.421751
0.421842
0.421841
0.42184
0.421672
0.421621
0.421791
0.421881
0.421826
0.421619
0.38134
0.395554
0.408032
0.416193
0.420513
0.422302
0.422579
0.422559
0.422467
0.422532
0.422643
0.42246
0.422537
0.422606
0.422502
0.422515
0.422506
0.422362
0.422417
0.422546
0.422437
0.422472
0.422483
0.422517
0.422543
0.422523
0.422478
0.422482
0.422454
0.422414
0.422376
0.422372
0.422347
0.422289
0.422214
0.422156
0.422093
0.421969
0.42179
0.42172
0.421667
0.421512
0.421567
0.421743
0.421754
0.421754
0.421664
0.421643
0.421466
0.421533
0.421656
0.421457
0.421502
0.421713
0.421723
0.421722
0.42165
0.421528
0.421493
0.421436
0.421537
0.421809
0.421785
0.421783
0.421671
0.421757
0.421801
0.421793
0.421791
0.421565
0.421602
0.421644
0.421625
0.421622
0.421477
0.421638
0.421782
0.42175
0.4217
0.421558
0.421664
0.421776
0.421714
0.421736
0.421689
0.421508
0.421459
0.42157
0.421594
0.421462
0.381373
0.395545
0.407942
0.416356
0.420525
0.421692
0.422031
0.42207
0.42184
0.421856
0.421997
0.422024
0.422029
0.42187
0.421958
0.422146
0.422133
0.422124
0.422005
0.422058
0.422102
0.421999
0.422064
0.422238
0.422184
0.422127
0.422212
0.422271
0.422096
0.422142
0.422243
0.422025
0.422058
0.422176
0.422157
0.422151
0.422071
0.422075
0.422037
0.421993
0.421938
0.421936
0.421903
0.421874
0.42183
0.421728
0.421391
0.421365
0.42155
0.421449
0.421549
0.421621
0.421589
0.421493
0.421468
0.421721
0.421713
0.421788
0.42212
0.42214
0.422087
0.421905
0.421921
0.421998
0.421999
0.421992
0.421998
0.422003
0.421955
0.421945
0.421838
0.421617
0.421655
0.421782
0.421742
0.421658
0.421569
0.421596
0.421603
0.42149
0.421541
0.42175
0.421808
0.421771
0.421606
0.421577
0.421627
0.42164
0.421604
0.421444
0.381347
0.395568
0.408017
0.416185
0.420435
0.422328
0.422759
0.422728
0.422727
0.422732
0.422677
0.422724
0.422747
0.422694
0.422561
0.422506
0.422505
0.422333
0.422386
0.422537
0.422393
0.422328
0.422337
0.42232
0.422443
0.422508
0.422498
0.422494
0.42237
0.422351
0.422282
0.422273
0.422224
0.422105
0.422089
0.422046
0.422027
0.421987
0.421938
0.421895
0.421802
0.421573
0.421462
0.421563
0.421594
0.421539
0.421346
0.421342
0.42147
0.421334
0.421429
0.421577
0.421502
0.421389
0.421457
0.421676
0.421804
0.421882
0.42167
0.421718
0.421879
0.42168
0.421739
0.421864
0.421717
0.421702
0.421701
0.421664
0.421627
0.421581
0.421443
0.421526
0.42172
0.421709
0.42166
0.421562
0.421462
0.421596
0.421737
0.421709
0.421706
0.421695
0.421688
0.421474
0.421504
0.421677
0.421501
0.421533
0.421688
0.421491
0.38134
0.395556
0.408024
0.416223
0.42043
0.422412
0.422741
0.422749
0.422729
0.422734
0.422751
0.422726
0.422722
0.422532
0.422592
0.422642
0.422437
0.422515
0.42263
0.422405
0.422452
0.422612
0.422556
0.422526
0.42258
0.422614
0.422593
0.422588
0.422476
0.422441
0.422396
0.42233
0.422273
0.422221
0.422187
0.422146
0.422075
0.421928
0.421779
0.421694
0.421632
0.421498
0.42145
0.421485
0.42146
0.421464
0.421382
0.42148
0.421636
0.421619
0.421612
0.421513
0.421407
0.421473
0.421522
0.421623
0.421852
0.421719
0.421819
0.421904
0.421807
0.421864
0.421888
0.421834
0.421674
0.42162
0.421664
0.421672
0.421599
0.42164
0.421858
0.421868
0.421834
0.421829
0.421762
0.421649
0.42168
0.421757
0.421725
0.421684
0.421631
0.421519
0.421652
0.421749
0.421727
0.421715
0.421529
0.421578
0.421638
0.421453
0.381346
0.395567
0.408023
0.416162
0.420501
0.422253
0.422506
0.422647
0.422678
0.422497
0.422573
0.422617
0.422577
0.422451
0.42249
0.422574
0.422335
0.42237
0.422516
0.422414
0.422352
0.422336
0.422317
0.422428
0.422471
0.42242
0.422444
0.422392
0.422376
0.422369
0.422375
0.42229
0.422002
0.421963
0.422052
0.42193
0.421999
0.422078
0.422065
0.422058
0.421948
0.421886
0.421822
0.421723
0.421618
0.421512
0.421446
0.421252
0.421221
0.421491
0.421551
0.421531
0.421524
0.421355
0.421415
0.421706
0.421897
0.421923
0.421754
0.421851
0.421934
0.421821
0.421888
0.421923
0.421872
0.421704
0.421711
0.421801
0.421766
0.421686
0.421723
0.42178
0.421626
0.42171
0.42176
0.421714
0.421568
0.421574
0.421713
0.421756
0.421717
0.42163
0.421609
0.421399
0.421419
0.421587
0.421573
0.421574
0.421521
0.421355
0.381333
0.395616
0.407921
0.416282
0.420538
0.422065
0.422226
0.42219
0.422056
0.422045
0.422182
0.422196
0.422162
0.422002
0.422085
0.422237
0.422099
0.422192
0.422254
0.422235
0.422182
0.422206
0.422465
0.422423
0.422521
0.422566
0.422539
0.422533
0.422442
0.422405
0.422367
0.422313
0.422263
0.422211
0.422152
0.422097
0.422012
0.42195
0.421891
0.421788
0.421673
0.421605
0.42146
0.421398
0.421411
0.421377
0.421413
0.421419
0.421382
0.421272
0.421294
0.421906
0.422213
0.422202
0.422149
0.422199
0.422299
0.422311
0.422271
0.422012
0.422038
0.422123
0.422
0.421995
0.422022
0.422029
0.421992
0.421886
0.42195
0.42202
0.422006
0.422004
0.421938
0.42192
0.421737
0.421773
0.421807
0.421677
0.421672
0.421663
0.421529
0.421501
0.421549
0.42152
0.421528
0.421526
0.4215
0.421496
0.421453
0.42132
0.381348
0.395525
0.408022
0.41636
0.420484
0.421602
0.42166
0.421601
0.421662
0.421809
0.421818
0.421819
0.421703
0.421638
0.421862
0.422051
0.422033
0.42201
0.421933
0.422142
0.422609
0.422651
0.422628
0.422648
0.422606
0.422518
0.422362
0.422347
0.42239
0.422376
0.422371
0.422288
0.422191
0.422125
0.422026
0.42187
0.421922
0.421974
0.421936
0.421903
0.421736
0.421679
0.421653
0.421629
0.421453
0.421483
0.421573
0.421575
0.421576
0.42152
0.42152
0.421466
0.421342
0.421291
0.421359
0.421326
0.421376
0.421418
0.42139
0.421372
0.421379
0.421357
0.42131
0.421293
0.421215
0.421329
0.421475
0.421337
0.421283
0.421468
0.4217
0.421676
0.421707
0.421718
0.421727
0.421681
0.42155
0.421662
0.421812
0.421734
0.421742
0.421726
0.421619
0.421512
0.421552
0.421572
0.42144
0.421506
0.421605
0.421409
0.381341
0.39555
0.408048
0.416148
0.420607
0.422211
0.422378
0.422365
0.422316
0.422286
0.422236
0.42236
0.422505
0.422493
0.4225
0.422424
0.422415
0.42237
0.42234
0.422289
0.42243
0.422639
0.422616
0.422629
0.422618
0.4226
0.422578
0.422568
0.422423
0.422403
0.422326
0.422071
0.42211
0.422158
0.422145
0.422132
0.421949
0.421911
0.42186
0.421774
0.421718
0.421673
0.42162
0.421582
0.421514
0.421337
0.421265
0.421393
0.421508
0.421467
0.421374
0.421303
0.421581
0.422124
0.422104
0.422104
0.422051
0.422169
0.422282
0.422214
0.422245
0.422206
0.422076
0.422143
0.422187
0.421929
0.421942
0.422029
0.421827
0.421881
0.422039
0.421873
0.421949
0.422095
0.422083
0.422111
0.422093
0.422069
0.422077
0.42208
0.422024
0.421948
0.421638
0.421648
0.421741
0.421711
0.421659
0.421529
0.421494
0.421366
0.38134
0.395555
0.40803
0.416204
0.420488
0.422356
0.422616
0.422464
0.422565
0.422674
0.422546
0.422549
0.422547
0.422553
0.422427
0.422509
0.422632
0.422405
0.422445
0.422608
0.422607
0.422585
0.422587
0.422786
0.422816
0.422755
0.422761
0.422715
0.422619
0.422589
0.422532
0.422414
0.422323
0.422263
0.422175
0.421956
0.421901
0.42187
0.421674
0.421724
0.421884
0.421887
0.421872
0.421597
0.42157
0.421641
0.421528
0.421627
0.421698
0.421671
0.421655
0.421472
0.421621
0.422133
0.422074
0.422207
0.42234
0.422279
0.422272
0.422223
0.422217
0.422119
0.422208
0.422265
0.422021
0.422059
0.42215
0.421938
0.422006
0.422145
0.42209
0.42211
0.422121
0.422091
0.422124
0.422135
0.422081
0.422074
0.421945
0.421971
0.421978
0.421945
0.421919
0.421882
0.421843
0.421608
0.421608
0.421727
0.421706
0.421547
0.381351
0.395496
0.408056
0.416403
0.420358
0.421778
0.421895
0.421877
0.421892
0.421792
0.4218
0.421808
0.421674
0.421691
0.422101
0.422209
0.422177
0.422458
0.422716
0.422714
0.422724
0.422649
0.422637
0.422574
0.422555
0.422554
0.422464
0.422504
0.422525
0.422458
0.422455
0.422457
0.422452
0.422379
0.422216
0.422144
0.422049
0.42185
0.421624
0.421689
0.421789
0.421687
0.421725
0.421733
0.421695
0.421698
0.421652
0.421489
0.421528
0.421619
0.421372
0.421382
0.421478
0.421469
0.421468
0.421339
0.421461
0.421588
0.421522
0.421516
0.421516
0.421432
0.421464
0.421795
0.421855
0.421803
0.421692
0.421605
0.421648
0.421623
0.421729
0.421772
0.421738
0.421642
0.421679
0.421744
0.421541
0.421584
0.421761
0.421696
0.421661
0.42161
0.421497
0.421457
0.421655
0.421751
0.421715
0.421712
0.421651
0.421427
0.381331
0.395586
0.407967
0.416264
0.420595
0.422016
0.422355
0.422327
0.422153
0.422175
0.422327
0.422312
0.422312
0.422269
0.422257
0.422224
0.422212
0.422189
0.422242
0.422299
0.422268
0.422171
0.422282
0.422491
0.422289
0.422338
0.422512
0.422518
0.422532
0.422484
0.422388
0.422074
0.422078
0.422109
0.42209
0.422084
0.422001
0.421987
0.421926
0.421824
0.421637
0.421568
0.421504
0.421371
0.421255
0.421302
0.421377
0.421349
0.421341
0.421187
0.421284
0.421499
0.421527
0.421488
0.421254
0.421301
0.42142
0.421234
0.421301
0.421512
0.42144
0.421465
0.421525
0.421521
0.42153
0.421524
0.421489
0.421451
0.421272
0.421368
0.421578
0.421559
0.421484
0.421528
0.421585
0.421379
0.421461
0.421589
0.421567
0.421544
0.421453
0.421613
0.421745
0.421734
0.421737
0.421698
0.421643
0.421545
0.421482
0.421292
0.38134
0.395553
0.40804
0.41617
0.420574
0.422227
0.422408
0.422394
0.422336
0.422451
0.422576
0.422404
0.4225
0.422616
0.422588
0.422571
0.422581
0.422595
0.422469
0.422437
0.42246
0.422426
0.422574
0.422701
0.422698
0.422698
0.422662
0.422649
0.422533
0.422496
0.422406
0.422308
0.422243
0.422179
0.422067
0.421817
0.421817
0.421836
0.421799
0.421809
0.421775
0.421703
0.421662
0.42162
0.42156
0.421477
0.421255
0.4212
0.421382
0.421466
0.421434
0.421333
0.421335
0.421419
0.421428
0.421428
0.421356
0.421257
0.421373
0.421452
0.421331
0.421301
0.421505
0.421667
0.421614
0.421649
0.421613
0.421559
0.421384
0.421408
0.421479
0.42131
0.421352
0.421677
0.42172
0.421699
0.421697
0.421667
0.421644
0.421601
0.421537
0.42133
0.421313
0.421596
0.421649
0.421603
0.421436
0.421497
0.421646
0.421435
0.38134
0.395556
0.408025
0.416225
0.420432
0.422415
0.422744
0.422738
0.422734
0.422552
0.422627
0.422693
0.422539
0.422623
0.422676
0.422482
0.422562
0.422685
0.42246
0.422496
0.422663
0.422558
0.422516
0.422658
0.422779
0.422732
0.422737
0.422731
0.422739
0.422691
0.422652
0.422644
0.422613
0.422535
0.422293
0.422013
0.42193
0.421926
0.421941
0.42194
0.421861
0.421791
0.421732
0.421692
0.421646
0.421507
0.421537
0.421564
0.421545
0.42154
0.421342
0.421343
0.421918
0.422298
0.422159
0.422258
0.42235
0.422293
0.422302
0.422293
0.422322
0.422248
0.422232
0.422211
0.422061
0.422011
0.422023
0.421872
0.421946
0.422089
0.421954
0.421946
0.421935
0.42195
0.421935
0.421771
0.421812
0.421892
0.42188
0.421842
0.421842
0.421857
0.421627
0.42168
0.421772
0.421777
0.421777
0.421714
0.42169
0.421412
0.38134
0.395555
0.40803
0.416203
0.420487
0.422358
0.422618
0.422467
0.422568
0.422678
0.422546
0.42257
0.422612
0.422578
0.422429
0.422513
0.422634
0.422406
0.422445
0.422607
0.422505
0.422617
0.422719
0.422602
0.42268
0.42271
0.422693
0.422689
0.422618
0.422586
0.42252
0.42241
0.422195
0.422116
0.422062
0.421955
0.421937
0.421882
0.421691
0.421728
0.421885
0.421889
0.421875
0.4216
0.421571
0.42164
0.421563
0.421638
0.421678
0.421647
0.421631
0.421487
0.421675
0.422053
0.422064
0.42205
0.422112
0.422176
0.42216
0.422155
0.421922
0.421977
0.422097
0.421886
0.421955
0.422066
0.421925
0.42191
0.421904
0.421769
0.421776
0.421965
0.422013
0.421981
0.421956
0.421949
0.421888
0.421824
0.421756
0.421542
0.421585
0.421743
0.42154
0.421609
0.421739
0.421718
0.421739
0.421733
0.421697
0.421424
0.381341
0.395549
0.408049
0.416147
0.42061
0.422186
0.422292
0.422403
0.422506
0.422402
0.422411
0.422412
0.422297
0.422359
0.422517
0.422496
0.422436
0.422404
0.422437
0.422366
0.422472
0.422561
0.422515
0.422353
0.422365
0.422461
0.422251
0.42227
0.422492
0.422553
0.422518
0.422403
0.422393
0.422384
0.422342
0.42229
0.422264
0.422164
0.421945
0.421692
0.421624
0.421593
0.421569
0.421573
0.421524
0.421408
0.421279
0.421426
0.421556
0.42154
0.421535
0.421385
0.421628
0.422084
0.422053
0.422051
0.42203
0.42212
0.422219
0.422199
0.422187
0.422014
0.422041
0.422099
0.422072
0.422072
0.421986
0.42192
0.42176
0.421716
0.421911
0.421976
0.421956
0.42195
0.421763
0.421769
0.421874
0.421768
0.421861
0.421917
0.421899
0.421897
0.421827
0.421834
0.421775
0.421576
0.421609
0.421738
0.421699
0.421533
0.38135
0.395518
0.408038
0.416339
0.420468
0.421704
0.421821
0.421785
0.421664
0.421785
0.422008
0.422008
0.422006
0.421896
0.421901
0.42185
0.421978
0.422106
0.421941
0.422004
0.422287
0.422428
0.422488
0.4223
0.422334
0.422498
0.42249
0.422393
0.422427
0.422471
0.422444
0.422438
0.422362
0.422343
0.42229
0.422222
0.421942
0.421931
0.421941
0.421754
0.42183
0.421889
0.42179
0.421798
0.421744
0.421722
0.421737
0.421726
0.421711
0.421661
0.421686
0.421719
0.4217
0.421686
0.4215
0.421467
0.421407
0.421251
0.421197
0.421437
0.421583
0.421568
0.421562
0.421409
0.421516
0.421746
0.421731
0.421675
0.421653
0.421566
0.4216
0.421783
0.421709
0.421827
0.421909
0.421747
0.421823
0.421868
0.421742
0.421795
0.421819
0.421764
0.421618
0.421568
0.421701
0.421727
0.421794
0.421817
0.42175
0.421496
0.381378
0.395531
0.407955
0.416363
0.420509
0.421671
0.422014
0.422059
0.422007
0.422004
0.421958
0.421941
0.421772
0.421817
0.422159
0.422202
0.422167
0.422113
0.422072
0.421936
0.421945
0.422357
0.422488
0.422463
0.422449
0.42227
0.422312
0.4224
0.422361
0.422367
0.422309
0.422109
0.422054
0.422114
0.422128
0.422085
0.42189
0.421903
0.421909
0.421852
0.421837
0.421808
0.421808
0.421816
0.421795
0.421717
0.421678
0.421636
0.42158
0.421547
0.42137
0.421289
0.421408
0.421482
0.421456
0.42138
0.421455
0.421485
0.421594
0.421832
0.421812
0.421733
0.421718
0.421774
0.421775
0.421774
0.42162
0.421704
0.421766
0.421591
0.421685
0.421791
0.421789
0.421788
0.421579
0.421632
0.421771
0.421773
0.421773
0.421728
0.421674
0.421505
0.421579
0.421686
0.421645
0.421573
0.42144
0.421511
0.421551
0.421393
0.381372
0.395544
0.407944
0.416357
0.420526
0.421692
0.422025
0.422063
0.421854
0.421919
0.421973
0.421938
0.421884
0.421827
0.422083
0.422208
0.422165
0.422068
0.421982
0.422211
0.422392
0.422347
0.422341
0.422348
0.422399
0.422364
0.422318
0.422237
0.422215
0.422153
0.421943
0.421929
0.422147
0.42221
0.422174
0.422158
0.422099
0.421962
0.421822
0.42181
0.421766
0.421731
0.421711
0.421509
0.4214
0.421467
0.421513
0.421462
0.421284
0.421269
0.42156
0.421564
0.421609
0.421943
0.422036
0.422006
0.421982
0.421785
0.421858
0.422008
0.421933
0.421952
0.421933
0.421775
0.42172
0.421757
0.421637
0.421725
0.421863
0.421835
0.421832
0.421802
0.421789
0.421568
0.42161
0.421729
0.421724
0.421724
0.421648
0.421655
0.421628
0.421639
0.421594
0.421561
0.42154
0.421385
0.421457
0.421647
0.421609
0.421453
0.38134
0.395555
0.408027
0.416208
0.420472
0.422366
0.422653
0.422597
0.422595
0.422518
0.42261
0.422693
0.422597
0.422655
0.422684
0.422638
0.422473
0.422524
0.42263
0.422404
0.422453
0.422614
0.422471
0.422541
0.422594
0.422509
0.422555
0.422561
0.422505
0.422335
0.422271
0.422208
0.421996
0.422047
0.42211
0.421918
0.421838
0.421845
0.421859
0.421873
0.421826
0.421651
0.421648
0.421796
0.421658
0.421745
0.421874
0.421684
0.421765
0.421852
0.421846
0.421844
0.421725
0.421699
0.42152
0.42156
0.421784
0.421719
0.421738
0.421735
0.421766
0.42172
0.421691
0.421686
0.421561
0.421609
0.421742
0.421699
0.42161
0.421643
0.421861
0.421868
0.421834
0.421824
0.421667
0.421662
0.421738
0.421754
0.421755
0.421652
0.421633
0.421484
0.421572
0.42178
0.421771
0.421755
0.421549
0.421608
0.421678
0.421456
0.381346
0.39557
0.408013
0.416194
0.420404
0.422393
0.422732
0.422663
0.422671
0.422673
0.422602
0.422645
0.422694
0.422671
0.422644
0.422687
0.422746
0.422729
0.422717
0.422722
0.422742
0.422715
0.422714
0.42257
0.422617
0.422643
0.42258
0.422613
0.422561
0.422521
0.422523
0.422519
0.422488
0.422377
0.422065
0.422078
0.422138
0.422109
0.422087
0.421835
0.421845
0.421886
0.421846
0.421714
0.421736
0.42178
0.421652
0.421577
0.421691
0.421843
0.421762
0.421756
0.421754
0.421698
0.421621
0.421762
0.421858
0.421829
0.421801
0.421669
0.421671
0.421626
0.421733
0.421958
0.421813
0.421889
0.422046
0.421969
0.421962
0.421959
0.421892
0.421787
0.421823
0.421935
0.421926
0.421918
0.421789
0.421696
0.421732
0.421806
0.421775
0.421733
0.421683
0.421517
0.421423
0.421502
0.421578
0.421558
0.421545
0.421374
0.381334
0.39561
0.407942
0.416233
0.420591
0.422056
0.422172
0.422152
0.422159
0.422099
0.421899
0.421929
0.422091
0.421885
0.421886
0.422048
0.422116
0.422084
0.421957
0.422089
0.422315
0.422287
0.4223
0.422272
0.422252
0.422229
0.422207
0.422034
0.421969
0.422161
0.42222
0.422167
0.421976
0.421969
0.422093
0.422099
0.422061
0.422036
0.422029
0.42194
0.421848
0.421745
0.421505
0.421367
0.421484
0.421536
0.421491
0.421349
0.421357
0.421609
0.421627
0.421594
0.421561
0.421454
0.421453
0.421453
0.421527
0.421921
0.421998
0.421903
0.421896
0.421886
0.421821
0.421724
0.421724
0.421707
0.421823
0.421875
0.421809
0.42184
0.421799
0.421639
0.421699
0.421782
0.421576
0.421653
0.421778
0.421639
0.42155
0.421605
0.421726
0.421778
0.421764
0.421744
0.421738
0.421538
0.42158
0.421736
0.421707
0.421542
0.38134
0.395555
0.40803
0.416198
0.420507
0.422293
0.422609
0.422708
0.422678
0.422669
0.422645
0.42266
0.422673
0.422475
0.422525
0.422601
0.422446
0.422556
0.422659
0.422452
0.422526
0.422636
0.422571
0.422592
0.422603
0.42259
0.422492
0.422293
0.422304
0.422401
0.422334
0.422351
0.422352
0.42234
0.422272
0.422196
0.422041
0.421884
0.421804
0.421738
0.421646
0.42159
0.421427
0.421395
0.421499
0.421401
0.42141
0.421526
0.421437
0.421534
0.421788
0.421787
0.421739
0.421642
0.42154
0.421626
0.421753
0.421719
0.421604
0.421652
0.421746
0.421538
0.421584
0.421725
0.421515
0.421496
0.42161
0.421585
0.421543
0.421627
0.421732
0.421818
0.421801
0.421756
0.421629
0.421624
0.421699
0.421708
0.421703
0.421541
0.421629
0.421765
0.421709
0.421707
0.421683
0.421517
0.421456
0.421563
0.421587
0.421456
0.38133
0.395523
0.408056
0.416384
0.420434
0.421596
0.421651
0.421541
0.421571
0.421869
0.421924
0.421884
0.421826
0.42168
0.421878
0.42221
0.422198
0.422133
0.422197
0.422413
0.422312
0.422275
0.422466
0.422636
0.422553
0.422614
0.42263
0.422599
0.422561
0.422313
0.422256
0.422191
0.422159
0.422151
0.421999
0.422071
0.422097
0.422021
0.421932
0.421949
0.421996
0.42194
0.421819
0.421732
0.421729
0.421678
0.421778
0.42183
0.421805
0.421799
0.421695
0.421636
0.421419
0.421366
0.421578
0.421627