/*--------------------------------*- C++ -*----------------------------------*\
  =========                 |
  \\      /  F ield         | OpenFOAM: The Open Source CFD Toolbox
   \\    /   O peration     | Website:  https://openfoam.org
    \\  /    A nd           | Version:  11
     \\/     M anipulation  |
\*---------------------------------------------------------------------------*/
FoamFile
{
    format      ascii;
    class       volScalarField;
    location    "0.058";
    object      nut;
}
// * * * * * * * * * * * * * * * * * * * * * * * * * * * * * * * * * * * * * //

dimensions      [0 2 -1 0 0 0 0];

internalField   nonuniform List<scalar> 
287084
(
0.000835967
0.000868144
0.000897377
0.000917356
0.000927535
0.000930803
0.000931393
0.000931556
0.000931396
0.000931651
0.000932064
0.000931866
0.000931957
0.000931979
0.000931845
0.000931679
0.000931329
0.000931215
0.000931076
0.000931287
0.00093175
0.000931398
0.000931509
0.000931581
0.000931519
0.000931508
0.000931175
0.000931363
0.000931668
0.000931675
0.000931756
0.000931865
0.000932007
0.000931764
0.000931654
0.000931751
0.000931877
0.000932101
0.000932271
0.000932407
0.000932191
0.000932357
0.000932529
0.000932478
0.000932572
0.000932578
0.000932357
0.000932534
0.000933033
0.000932724
0.000932908
0.000933316
0.000933265
0.000933183
0.000932889
0.000932646
0.000932772
0.000932863
0.000932642
0.000932848
0.000932939
0.000932659
0.000932501
0.000932863
0.000933282
0.000933254
0.00093321
0.000932754
0.000932857
0.000933117
0.00093304
0.000932918
0.000932611
0.000932685
0.00093269
0.000932891
0.000932983
0.000932921
0.000932773
0.000932769
0.000933038
0.00093288
0.000933029
0.000933096
0.000933004
0.000932913
0.000932375
0.000932457
0.000932657
0.000932222
0.00118169
0.00122564
0.00126492
0.00129161
0.00130496
0.00130897
0.00130932
0.00130902
0.00130934
0.00131002
0.00130995
0.00130977
0.00130935
0.0013092
0.00130906
0.00130852
0.00130853
0.00130878
0.00130861
0.0013083
0.00130823
0.001309
0.0013094
0.00130934
0.00130932
0.00130915
0.00130881
0.00130876
0.00130847
0.00130876
0.0013093
0.0013092
0.00130941
0.00130963
0.00130966
0.00130977
0.00130989
0.00130948
0.00130966
0.00131063
0.00131093
0.00131095
0.00131061
0.00131062
0.00131122
0.00131163
0.00131167
0.00131182
0.00131179
0.00131177
0.0013117
0.00131101
0.00131113
0.00131134
0.00131111
0.0013111
0.00131108
0.00131065
0.00131064
0.00131115
0.0013109
0.00131124
0.0013115
0.00131141
0.00131138
0.00131096
0.00131124
0.00131161
0.00131146
0.00131095
0.00131101
0.00131171
0.00131174
0.00131176
0.00131163
0.00131145
0.00131077
0.00131089
0.00131138
0.00131105
0.00131104
0.00131101
0.00131055
0.00131053
0.0013111
0.0013112
0.00131111
0.00131115
0.00131094
0.00131011
0.00118175
0.0012258
0.00126515
0.00129175
0.00130486
0.00130952
0.00131015
0.00131009
0.00130966
0.00130973
0.00131011
0.0013098
0.0013098
0.00130958
0.00130916
0.00130897
0.00130933
0.00130956
0.00130931
0.00130889
0.00130853
0.00130861
0.0013086
0.00130906
0.00130944
0.00130939
0.00130941
0.00130916
0.0013092
0.00130924
0.00130927
0.00130929
0.00130927
0.00130931
0.00130942
0.00130936
0.00130953
0.00130995
0.00131012
0.00131061
0.00131089
0.00131073
0.00131105
0.00131126
0.00131131
0.00131143
0.00131121
0.00131158
0.00131191
0.00131188
0.00131184
0.00131159
0.00131141
0.00131094
0.0013108
0.00131127
0.00131137
0.00131096
0.00131104
0.00131145
0.00131137
0.00131148
0.00131133
0.00131081
0.00131075
0.00131143
0.00131179
0.00131173
0.00131171
0.00131144
0.00131134
0.00131121
0.00131083
0.00131062
0.00131082
0.0013109
0.00131072
0.00131071
0.00131074
0.00131076
0.00131038
0.00131062
0.00131132
0.00131096
0.00131073
0.00131064
0.00131052
0.00131042
0.0013104
0.00131005
0.00118169
0.00122605
0.00126535
0.00129179
0.00130527
0.00131007
0.0013107
0.00131057
0.00131007
0.00131005
0.00131045
0.00131039
0.00131028
0.00130945
0.00130926
0.00130977
0.00130987
0.00130969
0.00130963
0.00130939
0.00130916
0.00130882
0.00130867
0.00130841
0.00130847
0.00130853
0.00130849
0.00130833
0.00130838
0.00130929
0.00130972
0.0013098
0.00130987
0.00130977
0.00130999
0.00131024
0.00131032
0.00131036
0.00130998
0.00131042
0.00131084
0.00131091
0.00131067
0.001311
0.00131154
0.00131157
0.00131157
0.00131154
0.00131159
0.00131114
0.00131133
0.00131147
0.00131145
0.00131146
0.00131114
0.00131109
0.00131077
0.00131069
0.00131147
0.00131186
0.00131174
0.00131154
0.00131108
0.00131108
0.00131098
0.0013114
0.0013118
0.00131119
0.00131145
0.00131184
0.00131138
0.00131109
0.00131116
0.00131123
0.0013109
0.00131107
0.0013114
0.00131167
0.00131183
0.00131175
0.00131172
0.00131101
0.0013111
0.00131142
0.00131143
0.00131142
0.0013108
0.0013109
0.00131098
0.00131039
0.0011817
0.00122616
0.00126539
0.00129192
0.00130561
0.0013095
0.00130943
0.00130971
0.00131033
0.00130972
0.00130953
0.00130993
0.00130998
0.00130972
0.0013091
0.00130911
0.00130928
0.00130875
0.00130859
0.00130847
0.00130833
0.00130811
0.0013083
0.00130836
0.00130857
0.00130862
0.00130857
0.00130868
0.00130871
0.00130875
0.00130882
0.00130884
0.00130896
0.00130909
0.00130933
0.00130939
0.00130981
0.00131088
0.00131129
0.0013114
0.00131144
0.00131112
0.00131113
0.00131128
0.00131145
0.00131154
0.00131136
0.0013113
0.00131111
0.00131092
0.00131103
0.00131116
0.00131121
0.00131116
0.00131109
0.00131094
0.00131092
0.00131088
0.00131116
0.00131123
0.00131115
0.00131115
0.00131101
0.00131061
0.00131055
0.00131084
0.00131075
0.00131094
0.00131097
0.00131088
0.00131069
0.00131112
0.00131178
0.00131176
0.00131172
0.00131135
0.00131127
0.00131089
0.00131085
0.00131084
0.00131078
0.00131085
0.00131072
0.00131031
0.00131054
0.00131122
0.00131081
0.00131066
0.00131075
0.00131035
0.00118168
0.00122613
0.00126559
0.00129225
0.00130512
0.00130832
0.00130837
0.00130895
0.00131008
0.00131002
0.00130982
0.00130957
0.00130929
0.00130853
0.0013084
0.00130893
0.00130869
0.00130866
0.00130856
0.0013085
0.00130841
0.00130822
0.00130792
0.00130814
0.00130837
0.00130785
0.00130811
0.00130875
0.00130889
0.00130904
0.00130877
0.00130892
0.0013091
0.0013094
0.00130937
0.00130982
0.00131021
0.00131033
0.00131069
0.00131081
0.00131091
0.00131087
0.00131077
0.0013107
0.00131076
0.00131071
0.00131094
0.00131122
0.00131146
0.00131153
0.00131146
0.00131116
0.00131133
0.00131198
0.00131194
0.00131195
0.00131187
0.00131147
0.00131152
0.00131172
0.00131162
0.00131155
0.00131113
0.00131101
0.00131083
0.00131119
0.00131183
0.00131174
0.0013117
0.00131138
0.00131111
0.00131107
0.00131082
0.00131109
0.00131166
0.0013114
0.00131134
0.00131126
0.00131113
0.00131089
0.00131075
0.00131043
0.00131068
0.00131136
0.00131121
0.0013112
0.00131095
0.00131095
0.00131093
0.00131047
0.00118159
0.00122622
0.00126564
0.00129228
0.00130529
0.00130872
0.00130966
0.00130975
0.00130967
0.00130956
0.00130878
0.00130879
0.00131028
0.00131054
0.00131002
0.00131019
0.00131053
0.00131037
0.00131023
0.00130975
0.00130969
0.00130947
0.00130891
0.00130891
0.0013094
0.00130943
0.00130942
0.00130884
0.00130907
0.00130938
0.0013088
0.001309
0.00130963
0.00130983
0.00131017
0.00131034
0.00131045
0.00131013
0.00131065
0.00131137
0.00131156
0.00131175
0.00131131
0.00131165
0.00131199
0.00131197
0.00131159
0.00131176
0.00131203
0.00131203
0.00131206
0.00131162
0.00131173
0.00131177
0.00131164
0.00131152
0.0013117
0.00131201
0.00131177
0.00131175
0.00131171
0.0013115
0.00131095
0.00131116
0.00131161
0.00131121
0.00131114
0.00131111
0.00131091
0.00131062
0.0013109
0.00131109
0.00131068
0.00131057
0.0013111
0.00131152
0.00131146
0.00131147
0.00131126
0.00131057
0.00131065
0.00131126
0.00131098
0.00131074
0.00131065
0.00131051
0.00131094
0.00131139
0.00131125
0.00131069
0.00118166
0.00122624
0.00126568
0.00129167
0.00130558
0.00131114
0.00131195
0.00131226
0.0013123
0.00131214
0.00131189
0.0013118
0.0013117
0.0013115
0.00131135
0.00131107
0.00131058
0.00131048
0.00131048
0.00130993
0.00130992
0.00130994
0.00130979
0.00130974
0.00130947
0.00130926
0.00130939
0.00130963
0.00130966
0.00130972
0.00130976
0.00130986
0.0013099
0.00130948
0.00130984
0.00131033
0.00131011
0.00131028
0.00131127
0.00131184
0.00131196
0.00131197
0.00131175
0.00131214
0.00131256
0.00131252
0.00131266
0.00131266
0.00131209
0.00131221
0.00131273
0.00131229
0.0013126
0.00131289
0.0013126
0.00131267
0.00131251
0.00131252
0.00131251
0.00131237
0.00131221
0.00131208
0.00131146
0.00131144
0.00131143
0.00131081
0.00131073
0.00131129
0.00131154
0.00131145
0.00131146
0.00131143
0.00131129
0.00131115
0.00131084
0.00131123
0.00131166
0.00131162
0.00131159
0.00131126
0.00131117
0.00131068
0.0013109
0.00131154
0.00131151
0.00131145
0.00131079
0.00131095
0.00131115
0.00131042
0.00118164
0.0012262
0.00126571
0.00129222
0.00130531
0.00130965
0.00131001
0.00130987
0.00130975
0.00130907
0.001309
0.00131008
0.0013103
0.00131044
0.00131027
0.00131003
0.00130973
0.00130962
0.0013102
0.00131011
0.00130999
0.00130985
0.00130975
0.00130925
0.00130939
0.00130952
0.00130953
0.00130963
0.00130963
0.0013097
0.00130941
0.00130937
0.00130951
0.0013094
0.00130987
0.00131037
0.00131027
0.00131038
0.00131072
0.0013109
0.00131158
0.00131216
0.00131173
0.00131212
0.00131271
0.00131268
0.00131278
0.00131279
0.00131285
0.00131273
0.00131245
0.00131166
0.00131147
0.00131139
0.00131122
0.00131109
0.00131151
0.0013119
0.00131181
0.00131173
0.00131115
0.00131141
0.00131171
0.00131164
0.00131159
0.00131112
0.00131106
0.00131076
0.001311
0.00131187
0.00131185
0.00131177
0.00131113
0.00131093
0.0013111
0.00131083
0.00131115
0.00131198
0.00131189
0.00131176
0.00131151
0.00131138
0.00131124
0.00131084
0.0013111
0.00131138
0.00131109
0.00131115
0.001311
0.00131036
0.00118164
0.00122601
0.00126609
0.00129205
0.00130522
0.00130935
0.0013096
0.00130948
0.00130922
0.00130956
0.00131006
0.00130986
0.00130965
0.00130892
0.00130911
0.00130948
0.00130909
0.00130892
0.00130869
0.00130822
0.00130779
0.00130805
0.00130816
0.00130791
0.00130781
0.00130783
0.00130764
0.00130789
0.0013087
0.00130889
0.00130902
0.00130924
0.00130953
0.00130936
0.00130992
0.00131046
0.00131071
0.00131105
0.00131122
0.00131136
0.00131149
0.00131159
0.00131161
0.00131145
0.00131091
0.00131109
0.00131151
0.00131158
0.00131163
0.00131109
0.0013112
0.0013116
0.00131154
0.00131141
0.00131084
0.00131103
0.00131121
0.00131064
0.00131069
0.00131165
0.00131175
0.00131154
0.0013109
0.00131085
0.00131113
0.00131058
0.00131064
0.00131117
0.00131106
0.00131108
0.00131095
0.00131082
0.00131041
0.00131066
0.00131093
0.00131035
0.00131042
0.00131123
0.00131127
0.00131113
0.0013108
0.00131055
0.00131106
0.00131153
0.00131153
0.00131151
0.00131084
0.00131077
0.00131092
0.00131038
0.00118168
0.00122612
0.00126573
0.00129216
0.00130561
0.00130966
0.00130988
0.00130967
0.00130942
0.00130959
0.00130968
0.00130911
0.00130891
0.0013093
0.00130926
0.00130871
0.0013089
0.00130941
0.00130889
0.00130903
0.00130902
0.00130875
0.00130862
0.00130812
0.0013083
0.00130842
0.00130788
0.00130821
0.0013085
0.00130862
0.00130864
0.00130905
0.00130989
0.00131017
0.00131043
0.00131057
0.00131095
0.00131134
0.00131169
0.00131175
0.00131182
0.00131163
0.001311
0.00131122
0.00131151
0.00131114
0.00131156
0.00131227
0.0013122
0.00131223
0.00131217
0.00131228
0.00131217
0.001312
0.00131155
0.0013116
0.00131162
0.00131103
0.00131096
0.00131156
0.00131175
0.00131154
0.0013109
0.00131092
0.00131141
0.0013114
0.00131132
0.00131061
0.00131068
0.00131113
0.00131108
0.00131103
0.0013109
0.00131113
0.00131112
0.00131098
0.0013109
0.00131068
0.00131099
0.00131161
0.00131093
0.00131099
0.00131144
0.00131146
0.00131145
0.00131092
0.00131105
0.00131115
0.00131099
0.00131044
0.00118161
0.00122626
0.00126563
0.00129223
0.00130551
0.00130982
0.00131047
0.00131038
0.00131026
0.00130989
0.00130956
0.00130989
0.00131014
0.00131028
0.00131054
0.00131
0.00130988
0.00130954
0.00130891
0.00130896
0.00130928
0.00130843
0.0013083
0.00130865
0.00130848
0.00130876
0.00130899
0.00130905
0.00130922
0.00130937
0.00130966
0.00130985
0.00130995
0.00131012
0.00131038
0.00131062
0.00131084
0.00131085
0.00131071
0.00131071
0.00131074
0.00131094
0.00131119
0.00131118
0.00131161
0.00131185
0.00131184
0.00131162
0.00131179
0.00131238
0.00131203
0.00131227
0.00131258
0.00131254
0.00131249
0.00131191
0.00131145
0.00131151
0.00131155
0.00131102
0.00131099
0.0013114
0.00131108
0.00131137
0.00131189
0.00131181
0.00131171
0.00131098
0.00131105
0.00131177
0.00131175
0.00131159
0.0013109
0.00131099
0.00131127
0.00131126
0.00131124
0.00131051
0.00131059
0.0013112
0.00131121
0.00131119
0.0013108
0.00131107
0.00131136
0.0013112
0.00131089
0.00131057
0.00131065
0.00131026
0.00118167
0.00122624
0.00126575
0.00129162
0.0013058
0.00131102
0.00131166
0.00131149
0.00131102
0.00131121
0.00131145
0.0013106
0.00131059
0.00131083
0.00131003
0.00131007
0.00131025
0.00130997
0.00130974
0.00130899
0.00130911
0.00130934
0.0013085
0.00130851
0.00130902
0.00130905
0.00130903
0.00130912
0.00130929
0.00130935
0.00130904
0.00130921
0.00130954
0.00130999
0.00131023
0.00131077
0.00131141
0.00131175
0.00131208
0.00131169
0.00131209
0.00131249
0.00131259
0.00131263
0.00131234
0.00131273
0.00131312
0.00131314
0.00131317
0.0013131
0.00131301
0.00131289
0.00131266
0.00131197
0.00131195
0.00131222
0.00131223
0.00131218
0.00131146
0.00131165
0.00131215
0.0013121
0.00131204
0.00131161
0.00131148
0.00131106
0.00131091
0.00131133
0.00131151
0.00131144
0.00131145
0.00131139
0.00131124
0.00131112
0.00131088
0.00131126
0.00131168
0.00131159
0.00131152
0.00131097
0.00131119
0.0013114
0.00131132
0.00131129
0.00131073
0.00131069
0.00131101
0.00131105
0.00131101
0.00131046
0.00118165
0.00122609
0.0012658
0.00129246
0.00130522
0.00130874
0.00130937
0.00130949
0.001309
0.00130914
0.00130912
0.00130867
0.00130858
0.00130839
0.00130784
0.0013079
0.00130844
0.00130781
0.00130789
0.00130795
0.00130719
0.00130707
0.00130763
0.00130738
0.00130773
0.00130838
0.00130798
0.00130834
0.00130864
0.00130878
0.00130869
0.00130914
0.00130963
0.00130978
0.00131
0.00131071
0.00131134
0.00131136
0.00131183
0.00131234
0.00131262
0.00131287
0.00131299
0.00131306
0.00131309
0.00131316
0.00131299
0.00131319
0.00131328
0.00131319
0.00131308
0.00131221
0.00131212
0.00131232
0.00131236
0.00131232
0.00131156
0.00131157
0.00131208
0.00131206
0.00131196
0.00131126
0.00131111
0.00131149
0.0013115
0.00131135
0.00131105
0.00131126
0.00131165
0.00131157
0.00131162
0.00131149
0.00131127
0.0013108
0.0013106
0.00131103
0.00131084
0.00131114
0.00131176
0.00131123
0.00131149
0.00131176
0.00131175
0.00131172
0.00131119
0.00131102
0.00131154
0.00131181
0.00131163
0.00131094
0.00118167
0.00122625
0.00126571
0.00129172
0.00130557
0.00131131
0.00131217
0.00131202
0.00131159
0.00131163
0.00131178
0.001311
0.00131101
0.00131098
0.00131041
0.00131018
0.00130989
0.00130918
0.00130909
0.00130925
0.00130869
0.0013086
0.00130848
0.00130848
0.00130852
0.00130848
0.00130843
0.00130862
0.00130878
0.00130898
0.00130926
0.0013097
0.0013101
0.00131044
0.00131073
0.00131106
0.00131136
0.00131144
0.00131131
0.00131146
0.00131162
0.00131142
0.00131181
0.00131254
0.00131272
0.00131282
0.0013126
0.00131258
0.00131204
0.00131224
0.0013126
0.00131195
0.00131204
0.00131264
0.00131261
0.00131255
0.00131226
0.00131181
0.00131163
0.00131139
0.00131164
0.00131242
0.00131229
0.00131222
0.00131182
0.00131203
0.00131211
0.00131204
0.00131199
0.00131124
0.00131132
0.00131141
0.00131132
0.00131127
0.00131079
0.00131126
0.00131168
0.00131156
0.00131138
0.00131092
0.00131123
0.00131156
0.00131135
0.0013114
0.00131124
0.00131067
0.0013105
0.00131084
0.00131091
0.00131045
0.00118177
0.00122623
0.00126543
0.00129222
0.0013056
0.0013094
0.00131045
0.00131048
0.00130962
0.0013095
0.00130973
0.0013096
0.00130937
0.00130862
0.00130862
0.00130893
0.00130861
0.0013083
0.00130766
0.00130756
0.00130747
0.00130694
0.00130697
0.00130741
0.00130719
0.00130704
0.00130741
0.00130777
0.00130751
0.001308
0.00130874
0.00130855
0.00130918
0.0013101
0.0013106
0.00131113
0.0013114
0.0013119
0.00131223
0.00131248
0.00131264
0.00131292
0.00131304
0.00131313
0.00131313
0.0013129
0.00131191
0.00131186
0.00131245
0.00131211
0.00131239
0.00131257
0.00131241
0.00131205
0.00131191
0.00131262
0.00131253
0.00131268
0.00131364
0.00131364
0.0013134
0.00131276
0.00131275
0.00131292
0.00131287
0.00131279
0.00131275
0.00131272
0.00131252
0.00131244
0.00131207
0.00131134
0.00131142
0.00131178
0.00131163
0.00131133
0.00131103
0.00131109
0.00131109
0.00131071
0.00131085
0.00131148
0.00131165
0.00131152
0.00131099
0.00131089
0.00131103
0.00131106
0.00131095
0.0013104
0.00118169
0.0012263
0.00126566
0.00129168
0.00130531
0.00131137
0.0013127
0.00131251
0.00131236
0.00131219
0.0013118
0.00131172
0.00131154
0.0013111
0.00131041
0.00130995
0.00130964
0.00130882
0.00130869
0.00130888
0.00130818
0.00130776
0.00130762
0.00130745
0.00130778
0.00130801
0.00130809
0.00130828
0.00130819
0.00130852
0.00130877
0.00130926
0.00130967
0.00130989
0.00131044
0.00131088
0.00131138
0.00131176
0.00131207
0.00131234
0.00131239
0.00131196
0.00131185
0.00131234
0.00131257
0.00131248
0.00131193
0.00131194
0.00131233
0.00131188
0.00131214
0.00131254
0.00131224
0.00131182
0.00131195
0.00131256
0.00131288
0.00131304
0.0013123
0.00131237
0.0013128
0.0013121
0.00131222
0.00131254
0.00131202
0.00131191
0.00131185
0.00131168
0.00131151
0.00131133
0.00131085
0.00131107
0.00131163
0.00131156
0.00131138
0.00131104
0.0013107
0.00131109
0.00131151
0.0013114
0.00131137
0.00131131
0.00131127
0.00131059
0.00131068
0.0013112
0.00131064
0.00131073
0.00131121
0.00131055
0.00118167
0.00122626
0.00126568
0.0012918
0.00130529
0.00131162
0.00131264
0.00131255
0.00131233
0.00131216
0.00131199
0.00131167
0.0013114
0.00131053
0.00131042
0.00131027
0.00130932
0.00130925
0.0013093
0.00130831
0.00130819
0.00130845
0.0013081
0.00130788
0.001308
0.00130813
0.0013082
0.0013084
0.00130838
0.00130868
0.00130903
0.00130938
0.00130981
0.00131027
0.00131079
0.00131128
0.00131164
0.00131171
0.00131172
0.00131187
0.00131203
0.0013119
0.00131198
0.00131226
0.00131231
0.0013124
0.00131219
0.00131251
0.00131298
0.00131289
0.00131282
0.00131245
0.00131204
0.00131217
0.00131223
0.00131246
0.00131309
0.00131259
0.00131281
0.00131299
0.00131261
0.00131271
0.00131271
0.00131247
0.00131191
0.00131168
0.00131175
0.00131172
0.00131144
0.00131152
0.00131215
0.00131214
0.001312
0.00131194
0.0013117
0.00131132
0.00131138
0.0013116
0.00131147
0.00131132
0.00131114
0.00131077
0.00131117
0.00131146
0.00131137
0.00131131
0.00131072
0.00131087
0.00131104
0.00131042
0.00118169
0.0012263
0.00126567
0.0012916
0.0013055
0.00131112
0.00131189
0.00131221
0.00131215
0.00131139
0.0013114
0.00131129
0.00131089
0.00131021
0.00131002
0.00130997
0.0013089
0.00130867
0.00130881
0.00130818
0.00130771
0.00130742
0.00130717
0.00130738
0.00130747
0.00130735
0.00130756
0.00130764
0.00130793
0.00130835
0.00130889
0.00130921
0.00130896
0.00130949
0.00131043
0.00131069
0.0013115
0.0013123
0.00131275
0.00131315
0.00131316
0.00131326
0.00131329
0.00131316
0.00131295
0.0013127
0.00131253
0.00131193
0.00131181
0.00131261
0.00131273
0.0013126
0.00131249
0.00131188
0.00131197
0.00131278
0.00131329
0.00131327
0.00131266
0.00131287
0.00131304
0.00131261
0.00131274
0.00131277
0.00131255
0.00131196
0.00131192
0.00131214
0.00131198
0.00131168
0.00131174
0.00131188
0.00131136
0.00131158
0.0013117
0.00131153
0.00131104
0.00131103
0.00131144
0.00131155
0.00131141
0.00131112
0.00131104
0.00131037
0.00131041
0.00131093
0.00131087
0.00131086
0.00131069
0.00131013
0.00118165
0.00122645
0.00126535
0.00129197
0.00130562
0.00131052
0.00131101
0.00131078
0.00131019
0.00130996
0.00131015
0.00130994
0.00130955
0.00130875
0.00130869
0.00130883
0.00130806
0.00130801
0.00130787
0.00130749
0.00130703
0.00130686
0.00130746
0.0013072
0.00130746
0.00130763
0.0013077
0.00130794
0.00130802
0.00130837
0.0013088
0.00130925
0.00130976
0.00131028
0.00131078
0.00131128
0.00131163
0.00131201
0.00131233
0.00131244
0.00131245
0.00131253
0.00131231
0.00131228
0.00131244
0.0013124
0.00131255
0.00131256
0.00131242
0.00131202
0.00131202
0.00131385
0.00131472
0.00131459
0.00131432
0.00131438
0.00131459
0.00131453
0.00131431
0.00131341
0.0013134
0.00131358
0.00131312
0.00131302
0.00131304
0.00131299
0.00131281
0.00131242
0.00131256
0.00131273
0.00131264
0.00131259
0.00131234
0.00131224
0.00131164
0.00131172
0.00131179
0.00131136
0.00131132
0.00131127
0.00131083
0.00131072
0.00131085
0.00131074
0.00131076
0.00131074
0.00131064
0.00131062
0.00131048
0.00131002
0.00118169
0.00122616
0.00126566
0.00129221
0.00130544
0.00130908
0.00130923
0.00130893
0.00130895
0.0013092
0.00130899
0.00130872
0.00130808
0.00130757
0.00130793
0.00130818
0.00130777
0.00130735
0.00130676
0.00130708
0.00130822
0.0013081
0.00130781
0.00130774
0.00130756
0.00130734
0.00130701
0.00130724
0.00130775
0.00130819
0.00130875
0.00130914
0.00130953
0.00131004
0.00131044
0.00131064
0.00131143
0.00131218
0.00131257
0.00131291
0.00131276
0.00131288
0.00131303
0.00131312
0.00131269
0.00131285
0.00131315
0.00131315
0.00131311
0.00131288
0.00131281
0.00131255
0.00131207
0.00131181
0.00131191
0.00131171
0.00131176
0.00131179
0.0013116
0.00131145
0.00131138
0.00131122
0.00131099
0.00131086
0.00131054
0.00131082
0.00131121
0.00131072
0.0013105
0.00131102
0.00131169
0.00131157
0.00131162
0.00131162
0.00131161
0.00131143
0.00131099
0.00131132
0.00131176
0.00131149
0.00131149
0.00131142
0.00131107
0.00131072
0.00131083
0.00131088
0.00131046
0.00131065
0.00131095
0.0013103
0.00118167
0.00122624
0.00126574
0.00129155
0.00130582
0.00131096
0.00131146
0.00131129
0.00131096
0.00131066
0.00131026
0.00131037
0.00131053
0.00131017
0.00130986
0.00130927
0.00130888
0.00130838
0.00130793
0.00130744
0.00130756
0.00130794
0.00130765
0.00130756
0.00130748
0.00130747
0.00130757
0.00130782
0.00130777
0.00130822
0.00130857
0.00130845
0.00130928
0.00131016
0.00131084
0.0013115
0.00131159
0.00131206
0.00131243
0.00131261
0.0013128
0.00131296
0.00131303
0.00131307
0.00131297
0.00131248
0.00131228
0.00131266
0.00131298
0.00131279
0.00131241
0.0013121
0.00131287
0.00131446
0.00131428
0.00131417
0.0013139
0.00131416
0.00131441
0.0013141
0.0013141
0.00131388
0.00131339
0.00131352
0.00131358
0.00131271
0.00131268
0.00131289
0.0013122
0.00131231
0.00131275
0.00131219
0.00131238
0.0013128
0.00131272
0.00131278
0.00131269
0.00131259
0.00131258
0.00131257
0.00131237
0.00131212
0.00131113
0.00131115
0.00131142
0.00131132
0.00131114
0.00131073
0.00131061
0.00131017
0.00118167
0.00122626
0.00126568
0.00129172
0.00130544
0.00131141
0.00131219
0.00131159
0.00131172
0.00131185
0.0013112
0.00131093
0.00131063
0.00131033
0.00130959
0.00130949
0.0013095
0.00130842
0.00130819
0.00130835
0.00130802
0.00130768
0.00130747
0.00130795
0.001308
0.00130787
0.00130806
0.00130821
0.00130832
0.00130874
0.00130918
0.0013095
0.00130994
0.0013105
0.00131097
0.001311
0.00131149
0.001312
0.00131191
0.00131252
0.0013134
0.00131371
0.00131389
0.0013132
0.00131322
0.0013135
0.00131316
0.00131345
0.00131363
0.00131348
0.00131334
0.00131267
0.00131304
0.00131452
0.00131423
0.00131452
0.00131483
0.00131453
0.0013144
0.00131414
0.00131403
0.00131363
0.00131382
0.00131392
0.00131308
0.00131312
0.00131334
0.00131261
0.00131276
0.00131314
0.00131292
0.00131293
0.00131292
0.00131279
0.00131286
0.00131285
0.00131265
0.0013126
0.00131217
0.00131223
0.00131223
0.00131211
0.00131201
0.00131188
0.00131174
0.00131099
0.00131098
0.00131135
0.00131127
0.00131073
0.0011817
0.00122607
0.00126577
0.00129234
0.00130503
0.0013096
0.00130994
0.00130976
0.00130963
0.00130909
0.00130887
0.00130862
0.00130789
0.00130762
0.00130855
0.00130852
0.00130805
0.00130855
0.00130898
0.00130862
0.00130833
0.00130782
0.00130757
0.00130722
0.00130712
0.00130718
0.00130708
0.0013075
0.00130798
0.0013083
0.00130891
0.00130962
0.00131034
0.00131087
0.00131111
0.00131161
0.00131199
0.00131198
0.0013118
0.00131246
0.00131315
0.00131313
0.00131348
0.00131367
0.00131366
0.00131372
0.00131359
0.00131307
0.00131314
0.00131335
0.00131249
0.00131242
0.00131262
0.00131248
0.00131236
0.00131184
0.0013121
0.00131239
0.00131208
0.00131196
0.00131186
0.0013115
0.00131151
0.00131246
0.00131257
0.00131233
0.00131192
0.00131158
0.00131166
0.00131152
0.0013118
0.00131188
0.00131173
0.00131139
0.00131147
0.00131164
0.00131098
0.00131108
0.0013116
0.00131138
0.00131124
0.00131107
0.0013107
0.00131055
0.00131115
0.00131144
0.00131131
0.00131129
0.00131109
0.00131035
0.00118164
0.00122635
0.00126549
0.00129191
0.00130577
0.00131034
0.00131137
0.00131115
0.00131043
0.00131028
0.0013105
0.00131017
0.00130987
0.0013094
0.00130902
0.00130855
0.00130814
0.00130769
0.00130749
0.00130731
0.00130689
0.0013063
0.00130643
0.00130694
0.00130626
0.00130648
0.00130719
0.00130751
0.00130798
0.00130837
0.0013087
0.00130843
0.00130918
0.00131004
0.00131074
0.00131144
0.00131186
0.00131242
0.00131277
0.00131291
0.0013127
0.00131279
0.00131282
0.00131257
0.00131231
0.00131251
0.00131276
0.00131265
0.00131257
0.00131202
0.00131224
0.00131281
0.00131278
0.00131255
0.0013117
0.00131173
0.00131199
0.0013113
0.0013114
0.00131195
0.00131163
0.00131161
0.00131171
0.00131161
0.00131156
0.00131146
0.00131129
0.0013111
0.00131048
0.00131073
0.00131133
0.00131122
0.00131094
0.00131104
0.00131118
0.0013105
0.00131073
0.0013111
0.001311
0.0013109
0.0013106
0.00131107
0.00131147
0.00131142
0.00131141
0.00131128
0.00131109
0.00131078
0.00131057
0.00130994
0.00118167
0.00122625
0.00126572
0.00129161
0.00130571
0.001311
0.00131153
0.00131136
0.001311
0.00131113
0.00131127
0.00131046
0.00131045
0.00131048
0.00131005
0.00130963
0.00130929
0.00130895
0.00130819
0.00130773
0.00130748
0.00130709
0.00130734
0.00130759
0.00130753
0.0013076
0.00130765
0.00130792
0.00130798
0.0013084
0.00130876
0.00130915
0.00130969
0.00131026
0.00131066
0.00131061
0.00131128
0.00131195
0.00131237
0.00131286
0.00131313
0.00131321
0.00131331
0.00131334
0.00131326
0.00131306
0.00131238
0.00131218
0.0013127
0.00131289
0.0013127
0.00131229
0.00131219
0.00131233
0.00131224
0.00131213
0.00131179
0.00131137
0.00131162
0.00131176
0.00131129
0.0013111
0.00131164
0.00131206
0.00131182
0.00131185
0.00131167
0.00131144
0.00131083
0.00131085
0.00131102
0.00131045
0.00131053
0.0013115
0.0013116
0.0013115
0.00131146
0.00131134
0.00131124
0.00131108
0.00131086
0.00131019
0.00131012
0.00131099
0.00131114
0.00131098
0.00131045
0.00131063
0.00131108
0.00131038
0.00118167
0.00122626
0.00126567
0.00129179
0.00130527
0.00131158
0.00131258
0.00131243
0.00131224
0.00131145
0.00131144
0.00131136
0.00131058
0.00131052
0.00131033
0.00130937
0.00130924
0.00130925
0.00130819
0.00130795
0.00130814
0.00130754
0.00130719
0.00130748
0.00130781
0.00130773
0.00130792
0.0013082
0.00130865
0.00130902
0.00130953
0.0013102
0.00131084
0.00131136
0.00131135
0.0013112
0.00131162
0.00131221
0.00131279
0.00131324
0.00131337
0.00131346
0.0013135
0.00131354
0.00131351
0.00131313
0.00131323
0.0013133
0.00131319
0.00131311
0.0013124
0.0013123
0.00131399
0.00131506
0.00131451
0.0013147
0.00131488
0.00131459
0.00131451
0.00131437
0.00131437
0.00131404
0.0013139
0.00131375
0.00131321
0.00131298
0.00131295
0.00131241
0.00131258
0.00131297
0.0013125
0.00131243
0.00131235
0.00131235
0.00131227
0.00131172
0.00131182
0.00131204
0.00131197
0.00131183
0.00131181
0.00131183
0.0013111
0.00131125
0.00131152
0.00131152
0.00131151
0.00131131
0.00131122
0.00131031
0.00118167
0.00122626
0.00126568
0.00129172
0.00130544
0.00131141
0.00131219
0.0013116
0.00131173
0.00131186
0.0013112
0.001311
0.00131083
0.0013104
0.0013096
0.0013095
0.00130951
0.00130843
0.00130819
0.00130834
0.00130771
0.00130778
0.00130788
0.00130738
0.00130757
0.00130773
0.00130785
0.00130812
0.00130832
0.00130873
0.00130914
0.00130948
0.00130954
0.00131004
0.00131062
0.00131099
0.0013116
0.00131203
0.00131197
0.00131254
0.0013134
0.00131371
0.0013139
0.0013132
0.00131322
0.0013135
0.00131327
0.00131349
0.00131357
0.0013134
0.00131327
0.00131272
0.0013132
0.00131427
0.00131419
0.00131404
0.00131412
0.00131421
0.00131405
0.00131393
0.00131311
0.00131319
0.00131347
0.00131273
0.00131287
0.00131314
0.00131264
0.00131253
0.00131245
0.00131197
0.00131194
0.00131248
0.00131259
0.00131245
0.00131233
0.00131228
0.00131205
0.00131182
0.00131159
0.0013109
0.00131101
0.00131148
0.00131083
0.00131103
0.00131141
0.00131134
0.00131139
0.00131136
0.00131124
0.00131035
0.00118167
0.00122624
0.00126575
0.00129155
0.00130582
0.00131088
0.00131119
0.00131141
0.00131155
0.00131102
0.0013108
0.00131053
0.00130988
0.00130976
0.00130991
0.0013095
0.00130895
0.00130849
0.00130823
0.00130768
0.00130769
0.0013077
0.00130735
0.0013067
0.00130669
0.00130705
0.00130656
0.0013069
0.00130799
0.00130868
0.00130917
0.00130948
0.00131016
0.00131086
0.00131146
0.001312
0.00131256
0.00131285
0.00131269
0.00131235
0.00131251
0.00131271
0.00131287
0.00131305
0.001313
0.0013127
0.00131232
0.00131276
0.00131313
0.00131302
0.00131292
0.00131235
0.00131301
0.00131433
0.00131413
0.00131401
0.00131383
0.00131401
0.00131421
0.00131405
0.00131392
0.00131328
0.00131328
0.00131338
0.00131322
0.00131315
0.00131282
0.00131255
0.00131199
0.0013118
0.00131235
0.00131251
0.00131241
0.00131235
0.00131173
0.00131171
0.00131201
0.00131165
0.00131191
0.00131206
0.00131198
0.00131196
0.00131172
0.00131172
0.00131153
0.00131089
0.00131099
0.00131137
0.00131125
0.00131068
0.0011817
0.00122614
0.00126571
0.00129215
0.00130539
0.00130939
0.00130973
0.0013095
0.00130895
0.00130912
0.00130958
0.00130931
0.00130901
0.00130836
0.00130805
0.00130756
0.0013076
0.00130765
0.00130679
0.00130666
0.00130723
0.0013074
0.00130738
0.00130666
0.00130672
0.00130728
0.00130741
0.00130738
0.00130787
0.00130849
0.00130898
0.00130961
0.00131006
0.00131071
0.00131126
0.00131173
0.0013115
0.00131204
0.00131259
0.00131245
0.00131305
0.00131353
0.00131346
0.00131365
0.00131359
0.00131359
0.00131366
0.00131362
0.00131353
0.00131332
0.00131332
0.00131334
0.00131319
0.00131304
0.00131235
0.00131215
0.00131185
0.00131127
0.001311
0.00131165
0.00131201
0.00131188
0.00131177
0.00131122
0.00131148
0.00131212
0.00131201
0.00131177
0.00131165
0.00131132
0.00131138
0.0013119
0.00131163
0.00131196
0.00131218