/*--------------------------------*- C++ -*----------------------------------*\
  =========                 |
  \\      /  F ield         | OpenFOAM: The Open Source CFD Toolbox
   \\    /   O peration     | Website:  https://openfoam.org
    \\  /    A nd           | Version:  11
     \\/     M anipulation  |
\*---------------------------------------------------------------------------*/
FoamFile
{
    format      ascii;
    class       volScalarField;
    location    "0.058";
    object      p;
}
// * * * * * * * * * * * * * * * * * * * * * * * * * * * * * * * * * * * * * //

dimensions      [0 2 -2 0 0 0 0];

internalField   nonuniform List<scalar> 
287084
(
1.72165
1.43655
1.37551
1.30804
1.23881
1.1868
1.13749
1.09198
1.04809
1.00426
0.961387
0.919241
0.876444
0.832732
0.788056
0.742728
0.697156
0.651359
0.605487
0.559782
0.514425
0.469761
0.425986
0.383464
0.341967
0.302429
0.267438
0.235995
0.20778
0.183059
0.160493
0.140358
0.121919
0.106084
0.0941618
0.0854391
0.0795066
0.0760372
0.0747196
0.0752624
0.0773836
0.0808
0.085234
0.0904523
0.0962094
0.102308
0.108522
0.11469
0.120585
0.125352
0.130212
0.137167
0.143294
0.145962
0.150134
0.156191
0.16051
0.162122
0.162794
0.163104
0.162694
0.16208
0.160957
0.159454
0.157359
0.154873
0.151931
0.148416
0.14444
0.139813
0.13534
0.131633
0.126707
0.119818
0.113408
0.107075
0.100595
0.0935751
0.0861753
0.0788949
0.0720577
0.0655655
0.0579112
0.0488516
0.0378762
0.0281632
0.0228963
0.0165864
0.00768359
0.00278963
1.58587
1.39493
1.34538
1.28786
1.22739
1.17912
1.13235
1.08822
1.04529
1.00215
0.959694
0.917532
0.874178
0.830036
0.785403
0.740159
0.694504
0.648532
0.602452
0.556509
0.510947
0.466032
0.422094
0.379577
0.337927
0.29881
0.265137
0.234334
0.204236
0.177226
0.153204
0.132447
0.115012
0.100631
0.0893668
0.0810772
0.0754742
0.0723147
0.0712899
0.0721196
0.074515
0.0781955
0.0828801
0.0883389
0.0943235
0.100634
0.107081
0.113512
0.119763
0.125709
0.131501
0.137393
0.142513
0.145909
0.149842
0.155116
0.158408
0.160106
0.161479
0.162193
0.162154
0.161725
0.160765
0.159225
0.157375
0.154914
0.151796
0.14842
0.14456
0.140454
0.135739
0.131128
0.126446
0.120385
0.113763
0.107352
0.101104
0.0939762
0.0864186
0.0791122
0.0715801
0.0638236
0.0559673
0.0478226
0.0399266
0.0324487
0.0240019
0.0165063
0.00920718
0.00327146
1.55972
1.38825
1.33789
1.28213
1.22393
1.17587
1.12936
1.08522
1.0421
0.999195
0.956525
0.913672
0.870185
0.82595
0.781002
0.73543
0.689367
0.642953
0.596408
0.549967
0.503913
0.458574
0.414238
0.371373
0.33025
0.291348
0.255412
0.222658
0.192924
0.166102
0.142762
0.122503
0.105253
0.0912533
0.0804152
0.0725653
0.0674738
0.0648335
0.0643533
0.065728
0.0686598
0.0728607
0.0780556
0.0839915
0.0904303
0.0971703
0.10402
0.110839
0.117439
0.123751
0.129668
0.135327
0.140746
0.145364
0.149581
0.153744
0.156838
0.159056
0.160518
0.16133
0.161578
0.161229
0.160307
0.158871
0.156886
0.154591
0.151754
0.148288
0.144463
0.140296
0.135533
0.130733
0.12582
0.119962
0.113738
0.107542
0.101033
0.0943064
0.0873642
0.0800527
0.0726635
0.06494
0.0568268
0.0488498
0.0408206
0.0328165
0.0248689
0.0164507
0.00798704
0.00244311
1.51264
1.35416
1.30948
1.25931
1.20689
1.16254
1.11895
1.07677
1.03497
0.992984
0.950667
0.907785
0.864121
0.819589
0.774306
0.728265
0.681651
0.634613
0.587371
0.540208
0.493411
0.447318
0.402319
0.358789
0.317098
0.277809
0.24151
0.208148
0.177863
0.150876
0.127252
0.107036
0.0902642
0.0769321
0.0668177
0.05976
0.0554579
0.0536529
0.0540087
0.0562218
0.0599677
0.0649552
0.0708991
0.0775476
0.0846539
0.0920164
0.0994497
0.1068
0.113933
0.120745
0.127193
0.133238
0.13882
0.143682
0.147993
0.151966
0.155207
0.157607
0.159292
0.160326
0.160681
0.160483
0.159742
0.158385
0.156594
0.154273
0.15132
0.148017
0.144283
0.140074
0.135488
0.130606
0.125433
0.119749
0.113731
0.107463
0.100954
0.0942411
0.0872533
0.0800912
0.0727111
0.06501
0.0573237
0.0495108
0.0414161
0.0333411
0.0250972
0.0165662
0.00819316
0.00274892
1.48976
1.33941
1.29734
1.24901
1.19863
1.15508
1.11209
1.07015
1.02844
0.986418
0.943928
0.90072
0.856639
0.81162
0.765715
0.718967
0.671562
0.62362
0.575451
0.527281
0.479467
0.432385
0.386392
0.341982
0.299503
0.259472
0.222304
0.188294
0.157619
0.130435
0.106981
0.0871851
0.070999
0.0583683
0.0491038
0.0429708
0.0396912
0.0389411
0.0403792
0.0436724
0.048487
0.0545123
0.061452
0.0690368
0.0770228
0.0852022
0.093395
0.101445
0.109213
0.116617
0.123562
0.130005
0.135914
0.141182
0.145843
0.14993
0.153257
0.155857
0.157757
0.158988
0.159586
0.159551
0.158898
0.157698
0.155926
0.153646
0.150923
0.14768
0.143991
0.139873
0.135344
0.130465
0.125266
0.119641
0.113664
0.107447
0.10099
0.0942714
0.0873349
0.0801465
0.0727671
0.065231
0.0575279
0.0497174
0.0417568
0.0336995
0.0253887
0.0167201
0.0081055
0.00259962
1.46581
1.31736
1.27707
1.23111
1.18334
1.14184
1.10059
1.05991
1.01903
0.977507
0.935138
0.891752
0.847309
0.80171
0.755106
0.707493
0.659085
0.610074
0.560701
0.5113
0.46221
0.413831
0.366618
0.320998
0.277477
0.236477
0.198502
0.163815
0.132749
0.105455
0.0820886
0.062662
0.0471175
0.0353611
0.0271399
0.0222018
0.0201958
0.0207882
0.0235905
0.0282499
0.0343985
0.0417094
0.0498751
0.0586168
0.0676835
0.0768663
0.0859776
0.0948665
0.103409
0.111501
0.119071
0.126061
0.132438
0.138134
0.143141
0.147474
0.151092
0.153967
0.156108
0.157546
0.158311
0.158433
0.157949
0.156869
0.155238
0.153079
0.150375
0.147174
0.14354
0.139466
0.135
0.130156
0.124967
0.119409
0.113513
0.107338
0.100897
0.0942254
0.087312
0.0801795
0.0728699
0.0653622
0.0577062
0.0499442
0.0420049
0.0339422
0.0256369
0.0169468
0.00823803
0.00270236
1.44792
1.3019
1.2633
1.21861
1.1722
1.13154
1.0909
1.05054
1.00978
0.968174
0.925551
0.881737
0.836665
0.790304
0.742751
0.694049
0.644446
0.594065
0.543283
0.492362
0.441728
0.391821
0.343072
0.296053
0.251192
0.209063
0.170099
0.134692
0.103193
0.075764
0.0526128
0.0337061
0.0189793
0.00826326
0.00129013
-0.00224767
-0.00274144
-0.000563637
0.00385291
0.0101153
0.0178397
0.0266716
0.0362856
0.0463914
0.0567289
0.067083
0.0772737
0.0871491
0.0965782
0.105475
0.11376
0.121386
0.128311
0.134498
0.13994
0.144639
0.148561
0.151721
0.154135
0.155829
0.156822
0.157141
0.156825
0.155899
0.154389
0.15232
0.149736
0.146649
0.143096
0.139095
0.134679
0.129871
0.124706
0.119191
0.113348
0.107212
0.10081
0.0941573
0.0872766
0.0801798
0.0728947
0.0654286
0.057804
0.0500574
0.0421327
0.0340669
0.025724
0.0169947
0.00827215
0.00272773
1.43148
1.28589
1.24798
1.2044
1.15905
1.11933
1.07945
1.03964
0.999121
0.957533
0.914655
0.870341
0.824586
0.777314
0.728689
0.678734
0.6277
0.5758
0.523327
0.470673
0.418239
0.366512
0.316019
0.267299
0.220942
0.177466
0.137421
0.101222
0.0692425
0.0417226
0.0188084
0.000510507
-0.0132873
-0.0227825
-0.028294
-0.0301961
-0.0289191
-0.0249007
-0.0186128
-0.010488
-0.000948967
0.00962816
0.0209003
0.0325582
0.0443412
0.0560315
0.0674416
0.0784244
0.0888624
0.0986648
0.107759
0.116099
0.123659
0.130406
0.136338
0.141455
0.145761
0.149265
0.151983
0.153939
0.15517
0.1557
0.155568
0.154805
0.153434
0.151494
0.149018
0.146022
0.142548
0.138618
0.134267
0.129519
0.124402
0.118937
0.113143
0.107053
0.100688
0.0940704
0.0872186
0.0801542
0.0728994
0.0654702
0.0578797
0.0501508
0.0422331
0.0341502
0.0257667
0.0170229
0.00835071
0.00281416
1.41707
1.27212
1.23492
1.19198
1.14729
1.10805
1.06852
1.02881
0.988243
0.946378
0.903042
0.858064
0.811414
0.763085
0.713174
0.661765
0.609119
0.555416
0.501062
0.446398
0.391912
0.338147
0.285626
0.235036
0.186924
0.141963
0.100698
0.0636108
0.03116
0.0035359
-0.0190284
-0.0366091
-0.0493028
-0.0573882
-0.0612373
-0.0612731
-0.0580035
-0.0519098
-0.0435211
-0.0333122
-0.0217373
-0.00921277
0.0039019
0.0172942
0.0306813
0.0438464
0.0566076
0.0688154
0.0803591
0.0911528
0.101134
0.110269
0.118527
0.125895
0.132373
0.137975
0.142702
0.146576
0.149625
0.151878
0.153371
0.15413
0.1542
0.153608
0.152395
0.150589
0.148229
0.14534
0.141961
0.138114
0.13383
0.129141
0.124076
0.118661
0.112913
0.106866
0.100542
0.0939566
0.0871377
0.0801005
0.0728739
0.0654706
0.0578976
0.050186
0.0423023
0.0342436
0.0259488
0.0172275
0.00833906
0.00271468
1.40389
1.25913
1.22226
1.17974
1.13544
1.09655
1.05721
1.01755
0.976801
0.934585
0.890665
0.844876
0.79723
0.747669
0.696341
0.643307
0.588836
0.533179
0.476689
0.419825
0.363062
0.307
0.252269
0.199539
0.149536
0.102902
0.0603104
0.0223016
-0.0106877
-0.0383432
-0.0605294
-0.0772608
-0.088717
-0.0952179
-0.0971871
-0.0951455
-0.0896413
-0.0812477
-0.0705294
-0.0580228
-0.0442237
-0.0295659
-0.0144381
0.000830122
0.0159628
0.0307324
0.0449506
0.058485
0.071223
0.0830903
0.094033
0.104013
0.113025
0.121056
0.128122
0.134237
0.13942
0.143701
0.147111
0.149679
0.151445
0.152448
0.152731
0.152333
0.151281
0.149618
0.147384
0.144607
0.14132
0.137558
0.133351
0.12873
0.123725
0.118363
0.112663
0.106659
0.100373
0.0938255
0.0870385
0.0800342
0.0728336
0.0654581
0.05791
0.0502146
0.04232
0.0342779
0.0258947
0.0171042
0.0083697
0.00281091
1.39182
1.2472
1.21055
1.16829
1.12421
1.08542
1.04608
1.00624
0.965177
0.922448
0.877795
0.831094
0.782284
0.731371
0.678441
0.623618
0.567164
0.509318
0.450528
0.391218
0.331962
0.273416
0.216228
0.161235
0.109116
0.060714
0.0166909
-0.0223266
-0.0558118
-0.0835088
-0.105182
-0.120957
-0.131006
-0.135737
-0.135648
-0.131318
-0.123391
-0.112495
-0.0992692
-0.0842881
-0.0680876
-0.0511435
-0.0338602
-0.016579
0.000408231
0.0168762
0.0326489
0.0475809
0.0615797
0.0745753
0.0865274
0.0974122
0.107219
0.115959
0.123648
0.130314
0.135979
0.140684
0.14447
0.147368
0.149426
0.150683
0.151193
0.150989
0.150112
0.1486
0.146497
0.143834
0.140652
0.136981
0.132851
0.1283
0.123355
0.118046
0.112396
0.106438
0.100189
0.0936743
0.0869228
0.0799453
0.0727705
0.065419
0.057884
0.0502031
0.042333
0.0342911
0.025939
0.0171703
0.00838431
0.00280934
1.38065
1.23608
1.19954
1.15738
1.11334
1.07454
1.03505
0.994957
0.953426
0.910044
0.864577
0.816811
0.766749
0.714332
0.659695
0.602934
0.544327
0.484171
0.422873
0.360981
0.29904
0.237809
0.178034
0.12055
0.0662351
0.0159099
-0.0296093
-0.0696497
-0.10367
-0.131309
-0.152437
-0.167121
-0.175634
-0.178439
-0.176103
-0.169313
-0.158769
-0.145201
-0.129289
-0.111681
-0.0929518
-0.073596
-0.054051
-0.0346701
-0.0157421
0.00250314
0.0198848
0.0362809
0.0515967
0.0657708
0.0787712
0.0905877
0.101224
0.110691
0.119023
0.126253
0.132423
0.137571
0.141742
0.144984
0.147345
0.148867
0.149606
0.149606
0.148903
0.147547
0.145579
0.143038
0.139961
0.13638
0.132332
0.127848
0.122967
0.117716
0.112116
0.106201
0.0999891
0.0935147
0.0867952
0.0798481
0.072697
0.0653592
0.0578514
0.0501848
0.0423187
0.0342946
0.025962
0.017185
0.00837291
0.00279362
1.37031
1.22574
1.18921
1.14709
1.103
1.06404
1.02431
0.983805
0.941721
0.897616
0.851186
0.802297
0.750851
0.696848
0.640368
0.58156
0.520679
0.458041
0.394128
0.329449
0.264707
0.200646
0.13811
0.0780689
0.0214
-0.030888
-0.0779648
-0.119053
-0.153545
-0.18112
-0.201564
-0.215062
-0.221891
-0.222617
-0.217897
-0.208493
-0.19521
-0.178837
-0.160134
-0.139792
-0.118431
-0.0965848
-0.0747026
-0.053153
-0.0322277
-0.0121617
0.00687734
0.0247635
0.0414185
0.0567927
0.0708641
0.0836319
0.0951095
0.105329
0.114323
0.122136
0.128813
0.134409
0.138976
0.142565
0.145231
0.147019
0.147991
0.148194
0.147676
0.146477
0.14465
0.142229
0.139254
0.135768
0.131802
0.127396
0.122576
0.117377
0.111831
0.10596
0.0997902
0.0933445
0.0866527
0.0797361
0.0726119
0.0653
0.0578026
0.0501527
0.0423043
0.0342817
0.025928
0.0171566
0.00839105
0.00283713
1.36072
1.21612
1.17955
1.13739
1.09311
1.05396
1.01387
0.972901
0.930183
0.885254
0.83783
0.787696
0.734819
0.679126
0.62075
0.559793
0.496552
0.431359
0.364695
0.297185
0.229481
0.162512
0.0971295
0.0343998
-0.0246474
-0.0789775
-0.127614
-0.169731
-0.204689
-0.232093
-0.251812
-0.264005
-0.269059
-0.267602
-0.260378
-0.248261
-0.23213
-0.212865
-0.191287
-0.168149
-0.14411
-0.119728
-0.0954758
-0.0717295
-0.0487915
-0.0268855
-0.00617893
0.0132147
0.0312214
0.0478033
0.0629491
0.0766737
0.0890017
0.099968
0.109621
0.118012
0.125204
0.131252
0.136211
0.140145
0.143113
0.145171
0.146381
0.146789
0.146447
0.145408
0.143718
0.141419
0.138551
0.135156
0.131272
0.126937
0.122182
0.117038
0.111541
0.105711
0.0995783
0.0931744
0.0865125
0.0796185
0.0725186
0.0652213
0.057742
0.050103
0.0422559
0.0342528
0.025892
0.0171238
0.00838941
0.00284509
1.35186
1.20722
1.17056
1.1283
1.08385
1.04438
1.00391
0.962379
0.91896
0.873153
0.824663
0.773271
0.71889
0.661481
0.601126
0.537982
0.47231
0.404492
0.335048
0.264587
0.193929
0.123952
0.0556892
-0.00973543
-0.0712122
-0.127554
-0.177745
-0.220855
-0.256202
-0.283396
-0.302282
-0.313105
-0.316287
-0.312564
-0.302777
-0.287887
-0.268874
-0.246692
-0.222223
-0.196274
-0.169552
-0.142636
-0.116018
-0.0900899
-0.0651483
-0.0414205
-0.019062
0.00182077
0.0211628
0.038941
0.0551494
0.0698146
0.0829764
0.0946834
0.104986
0.113953
0.121646
0.128138
0.13349
0.137768
0.141041
0.143361
0.144796
0.145404
0.145241
0.144356
0.1428
0.140618
0.137852
0.134551
0.13075
0.126486
0.121791
0.116702
0.111253
0.105466
0.099374
0.0929969
0.0863646
0.0795021
0.0724229
0.0651514
0.0576872
0.0500687
0.0422349
0.034233
0.0258822
0.0171229
0.00839798
0.00285279
1.3437
1.19902
1.16225
1.11984
1.07512
1.03535
0.994416
0.952338
0.908179
0.861471
0.811892
0.759201
0.703307
0.644157
0.581838
0.51648
0.448391
0.377945
0.305688
0.232329
0.158649
0.0857208
0.0145596
-0.0535507
-0.117412
-0.175743
-0.227423
-0.271475
-0.307153
-0.334054
-0.352062
-0.361445
-0.362723
-0.356714
-0.34435
-0.326693
-0.304809
-0.279728
-0.252403
-0.223693
-0.194331
-0.164934
-0.136006
-0.10794
-0.0810435
-0.0555351
-0.0315651
-0.00923078
0.0114094
0.0303456
0.0475902
0.063172
0.0771451
0.0895662
0.100506
0.11003
0.118211
0.125131
0.130857
0.135463
0.139019
0.141595
0.14326
0.144065
0.14407
0.143337
0.141913
0.139846
0.137183
0.133968
0.130241
0.126047
0.121416
0.116378
0.11097
0.105222
0.0991664
0.0928238
0.0862195
0.0793781
0.0723216
0.065063
0.0576141
0.050002
0.0421802
0.0341894
0.0258639
0.0171114
0.00838455
0.00285559
1.33625
1.19153
1.15465
1.11205
1.06709
1.02696
0.985579
0.942885
0.897978
0.850353
0.799701
0.745723
0.688338
0.627463
0.563192
0.495669
0.425173
0.352144
0.277141
0.200888
0.124307
0.0484345
-0.0255157
-0.0962426
-0.162403
-0.222627
-0.275724
-0.320614
-0.356555
-0.383097
-0.400176
-0.4081
-0.40747
-0.399188
-0.38429
-0.363926
-0.339252
-0.311366
-0.281284
-0.249906
-0.21801
-0.186227
-0.155076
-0.124966
-0.096197
-0.068988
-0.0434811
-0.0197608
0.00211807
0.0221593
0.0403874
0.056842
0.0715821
0.0846911
0.0962321
0.106287
0.114937
0.122262
0.128348
0.133274
0.137109
0.139927
0.141802
0.14279
0.142958
0.142366
0.141067
0.139109
0.136543
0.133413
0.129762
0.125632
0.121053
0.116066
0.110702
0.104994
0.0989745
0.0926611
0.0860835
0.0792656
0.0722252
0.0649916
0.0575564
0.0499706
0.0421544
0.0341639
0.0258194
0.0170742
0.0083972
0.00286811
1.32956
1.18476
1.14775
1.10499
1.05972
1.01927
0.977376
0.934132
0.888513
0.839997
0.788273
0.733059
0.67421
0.611691
0.545543
0.475923
0.403143
0.327621
0.249969
0.170971
0.0915592
0.0129259
-0.0637356
-0.136915
-0.20526
-0.267254
-0.321637
-0.367288
-0.403393
-0.429543
-0.445665
-0.452149
-0.449661
-0.439195
-0.421873
-0.39893
-0.371605
-0.341061
-0.308368
-0.274477
-0.240188
-0.206159
-0.172925
-0.140894
-0.110369
-0.081564
-0.0546126
-0.0295992
-0.0065597
0.0145163
0.0336642
0.0509364
0.0664062
0.0801467
0.092248
0.102799
0.111881
0.119588
0.12601
0.131226
0.135318
0.138363
0.140435
0.141597
0.141918
0.141464
0.14028
0.138423
0.135948
0.132899
0.129314
0.12524
0.120716
0.115773
0.110451
0.104778
0.0987862
0.0924986
0.0859435
0.0791461
0.0721249
0.0649071
0.0574858
0.0499056
0.0421009
0.0341414
0.0258269
0.0171148
0.00837628
0.00281102
1.32362
1.17875
1.14159
1.09867
1.05315
1.01233
0.970013
0.926217
0.879862
0.83052
0.777804
0.721406
0.66121
0.597117
0.52921
0.457624
0.38267
0.304828
0.224694
0.143108
0.0610953
-0.0201668
-0.0992851
-0.174775
-0.245097
-0.308695
-0.364235
-0.4105
-0.446722
-0.472417
-0.487612
-0.492705
-0.488459
-0.475932
-0.456345
-0.431008
-0.40123
-0.368239
-0.33315
-0.296951
-0.260471
-0.224388
-0.189244
-0.155455
-0.123322
-0.0930542
-0.0647885
-0.0385893
-0.0144869
0.00753465
0.0275201
0.0455387
0.0616614
0.0759911
0.0886093
0.0996109
0.109092
0.117146
0.123875
0.129362
0.133691
0.136942
0.139195
0.140515
0.140974
0.140636
0.139562
0.137797
0.135403
0.132425
0.128904
0.124885
0.120407
0.115508
0.110222
0.10458
0.0986183
0.0923592
0.0858289
0.0790495
0.0720437
0.0648434
0.0574349
0.0498766
0.0420883
0.0341244
0.0258309
0.0170715
0.00834706
0.00283042
1.31843
1.17354
1.13628
1.09315
1.04737
1.00622
0.963496
0.919168
0.872208
0.822087
0.76845
0.710986
0.649536
0.584033
0.51452
0.441143
0.364247
0.284258
0.201885
0.117955
0.0335464
-0.0500344
-0.131432
-0.208938
-0.281056
-0.346053
-0.402572
-0.449373
-0.485611
-0.51087
-0.525165
-0.528972
-0.523117
-0.508731
-0.487105
-0.45962
-0.427648
-0.392461
-0.355226
-0.316961
-0.278523
-0.240604
-0.203758
-0.1684
-0.134834
-0.10327
-0.0738272
-0.0465771
-0.0215332
0.00133231
0.0220763
0.04076
0.0574695
0.072306
0.0853746
0.0967764
0.106611
0.114978
0.121976
0.1277
0.132239
0.135674
0.138087
0.13955
0.140131
0.139904
0.13892
0.137242
0.134922
0.132005
0.128538
0.124564
0.12013
0.115267
0.110017
0.104404
0.0984632
0.0922228
0.0857092
0.0789479
0.0719579
0.0647677
0.0573719
0.0498137
0.0420322
0.0340809
0.0257833
0.0170494
0.00834418
0.00284284
1.31411
1.16912
1.13171
1.0885
1.04246
1.00105
0.957904
0.913159
0.865636
0.814834
0.76039
0.701979
0.639446
0.572682
0.501762
0.426816
0.348176
0.266344
0.181999
0.0960231
0.00955654
-0.0760997
-0.159416
-0.238704
-0.312338
-0.378522
-0.435859
-0.483041
-0.519284
-0.544095
-0.557582
-0.560248
-0.55297
-0.536957
-0.513557
-0.484208
-0.450337
-0.413265
-0.374187
-0.334152
-0.29403
-0.254539
-0.216228
-0.179526
-0.144731
-0.112045
-0.0815994
-0.0534436
-0.0275901
-0.00400325
0.0173741
0.0366269
0.0538449
0.0691346
0.082595
0.0943421
0.104481
0.113116
0.12035
0.126277
0.130998
0.134589
0.137142
0.138725
0.139414
0.139277
0.138374
0.136763
0.134509
0.131649
0.128228
0.124297
0.119897
0.115067
0.109839
0.104252
0.0983382
0.0921191
0.0856234
0.0788743
0.0718983
0.0647195
0.0573318
0.0497952
0.0420156
0.0340678
0.0257804
0.0170471
0.00834805
0.0028389
1.31058
1.16557
1.12807
1.0847
1.03849
0.996819
0.953396
0.90824
0.860227
0.808843
0.753748
0.694553
0.631103
0.56331
0.491211
0.414955
0.334903
0.2515
0.165519
0.0778299
-0.0103714
-0.0976972
-0.182654
-0.263353
-0.338261
-0.405381
-0.463338
-0.510838
-0.547022
-0.571454
-0.584247
-0.585939
-0.577485
-0.560126
-0.535266
-0.504389
-0.468963
-0.430335
-0.389742
-0.348247
-0.306746
-0.26596
-0.226451
-0.188644
-0.15284
-0.119243
-0.0879626
-0.0590649
-0.0325471
-0.00836833
0.0135392
0.0332627
0.0508978
0.0665429
0.0803229
0.092351
0.10274
0.111594
0.119018
0.125114
0.129978
0.1337
0.136364
0.138047
0.138818
0.138756
0.137921
0.136371
0.134162
0.131346
0.127966
0.124069
0.119704
0.114898
0.109696
0.104127
0.0982255
0.092021
0.0855358
0.0788013
0.0718341
0.0646604
0.057285
0.049745
0.0419741
0.0340172
0.0257314
0.0170218
0.00834742
0.00285574
1.30792
1.16287
1.12529
1.08184
1.03545
0.993627
0.94991
0.904492
0.856121
0.804301
0.748661
0.688859
0.624703
0.556087
0.483076
0.405812
0.324628
0.240042
0.152793
0.0637917
-0.0257297
-0.114368
-0.200559
-0.282353
-0.358278
-0.426022
-0.484434
-0.532147
-0.568302
-0.592406
-0.604647
-0.6056
-0.596225
-0.577828
-0.551843
-0.519793
-0.483173
-0.443366
-0.401616
-0.359011
-0.316457
-0.274687
-0.234263
-0.195613
-0.159036
-0.12474
-0.0928345
-0.0633673
-0.0363418
-0.0117083
0.0105999
0.030681
0.0486319
0.0645593
0.0785836
0.0908304
0.101405
0.110423
0.117997
0.124221
0.1292
0.133019
0.135772
0.137527
0.138367
0.138364
0.13758
0.136071
0.133904
0.131122
0.12777
0.123902
0.119554
0.114769
0.109583
0.104031
0.0981432
0.0919496
0.08548
0.078754
0.0717991
0.0646359
0.0572641
0.0497357
0.0419638
0.0340206
0.0257209
0.0169905
0.00834793
0.00286875
1.30614
1.16106
1.12342
1.0799
1.03342
0.991446
0.947583
0.901952
0.853329
0.8012
0.745218
0.684997
0.620355
0.55121
0.477574
0.399613
0.317689
0.232274
0.144151
0.0542517
-0.0361956
-0.125695
-0.212772
-0.29528
-0.371969
-0.440157
-0.498621
-0.546484
-0.582674
-0.606568
-0.618442
-0.618872
-0.608884
-0.589782
-0.56304
-0.530197
-0.492774
-0.452165
-0.409633
-0.366278
-0.323014
-0.280577
-0.239533
-0.200315
-0.16322
-0.12845
-0.0961179
-0.0662695
-0.0388981
-0.0139632
0.00861626
0.0289369
0.0470982
0.0632121
0.0774065
0.0897975
0.100506
0.109639
0.117312
0.123622
0.128675
0.132565
0.135376
0.137185
0.138065
0.138096
0.137343
0.135869
0.133724
0.130962
0.127634
0.123782
0.119453
0.114683
0.109509
0.103964
0.098084
0.091904
0.0854357
0.0787144
0.0717639
0.0646035
0.0572402
0.0497103
0.0419563
0.0340166
0.0257697
0.0170726
0.00831261
0.0028001
1.30524
1.16016
1.12249
1.07894
1.0324
0.990362
0.946425
0.900682
0.851918
0.799666
0.743484
0.683047
0.618167
0.548722
0.474773
0.396465
0.314143
0.228328
0.139771
0.0494252
-0.0414667
-0.131432
-0.218901
-0.301848
-0.378873
-0.447346
-0.505738
-0.553703
-0.589934
-0.613692
-0.625378
-0.625556
-0.615246
-0.595791
-0.568665
-0.535424
-0.497597
-0.456588
-0.413667
-0.369939
-0.326316
-0.283542
-0.242188
-0.202681
-0.165323
-0.130317
-0.0977716
-0.0677306
-0.040189
-0.0150936
0.00762623
0.0280676
0.0463343
0.0625417
0.0768174
0.0892823
0.100051
0.10924
0.116965
0.123319
0.128411
0.13233
0.135168
0.136999
0.137907
0.13796
0.137226
0.135764
0.133635
0.130888
0.127566
0.123724
0.1194
0.114637
0.109466
0.10393
0.0980581
0.0918756
0.0854146
0.0786973
0.0717532
0.0645998
0.0572355
0.0497115
0.0419504
0.0340132
0.0257468
0.0170054
0.00831256
0.00283231
1.30524
1.16016
1.12249
1.07894
1.03241
0.990356
0.94642
0.900679
0.851926
0.79967
0.743485
0.683058
0.618168
0.548741
0.474788
0.396481
0.314168
0.228339
0.139786
0.0494376
-0.0414586
-0.131418
-0.218895
-0.301832
-0.378854
-0.447329
-0.505712
-0.553684
-0.589909
-0.613672
-0.625355
-0.625531
-0.615224
-0.595769
-0.568645
-0.535402
-0.497575
-0.456566
-0.413647
-0.36992
-0.326298
-0.283528
-0.242174
-0.202671
-0.165315
-0.130311
-0.0977654
-0.0677217
-0.04018
-0.0150913
0.00762276
0.0280607
0.0463305
0.0625383
0.0768159
0.089279
0.10005
0.109242
0.116965
0.123317
0.128411
0.132336
0.135174
0.137006
0.137911
0.137963
0.137224
0.135761
0.13363
0.130881
0.127563
0.123721
0.119401
0.114636
0.109467
0.103929
0.0980535
0.0918733
0.0854097
0.0786937
0.071746
0.0645895
0.0572326
0.0497033
0.0419443
0.0340067
0.0257205
0.0170025
0.00833217
0.00284631
1.30614
1.16107
1.12343
1.07992
1.03344
0.991453
0.94761
0.901962
0.853337
0.80123
0.745243
0.685008
0.620376
0.551215
0.477579
0.399632
0.317692
0.232296
0.144173
0.0542939
-0.0361472
-0.12565
-0.212706
-0.295223
-0.371915
-0.44009
-0.49853
-0.546419
-0.582601
-0.606492
-0.618365
-0.618803
-0.608817
-0.589721
-0.56298
-0.530139
-0.492716
-0.452112
-0.409587
-0.366238
-0.322979
-0.280542
-0.239502
-0.200285
-0.163194
-0.128429
-0.0960974
-0.0662501
-0.0388831
-0.0139461
0.00863461
0.0289587
0.0471207
0.0632275
0.0774165
0.0898051
0.100508
0.109637
0.11731
0.123621
0.128674
0.132561
0.135368
0.137171
0.138057
0.138091
0.13734
0.135862
0.133719
0.130959
0.127627
0.123777
0.119445
0.114674
0.109498
0.103956
0.0980815
0.0918939
0.0854285
0.0787082
0.0717598
0.0646029
0.057237
0.0497152
0.0419528
0.0340167
0.0257393
0.0169997
0.00831063
0.00283483
1.30793
1.16288
1.12531
1.08184
1.03548
0.993614
0.949946
0.904505
0.856121
0.804333
0.748685
0.688889
0.624726
0.556127
0.483117
0.405853
0.324687
0.240092
0.15285
0.0638547
-0.0256705
-0.114286
-0.20049
-0.282259
-0.358184
-0.425907
-0.484312
-0.532039
-0.568176
-0.592291
-0.604526
-0.605482
-0.59611
-0.577717
-0.551739
-0.519694
-0.483081
-0.44328
-0.401536
-0.358938
-0.31639
-0.274626
-0.234207
-0.195563
-0.158991
-0.1247
-0.0927994
-0.0633374
-0.0363159
-0.0116867
0.0106177
0.0306938
0.048641
0.0645622
0.0785859
0.0908293
0.101407
0.110427
0.118001
0.124223
0.129201
0.133023
0.13577
0.137526
0.138369
0.138362
0.137571
0.136064
0.133892
0.131108
0.127762
0.123891
0.119545
0.114758
0.109571
0.104017
0.0981278
0.0919361
0.0854633
0.078739
0.0717879
0.0646209
0.0572552
0.0497215
0.0419665
0.0340269
0.025768
0.0170561
0.00831847
0.00282178
1.31059
1.16559
1.12808
1.08472
1.03851
0.996829
0.953413
0.908259
0.860265
0.808901
0.753795
0.69459
0.631148
0.563356
0.491252
0.415015
0.334943
0.251573
0.165588
0.0779167
-0.0102687
-0.0975992
-0.182525
-0.263242
-0.338111
-0.405247
-0.46318
-0.510672
-0.546853
-0.571287
-0.584082
-0.585779
-0.577332
-0.559978
-0.535124
-0.504255
-0.468834
-0.43022
-0.389638
-0.348148
-0.306655
-0.265875
-0.226375
-0.188574
-0.152779
-0.119191
-0.0879175
-0.0590255
-0.0325129
-0.00833675
0.013564
0.0332852
0.0509176
0.0665588
0.0803345
0.0923586
0.102743
0.111596
0.119022
0.125116
0.129977
0.133697
0.13636
0.13804
0.138814
0.138748
0.137913
0.13636
0.134149
0.131335
0.127954
0.124058
0.119685
0.11488
0.109678
0.104112
0.0982112
0.0920033
0.0855221
0.0787866
0.0718228
0.0646538
0.0572778
0.0497455
0.0419704
0.034034
0.0257432
0.0170086
0.00832641
0.0028427
1.31411
1.16914
1.13176
1.0885
1.04249
1.00104
0.957953
0.913185
0.865655
0.814885
0.760435
0.702031
0.639495
0.572743
0.501827
0.426885
0.348273
0.26643
0.182098
0.0961329
0.00966616
-0.0759568
-0.159285
-0.238541
-0.312167
-0.378342
-0.435656
-0.482854
-0.519066
-0.543897
-0.557371
-0.560045
-0.552771
-0.536767
-0.513379
-0.484044
-0.450184
-0.413122
-0.374053
-0.334027
-0.293912
-0.254431
-0.216131
-0.179437
-0.144651
-0.111978
-0.0815393
-0.0533926
-0.0275456
-0.00396288
0.01741
0.0366556
0.0538671
0.0691446
0.0826005
0.094346
0.104482
0.113118
0.120357
0.126286
0.131001
0.134591
0.137138
0.138721
0.139412
0.139272
0.138363
0.136753
0.134491
0.131627
0.128211
0.12428
0.11988
0.115048
0.10982
0.104229
0.0983098
0.092088
0.0855927
0.0788487
0.0718746
0.0646925
0.0573103
0.0497665
0.0419985
0.0340505
0.0257768
0.0170628
0.00833164
0.00282016
1.31846
1.17357
1.1363
1.09318
1.04739
1.00625
0.963525
0.91921
0.872246
0.822139
0.76851
0.711042
0.649607
0.584112
0.514596
0.441237
0.364328
0.284364
0.201999
0.118079
0.0337061
-0.0498957
-0.131241
-0.208775
-0.280843
-0.345852
-0.402347
-0.449138
-0.485376
-0.510628
-0.524931
-0.528736
-0.522888
-0.508509
-0.486893
-0.459422
-0.427458
-0.392285
-0.355064
-0.316807
-0.278381
-0.240474
-0.203641
-0.168296
-0.134742
-0.103188
-0.0737567
-0.0465192
-0.0214843
0.00137238
0.0221002
0.0407806
0.05749
0.0723243
0.0853878
0.0967862
0.106619
0.114986
0.121988
0.127708
0.13224
0.135672
0.138085
0.139543
0.140126
0.139892
0.138911
0.137229
0.134903
0.131986
0.128519
0.124547
0.120107
0.115243
0.109989
0.10438
0.0984391
0.0921969
0.0856833
0.0789218
0.0719328
0.0647467
0.057352
0.0497994
0.0420061
0.0340498
0.025725
0.0169928
0.00836046
0.00286797
1.32364
1.17878
1.14163
1.0987
1.05317
1.01234
0.970036
0.926228
0.879927
0.830596
0.777869
0.721483
0.661285
0.597206
0.529311
0.457723
0.382795
0.304947
0.224837
0.143272
0.0612534
-0.0199728
-0.0991008
-0.174559
-0.244873
-0.308464
-0.363976
-0.410254
-0.446446
-0.472156
-0.487339
-0.492434
-0.488193
-0.47568
-0.456107
-0.430786
-0.401024
-0.368047
-0.332968
-0.296783
-0.260311
-0.224244
-0.189113
-0.155336
-0.123212
-0.0929553
-0.0647019
-0.0385181
-0.0144266
0.00759172
0.0275713
0.0455804
0.0617006
0.0760149
0.0886193
0.0996148
0.10909
0.11715
0.123879
0.129363
0.133688
0.136938
0.139186
0.140506
0.14097
0.140631
0.139549
0.137787
0.135387
0.132403
0.12888
0.124858
0.120378
0.115477
0.110192
0.104547
0.0985805
0.0923168
0.0857853
0.0790077
0.0720039
0.0648012
0.0573965
0.0498334
0.0420336
0.0340663
0.0257285
0.0169945
0.00836846
0.00288079
1.32961
1.18479
1.14775
1.10504
1.05977
1.0193
0.97743
0.934143
0.888553
0.840089
0.788355
0.733133
0.674306
0.611788
0.545648
0.476039
0.403264
0.32775
0.250125
0.171119
0.0917596
0.013098
-0.0635031
-0.136707
-0.205005
-0.267002
-0.321364
-0.367
-0.403109
-0.429245
-0.445377
-0.451857
-0.449384
-0.438919
-0.421608
-0.398681
-0.371365
-0.340835
-0.308161
-0.274284
-0.240012
-0.205997
-0.172778
-0.140759
-0.110248
-0.0814518
-0.0545167
-0.0295198
-0.00648785
0.0145778
0.0337123
0.0509743
0.0664332
0.0801673
0.0922622
0.102809
0.11189
0.119595
0.126014
0.131225
0.135316
0.138358
0.140429
0.141589
0.141911
0.141451
0.140267
0.138407
0.135929
0.132877
0.129289
0.125213
0.120682
0.115738
0.110414
0.104742
0.098745
0.0924567
0.0859004
0.0791053
0.0720843
0.0648682
0.0574509
0.0498749
0.0420736
0.0341015
0.0258082
0.017091
0.00835936
0.00282921
1.33628
1.19157
1.15468
1.1121
1.06712
1.02701
0.985599
0.942927
0.89804
0.850456
0.799778
0.745822
0.688428
0.627567
0.563315
0.49579
0.425322
0.352301
0.277306
0.201083
0.124501
0.0486546
-0.0252838
-0.0959996
-0.162133
-0.222359
-0.275427
-0.320321
-0.356243
-0.382785
-0.399865
-0.407788
-0.40717
-0.398898
-0.384012
-0.363661
-0.339
-0.311132
-0.281064
-0.249705
-0.217818
-0.186055
-0.154922
-0.124825
-0.0960651
-0.0688668
-0.0433736
-0.0196677
0.00220223
0.0222331
0.0404473
0.0568934
0.0716239
0.0847172
0.0962496
0.1063
0.114941
0.122264
0.128347
0.133269
0.137102
0.139919
0.141795
0.142781
0.142948
0.142359
0.141056
0.139094
0.136524
0.133388
0.129731
0.125598
0.121016
0.116026
0.110657
0.104945
0.0989191
0.0926038
0.0860261
0.0792062
0.0721666
0.0649333
0.0574989
0.0499114
0.0421
0.0341176
0.0258077
0.0170375
0.0083513
0.00285694
1.34375
1.19906
1.16228
1.1199
1.07517
1.0354
0.994467
0.952391
0.90824
0.861543
0.811978
0.759301
0.703412
0.644276
0.581963
0.516622
0.44854
0.378093
0.30588
0.232494
0.158881
0.0859196
0.0148125
-0.053304
-0.117132
-0.175459
-0.227121
-0.271157
-0.306832
-0.333721
-0.351738
-0.361118
-0.362415
-0.356402
-0.344053
-0.326408
-0.304539
-0.279478
-0.252171
-0.223478
-0.194133
-0.164752
-0.13584
-0.107782
-0.0808978
-0.0554006
-0.0314457
-0.00912965
0.0115025
0.0304235
0.0476516
0.0632207
0.077181
0.0895961
0.100527
0.110043
0.118224
0.125136
0.130855
0.135458
0.139013
0.141586
0.143247
0.14405
0.144058