/*--------------------------------*- C++ -*----------------------------------*\
  =========                 |
  \\      /  F ield         | OpenFOAM: The Open Source CFD Toolbox
   \\    /   O peration     | Website:  https://openfoam.org
    \\  /    A nd           | Version:  11
     \\/     M anipulation  |
\*---------------------------------------------------------------------------*/
FoamFile
{
    format      ascii;
    class       volScalarField;
    location    "0.036";
    object      k;
}
// * * * * * * * * * * * * * * * * * * * * * * * * * * * * * * * * * * * * * //

dimensions      [0 2 -2 0 0 0 0];

internalField   nonuniform List<scalar> 
287084
(
0.382557
0.395441
0.402464
0.405024
0.40537
0.405358
0.405353
0.405201
0.405301
0.40547
0.405468
0.405463
0.405331
0.405234
0.405281
0.405256
0.405403
0.405602
0.405436
0.405542
0.405622
0.405489
0.405487
0.405489
0.405484
0.405359
0.405419
0.405553
0.405497
0.405333
0.405289
0.405337
0.405139
0.405159
0.405336
0.405376
0.405348
0.405272
0.405258
0.405094
0.405189
0.405316
0.405061
0.405098
0.405248
0.40506
0.405025
0.405243
0.40531
0.405216
0.405217
0.405218
0.405209
0.405201
0.405028
0.405118
0.405247
0.405222
0.405201
0.405159
0.405221
0.405074
0.405153
0.405319
0.405298
0.405293
0.405086
0.40518
0.405308
0.405259
0.405267
0.40517
0.405251
0.405379
0.405391
0.405368
0.405357
0.405182
0.405236
0.405372
0.405337
0.405297
0.405165
0.40509
0.405063
0.404961
0.405074
0.405243
0.405218
0.405134
0.38259
0.395307
0.402391
0.405038
0.405421
0.405401
0.405418
0.40537
0.405411
0.405427
0.405385
0.405225
0.40526
0.405372
0.405127
0.405138
0.405294
0.405295
0.405221
0.405276
0.405546
0.4055
0.40552
0.405583
0.405572
0.405416
0.405511
0.405604
0.405364
0.405433
0.4055
0.405233
0.405265
0.405412
0.405231
0.405184
0.405263
0.405223
0.405354
0.405431
0.405393
0.405359
0.405211
0.405321
0.405389
0.405325
0.405152
0.405101
0.405146
0.405038
0.40499
0.405143
0.405276
0.405231
0.40507
0.405139
0.405297
0.405086
0.405176
0.40531
0.405283
0.405254
0.405209
0.405237
0.405118
0.405212
0.405339
0.405302
0.405178
0.405191
0.405386
0.405454
0.405413
0.405165
0.405218
0.405381
0.405227
0.405306
0.40534
0.405252
0.405243
0.40524
0.405116
0.405156
0.405198
0.405158
0.405041
0.405051
0.405207
0.405003
0.382591
0.395297
0.402383
0.405004
0.405386
0.405542
0.405576
0.405362
0.405419
0.4056
0.405572
0.405576
0.405557
0.405431
0.405362
0.405469
0.40556
0.405509
0.405338
0.405291
0.405383
0.405378
0.405514
0.405635
0.405633
0.405632
0.40543
0.405495
0.405584
0.40534
0.405413
0.40558
0.405342
0.405405
0.405576
0.405355
0.405434
0.405601
0.405495
0.405495
0.405463
0.405378
0.405406
0.405447
0.405412
0.405318
0.405363
0.405422
0.405409
0.405404
0.405171
0.405216
0.405284
0.405099
0.4052
0.405329
0.405077
0.405131
0.405276
0.405243
0.405242
0.405162
0.405198
0.405145
0.405284
0.405383
0.405348
0.40524
0.405267
0.405351
0.405259
0.405244
0.405074
0.405164
0.405273
0.405048
0.405104
0.405323
0.40522
0.405208
0.405174
0.405291
0.405344
0.405128
0.405206
0.405317
0.405071
0.405141
0.405241
0.404991
0.382582
0.395323
0.40231
0.405035
0.405557
0.405709
0.40568
0.40565
0.405609
0.40562
0.405633
0.405604
0.4056
0.405458
0.405554
0.405615
0.405559
0.405366
0.405337
0.405471
0.405434
0.405435
0.405395
0.405422
0.405364
0.405322
0.405204
0.405241
0.405539
0.405569
0.40551
0.405281
0.405265
0.405381
0.405197
0.405193
0.405331
0.405216
0.405314
0.405479
0.405363
0.405352
0.405359
0.40535
0.405342
0.405294
0.405186
0.405134
0.405193
0.405272
0.405242
0.405232
0.405183
0.405015
0.405124
0.405309
0.405096
0.405182
0.405313
0.405276
0.40527
0.405112
0.405253
0.405415
0.405378
0.405394
0.405388
0.405367
0.405387
0.405392
0.405183
0.405254
0.405353
0.405161
0.405231
0.40544
0.405401
0.405434
0.405446
0.405399
0.40516
0.405196
0.40536
0.405336
0.405295
0.40508
0.405157
0.405262
0.405226
0.405116
0.382583
0.395319
0.402303
0.405058
0.405556
0.405545
0.40545
0.405514
0.405616
0.405415
0.405501
0.405559
0.405519
0.405515
0.405389
0.405425
0.405431
0.405394
0.405344
0.405344
0.405296
0.405444
0.405639
0.405506
0.405517
0.405506
0.405353
0.405416
0.405563
0.405393
0.405316
0.405335
0.405291
0.405429
0.405604
0.405417
0.405509
0.405571
0.405565
0.405561
0.405292
0.405332
0.405409
0.405408
0.405405
0.405161
0.405231
0.405322
0.405109
0.4052
0.405335
0.405078
0.405056
0.405184
0.40507
0.405165
0.405345
0.405231
0.405238
0.405229
0.405094
0.405162
0.405339
0.405106
0.405175
0.405319
0.405081
0.405097
0.40525
0.405099
0.405185
0.405364
0.405361
0.405359
0.405155
0.405248
0.405367
0.405208
0.40519
0.405186
0.405073
0.405161
0.405333
0.405134
0.405233
0.405343
0.405131
0.405227
0.405342
0.405071
0.382567
0.395357
0.402318
0.40485
0.405198
0.405034
0.405114
0.405408
0.405422
0.405363
0.405136
0.405153
0.405382
0.405274
0.405396
0.405552
0.405404
0.405398
0.405389
0.405404
0.405395
0.405254
0.405324
0.405478
0.405272
0.405229
0.40542
0.405481
0.405438
0.405305
0.405376
0.40558
0.405495
0.405485
0.405464
0.405286
0.405306
0.405407
0.405152
0.405165
0.405314
0.405127
0.40519
0.405371
0.405159
0.405228
0.405411
0.405283
0.405292
0.40528
0.405134
0.405175
0.405363
0.405367
0.405359
0.405235
0.40511
0.405199
0.405287
0.405251
0.405213
0.405056
0.40518
0.405345
0.405312
0.405309
0.405295
0.405246
0.405222
0.405165
0.405303
0.40544
0.405244
0.405336
0.40541
0.405172
0.405247
0.405378
0.405148
0.405215
0.405358
0.405181
0.405286
0.40538
0.405374
0.405404
0.405337
0.405315
0.405298
0.405113
0.382539
0.395401
0.402307
0.404901
0.405288
0.405104
0.405202
0.405323
0.405265
0.405188
0.40519
0.405753
0.405931
0.405791
0.405804
0.405902
0.405922
0.405908
0.405905
0.40585
0.405825
0.405808
0.405649
0.405691
0.405736
0.405694
0.405634
0.405532
0.405547
0.405551
0.405458
0.405527
0.405612
0.405356
0.405411
0.40557
0.405346
0.405415
0.405565
0.405551
0.405545
0.405326
0.405412
0.405524
0.405434
0.405427
0.405372
0.405375
0.405378
0.405375
0.405213
0.405284
0.40534
0.405117
0.405079
0.405269
0.405325
0.405269
0.405145
0.405058
0.405077
0.404983
0.405106
0.40525
0.405218
0.405215
0.405156
0.405143
0.404996
0.405111
0.405243
0.405012
0.40502
0.405237
0.40533
0.405291
0.405062
0.405114
0.405308
0.405173
0.40528
0.405348
0.405141
0.405219
0.405345
0.40531
0.405348
0.405338
0.405289
0.405048
0.382577
0.395343
0.402248
0.405027
0.405932
0.406192
0.406165
0.406135
0.406143
0.406061
0.40602
0.406033
0.405998
0.406
0.406021
0.405992
0.406004
0.405992
0.405968
0.405917
0.405891
0.405833
0.405642
0.405685
0.40574
0.405705
0.405686
0.405592
0.405531
0.405343
0.405426
0.405602
0.405364
0.405426
0.40559
0.405479
0.405403
0.405558
0.405696
0.405687
0.405682
0.405474
0.405558
0.405649
0.405584
0.405522
0.405534
0.405618
0.405555
0.405595
0.405663
0.405645
0.405606
0.405605
0.405513
0.405433
0.405396
0.405353
0.405308
0.405161
0.405264
0.405406
0.405292
0.405283
0.405282
0.405138
0.405217
0.405335
0.405169
0.405156
0.405189
0.405192
0.405043
0.404994
0.405251
0.405373
0.405349
0.405337
0.405112
0.4052
0.405386
0.405263
0.405319
0.405335
0.405287
0.405138
0.405185
0.405311
0.405269
0.405105
0.382554
0.39538
0.40231
0.404895
0.40533
0.405301
0.40534
0.405295
0.40516
0.405179
0.405696
0.405909
0.405884
0.405866
0.405867
0.405898
0.405848
0.405871
0.405896
0.405918
0.405871
0.405837
0.405801
0.405759
0.405761
0.405708
0.405525
0.405485
0.405507
0.405348
0.405439
0.40561
0.405368
0.405431
0.405592
0.405479
0.405397
0.405538
0.405707
0.405647
0.405665
0.405641
0.405597
0.405613
0.405618
0.405592
0.405563
0.405252
0.405221
0.405269
0.405047
0.405112
0.405226
0.405058
0.404996
0.405185
0.405298
0.405262
0.405211
0.405057
0.405174
0.40529
0.405271
0.405265
0.405075
0.405177
0.405362
0.405234
0.405324
0.405371
0.405314
0.405185
0.405119
0.405266
0.405347
0.405338
0.405421
0.405428
0.405365
0.405356
0.405199
0.405275
0.405416
0.405307
0.405311
0.405307
0.40522
0.405153
0.405128
0.404979
0.382529
0.395407
0.402367
0.404719
0.405277
0.405268
0.405218
0.405124
0.405303
0.405472
0.405454
0.405442
0.405255
0.405388
0.405532
0.405502
0.405461
0.405316
0.405296
0.405246
0.405395
0.405511
0.405374
0.40532
0.405477
0.405565
0.405397
0.405506
0.405636
0.405375
0.405404
0.405561
0.405545
0.405557
0.405543
0.405549
0.405493
0.405307
0.405337
0.405377
0.405094
0.405101
0.405232
0.40503
0.405094
0.405239
0.404992
0.40498
0.405122
0.405077
0.405101
0.405105
0.405092
0.404937
0.405007
0.405187
0.40495
0.404936
0.40517
0.405264
0.405207
0.40498
0.404947
0.405129
0.405154
0.405077
0.405166
0.405268
0.405138
0.40516
0.405115
0.404969
0.40505
0.40522
0.40502
0.404986
0.405199
0.405273
0.405218
0.40502
0.40499
0.405222
0.405305
0.405281
0.405273
0.4051
0.405129
0.405301
0.405285
0.405148
0.382557
0.395354
0.402342
0.404932
0.405385
0.405376
0.40535
0.405206
0.405342
0.405472
0.405452
0.405405
0.405495
0.40563
0.405431
0.405485
0.405702
0.405703
0.405713
0.405694
0.405539
0.405486
0.405534
0.405541
0.405513
0.405417
0.40546
0.405549
0.405501
0.405332
0.405419
0.405616
0.405574
0.405567
0.405504
0.405312
0.405316
0.405388
0.405133
0.405141
0.405281
0.405095
0.405158
0.405337
0.405125
0.405162
0.405394
0.405405
0.405363
0.405133
0.405184
0.405288
0.405041
0.405058
0.405203
0.4052
0.405199
0.405062
0.405145
0.405205
0.405155
0.404998
0.404979
0.405164
0.405179
0.405164
0.405022
0.404989
0.405141
0.405154
0.405157
0.405144
0.405304
0.40541
0.405196
0.405281
0.40542
0.40525
0.405343
0.405414
0.405243
0.405348
0.405418
0.40515
0.405192
0.405321
0.405192
0.405207
0.405161
0.405005
0.382548
0.395381
0.402295
0.404971
0.405424
0.405401
0.405438
0.405441
0.4054
0.405322
0.405634
0.405925
0.405816
0.405914
0.405964
0.405874
0.405869
0.405867
0.405742
0.405797
0.405837
0.405657
0.40576
0.40585
0.405818
0.405795
0.405692
0.405613
0.405371
0.405423
0.405542
0.405277
0.405307
0.405445
0.40521
0.405232
0.405376
0.405174
0.405229
0.405396
0.405177
0.405241
0.405413
0.405281
0.405287
0.405274
0.405124
0.405184
0.405379
0.40536
0.40532
0.405307
0.405186
0.405121
0.405155
0.40505
0.405146
0.405191
0.404993
0.404996
0.405269
0.405319
0.405262
0.405279
0.405291
0.405272
0.405066
0.405087
0.405338
0.405342
0.405295
0.405059
0.405077
0.405257
0.405253
0.405213
0.404999
0.405053
0.405279
0.405289
0.405289
0.405103
0.4052
0.40529
0.405255
0.405249
0.405079
0.405192
0.405303
0.405044
0.382577
0.395342
0.402247
0.405023
0.405945
0.40607
0.406
0.406001
0.405997
0.406035
0.40601
0.405917
0.405952
0.405993
0.405971
0.405997
0.405974
0.405908
0.405899
0.405933
0.405913
0.405875
0.405763
0.405794
0.405815
0.405758
0.405607
0.405568
0.40559
0.405404
0.405483
0.405636
0.405562
0.405463
0.40555
0.405675
0.405677
0.405673
0.405435
0.405494
0.4056
0.405562
0.405553
0.405371
0.405459
0.405535
0.405493
0.405491
0.405394
0.405394
0.405409
0.40539
0.40516
0.405179
0.405354
0.405339
0.405299
0.405097
0.405184
0.405372
0.405378
0.405378
0.405147
0.405232
0.405378
0.405143
0.405216
0.405339
0.405171
0.405156
0.405188
0.40519
0.40504
0.40499
0.405247
0.405371
0.40534
0.405322
0.405132
0.405219
0.405309
0.405288
0.405283
0.405094
0.405195
0.405391
0.405271
0.405261
0.405256
0.405077
0.382537
0.395387
0.402371
0.404818
0.405134
0.405015
0.405143
0.405392
0.405255
0.405241
0.40524
0.40514
0.405184
0.40535
0.405301
0.405407
0.405453
0.405376
0.405354
0.405425
0.405399
0.405541
0.405742
0.405591
0.40568
0.405724
0.405633
0.405624
0.405608
0.405448
0.405488
0.405628
0.405565
0.40546
0.40554
0.405672
0.405634
0.405648
0.405594
0.405573
0.405576
0.405574
0.405511
0.405491
0.405446
0.405444
0.405445
0.405421
0.405319
0.405267
0.405115
0.405202
0.405318
0.40532
0.405319
0.405083
0.405129
0.405265
0.405278
0.40528
0.405052
0.4051
0.405278
0.405219
0.405212
0.405071
0.405179
0.405281
0.405256
0.40525
0.40504
0.405071
0.405272
0.405153
0.405251
0.405441
0.405286
0.405391
0.405462
0.405383
0.405382
0.405406
0.405399
0.405174
0.405195
0.405384
0.405441
0.405401
0.405338
0.405151
0.382577
0.395342
0.402247
0.405025
0.405929
0.406189
0.406162
0.406133
0.406145
0.406118
0.406076
0.40605
0.406052
0.406007
0.405973
0.405949
0.405932
0.405828
0.405868
0.405906
0.405864
0.405822
0.40585
0.405883
0.405834
0.405749
0.405659
0.405614
0.405539
0.405505
0.40546
0.405325
0.405391
0.405498
0.405224
0.405226
0.405356
0.405158
0.405213
0.405374
0.405152
0.405218
0.405386
0.40536
0.405352
0.405139
0.405207
0.405357
0.405311
0.405337
0.405325
0.405274
0.405308
0.405348
0.405324
0.405315
0.405097
0.40522
0.405458
0.405329
0.405421
0.405537
0.405468
0.405496
0.405447
0.405217
0.405236
0.405318
0.405164
0.405152
0.405185
0.405188
0.405039
0.404989
0.405246
0.40537
0.405339
0.405322
0.405131
0.405218
0.405307
0.40526
0.405171
0.405078
0.405101
0.405064
0.40519
0.405269
0.405215
0.405036
0.382608
0.395283
0.402286
0.405018
0.405454
0.405324
0.405443
0.405559
0.405403
0.405467
0.405545
0.405498
0.405341
0.405399
0.405537
0.405513
0.405498
0.405346
0.405389
0.405459
0.405442
0.405395
0.405524
0.405622
0.405419
0.4055
0.405645
0.405468
0.405405
0.405564
0.405628
0.405476
0.40557
0.405635
0.405479
0.405484
0.405406
0.405372
0.405344
0.405141
0.405151
0.405248
0.405049
0.405003
0.405086
0.40499
0.405038
0.405315
0.405336
0.405308
0.405322
0.405277
0.405106
0.405126
0.40558
0.405716
0.405648
0.405696
0.405766
0.405735
0.405693
0.405587
0.405611
0.405638
0.405588
0.405584
0.405524
0.405314
0.405316
0.405376
0.405139
0.405204
0.405329
0.405317
0.405315
0.405145
0.405227
0.405269
0.405074
0.405123
0.405357
0.405363
0.405348
0.405146
0.405212
0.405336
0.405236
0.405269
0.405223
0.405047
0.382596
0.395326
0.402208
0.404995
0.405916
0.406179
0.406203
0.406176
0.406183
0.406151
0.406078
0.406038
0.406039
0.406017
0.405948
0.405955
0.405961
0.405799
0.405861
0.405901
0.405662
0.40573
0.405819
0.405807
0.405814
0.405777
0.405744
0.405477
0.405503
0.405609
0.40561
0.405604
0.405315
0.405347
0.405414
0.405402
0.405395
0.405105
0.405089
0.405202
0.405008
0.405031
0.405226
0.40524
0.405223
0.404994
0.404996
0.405201
0.405231
0.405193
0.405232
0.405242
0.405043
0.40518
0.405516
0.4054
0.405516
0.405592
0.405431
0.405528
0.405581
0.405419
0.405478
0.4055
0.405442
0.405456
0.405406
0.405213
0.405257
0.40533
0.405195
0.405203
0.405214
0.405187
0.405038
0.404987
0.405173
0.405308
0.405287
0.405283
0.405122
0.405141
0.405297
0.405181
0.405281
0.405337
0.405173
0.405283
0.405358
0.40508
0.382577
0.395341
0.402246
0.405026
0.405933
0.406184
0.406249
0.40622
0.406179
0.406191
0.406169
0.406095
0.406056
0.406057
0.406036
0.405969
0.40593
0.405952
0.405958
0.405826
0.405879
0.405925
0.405815
0.405814
0.405799
0.405696
0.405624
0.4056
0.40544
0.405531
0.405615
0.405343
0.405389
0.405495
0.405219
0.405221
0.405343
0.405138
0.405189
0.405346
0.405124
0.405161
0.405333
0.405247
0.405259
0.405251
0.405229
0.405254
0.405264
0.4052
0.405194
0.405109
0.40525
0.405537
0.405407
0.405517
0.405593
0.405567
0.40554
0.405547
0.405559
0.405421
0.405419
0.405416
0.405281
0.405341
0.405393
0.405197
0.405272
0.405383
0.405388
0.405388
0.405269
0.405133
0.405217
0.40535
0.405312
0.405248
0.405118
0.405096
0.405065
0.405222
0.405317
0.405295
0.405286
0.405071
0.405166
0.405323
0.405278
0.40511
0.382596
0.395327
0.402208
0.404996
0.405916
0.406186
0.406163
0.406135
0.406146
0.406072
0.406032
0.406031
0.406006
0.405937
0.405945
0.405951
0.405788
0.405851
0.405894
0.405657
0.405728
0.405831
0.405706
0.405694
0.405649
0.405499
0.405562
0.405682
0.405414
0.405424
0.405563
0.405361
0.405402
0.405561
0.405536
0.405494
0.405486
0.405486
0.40542
0.405358
0.405084
0.405124
0.405241
0.404978
0.405018
0.405149
0.404914
0.404948
0.405153
0.405209
0.405168
0.405037
0.404954
0.40513
0.405529
0.405427
0.405523
0.405633
0.405601
0.405597
0.405607
0.405638
0.405623
0.405634
0.405572
0.405361
0.405407
0.40545
0.40535
0.405356
0.405371
0.405377
0.405308
0.405275
0.405259
0.405109
0.40512
0.405288
0.405289
0.405285
0.405084
0.405138
0.405271
0.405074
0.405167
0.405251
0.405026
0.405099
0.405263
0.405013
0.382596
0.395329
0.402188
0.405096
0.405636
0.405626
0.405633
0.40565
0.4056
0.405636
0.405664
0.405537
0.405457
0.40552
0.40565
0.405602
0.405601
0.405561
0.40556
0.405413
0.40545
0.405814
0.405858
0.405814
0.405628
0.405583
0.405609
0.405421
0.405487
0.40561
0.405342
0.405377
0.405504
0.405247
0.405255
0.405379
0.405287
0.405308
0.405258
0.405079
0.405135
0.405244
0.405124
0.405118
0.405095
0.405089
0.405095
0.405105
0.404997
0.405116
0.405684
0.405971
0.406003
0.405985
0.405943
0.405911
0.405912
0.405926
0.405883
0.405729
0.405763
0.405793
0.40569
0.405668
0.405632
0.405641
0.405665
0.405628
0.405615
0.405578
0.405522
0.405354
0.405404
0.405461
0.405419
0.405292
0.405264
0.405309
0.405286
0.405281
0.405108
0.405171
0.405227
0.405033
0.405106
0.405275
0.405168
0.405189
0.405143
0.404995
0.382568
0.395347
0.40232
0.404888
0.405248
0.405227
0.405118
0.405173
0.405334
0.40514
0.405113
0.405224
0.405141
0.405262
0.405437
0.405427
0.405428
0.405317
0.405478
0.405561
0.4057
0.405858
0.405713
0.4057
0.405695
0.405556
0.405624
0.405747
0.40548
0.405481
0.405604
0.405408
0.405469
0.405611
0.40537
0.405437
0.405541
0.405512
0.4055
0.405267
0.405338
0.405412
0.40529
0.405292
0.405216
0.405249
0.40526
0.405209
0.405054
0.40509
0.405143
0.404923
0.404971
0.40514
0.405089
0.405083
0.405103
0.405101
0.404891
0.404964
0.405158
0.404929
0.404977
0.405144
0.40509
0.405105
0.405074
0.404974
0.405105
0.405313
0.405247
0.405204
0.40522
0.405233
0.405088
0.40504
0.405248
0.405369
0.405328
0.405261
0.40512
0.405096
0.405028
0.405159
0.405239
0.405017
0.405061
0.405226
0.405216
0.405147
0.382577
0.395341
0.402247
0.405024
0.40596
0.406041
0.405964
0.405958
0.405976
0.405936
0.405913
0.405933
0.405933
0.405934
0.405764
0.405797
0.405835
0.405807
0.405769
0.405794
0.405847
0.405822
0.405817
0.405612
0.40561
0.405705
0.405684
0.405492
0.405525
0.405652
0.405627
0.405518
0.405531
0.405543
0.405514
0.405501
0.405233
0.40528
0.405317
0.40515
0.405132
0.405122
0.405009
0.404952
0.405019
0.404984
0.405126
0.405219
0.405202
0.405221
0.405142
0.405399
0.405887
0.406027
0.406018
0.405987
0.405999
0.405963
0.405879
0.405882
0.405899
0.405845
0.405856
0.405804
0.405762
0.405614
0.405647
0.40569
0.405575
0.405661
0.405704
0.405672
0.405655
0.405624
0.405576
0.405475
0.405475
0.405422
0.405262
0.405215
0.405235
0.405093
0.405191
0.405344
0.405284
0.405272
0.405077
0.405163
0.405251
0.405005
0.382577
0.395342
0.402247
0.405026
0.405934
0.406188
0.406206
0.406177
0.40619
0.406159
0.406085
0.406046
0.406046
0.406026
0.405962
0.405973
0.405981
0.405825
0.405893
0.405939
0.405918
0.40586
0.405886
0.405925
0.405886
0.405856
0.405759
0.405695
0.405499
0.40558
0.405668
0.405413
0.405476
0.40562
0.405372
0.405386
0.405513
0.405445
0.405409
0.405502
0.405538
0.405491
0.405482
0.405316
0.405385
0.405417
0.405405
0.405405
0.405343
0.405212
0.405121
0.405433
0.405902
0.406025
0.406059
0.406027
0.405992
0.406
0.405965
0.405931
0.405878
0.405849
0.40584
0.405844
0.405734
0.40576
0.405792
0.405726
0.405768
0.405789
0.405757
0.405748
0.405674
0.405647
0.405572
0.405554
0.405536
0.405566
0.405507
0.40549
0.405466
0.405262
0.405295
0.405384
0.405136
0.405192
0.405353
0.405362
0.405357
0.405078
0.382557
0.395356
0.402364
0.40484
0.405187
0.405358
0.405424
0.405165
0.405216
0.405357
0.40533
0.405331
0.405236
0.405613
0.405917
0.405788
0.405852
0.405981
0.40599
0.405993
0.405812
0.405873
0.405933
0.405674
0.405733
0.405836
0.40571
0.405705
0.405717
0.405691
0.405429
0.405461
0.405549
0.405263
0.405257
0.405366
0.405334
0.405221
0.405308
0.405462
0.405393
0.405398
0.405339
0.405346
0.405337
0.405304
0.405276
0.405246
0.405301
0.405317
0.405104
0.405164
0.405201
0.405118
0.405049
0.4052
0.405452
0.405358
0.405373
0.405357
0.40537
0.405268
0.405345
0.405448
0.40537
0.405367
0.405278
0.405365
0.405435
0.405438
0.405438
0.405317
0.405183
0.405251
0.405371
0.405343
0.405258
0.405343
0.405443
0.405195
0.40526
0.405358
0.405116
0.405185
0.405263
0.405225
0.405161
0.405103
0.405151
0.40499
0.382577
0.395344
0.402234
0.405085
0.405748
0.405683
0.405776
0.405838
0.405751
0.405803
0.405871
0.405843
0.405797
0.405667
0.40564
0.405646
0.405508
0.405597
0.405678
0.405636
0.405553
0.405514
0.405662
0.405688
0.405597
0.405686
0.405766
0.405476
0.405482
0.405584
0.405568
0.405457
0.405476
0.405489
0.405454
0.405435
0.405193
0.405109
0.405123
0.40497
0.405047
0.405182
0.404928
0.404975
0.405119
0.40492
0.404882
0.404972
0.404882
0.404978
0.405168
0.405188
0.405143
0.404906
0.404938
0.405114
0.405113
0.405083
0.405156
0.405233
0.405213
0.40521
0.40511
0.405089
0.404914
0.40497
0.405165
0.404958
0.405016
0.40518
0.405164
0.405137
0.405109
0.405168
0.405125
0.405114
0.405144
0.405152
0.404952
0.404957
0.405247
0.405314
0.405253
0.405032
0.405046
0.405188
0.404973
0.405018
0.405183
0.404966
0.382577
0.395342
0.402246
0.405026
0.405942
0.406112
0.406097
0.406108
0.406061
0.406023
0.406022
0.405997
0.405928
0.405921
0.405954
0.405953
0.405964
0.405927
0.405812
0.405856
0.405965
0.405891
0.405894
0.405881
0.405728
0.405628
0.405604
0.405434
0.405507
0.405632
0.405355
0.405389
0.405486
0.405326
0.405204
0.405319
0.405411
0.405346
0.405174
0.405107
0.405176
0.405202
0.405162
0.404938
0.404945
0.405125
0.40501
0.405124
0.405253
0.405211
0.405119
0.405065
0.405075
0.404927
0.404896
0.404987
0.404918
0.405047
0.405178
0.404989
0.404944
0.405172
0.405271
0.405219
0.405085
0.405044
0.405114
0.404954
0.405016
0.40518
0.404958
0.404943
0.405209
0.405268
0.405213
0.405022
0.405043
0.405185
0.404982
0.405023
0.405195
0.405024
0.40512
0.40524
0.405217
0.405207
0.405123
0.405203
0.405226
0.405117
0.382577
0.395342
0.402247
0.405026
0.405933
0.406185
0.406248
0.40622
0.406185
0.4062
0.406172
0.4061
0.406062
0.406063
0.406047
0.405985
0.405999
0.406008
0.405854
0.405923
0.405978
0.405786
0.405877
0.406012
0.405976
0.405934
0.40586
0.405744
0.405751
0.405766
0.405704
0.405517
0.405537
0.405634
0.405382
0.405442
0.405539
0.405498
0.405483
0.405296
0.405239
0.405373
0.405409
0.405354
0.405178
0.405213
0.405256
0.40521
0.405202
0.405042
0.405164
0.40571
0.405975
0.406041
0.406062
0.406026
0.405992
0.405999
0.405972
0.405939
0.40589
0.405891
0.405898
0.405848
0.405693
0.405717
0.405754
0.405643
0.405708
0.405733
0.405669
0.405663
0.405666
0.405688
0.405633
0.405415
0.405439
0.40547
0.405426
0.405299
0.40528
0.405325
0.405299
0.405313
0.40533
0.405315
0.405051
0.405056
0.405194
0.404996
0.382577
0.395342
0.402247
0.405027
0.405935
0.40619
0.406206
0.406178
0.406191
0.40616
0.406086
0.406048
0.406048
0.406027
0.405963
0.405975
0.405983
0.405826
0.405894
0.405943
0.405903
0.405839
0.405858
0.4059
0.405845
0.405668
0.405652
0.405727
0.405498
0.405535
0.405667
0.405432
0.405486
0.40562
0.405373
0.405386
0.405513
0.405445
0.405411
0.405508
0.40554
0.405492
0.405483
0.405317
0.405384
0.405417
0.405405
0.405404
0.405352
0.405268
0.405163
0.40544
0.405919
0.405915
0.405857
0.405859
0.405831
0.405788
0.40575
0.405758
0.405704
0.405741
0.405758
0.405682
0.405693
0.405701
0.405689
0.405639
0.405589
0.40544
0.40551
0.405551
0.405494
0.405366
0.405304
0.405315
0.40515
0.405225
0.405398
0.405253
0.405314
0.405345
0.405243
0.405297
0.40531
0.405259
0.405103
0.405156
0.405261
0.405003
0.382577
0.395342
0.402247
0.405023
0.405959
0.406042
0.405965
0.40596
0.405978
0.405937
0.405913
0.405932
0.405892
0.405907
0.405919
0.405922
0.405777
0.4058
0.40583
0.405764
0.405763
0.405721
0.405614
0.405534
0.405622
0.405659
0.405571
0.405684
0.405767
0.405739
0.405734
0.405656
0.405652
0.405612
0.405546
0.405302
0.405251
0.405268
0.405142
0.405227
0.405269
0.405215
0.405116
0.404998
0.405025
0.404972
0.40511
0.405218
0.405168
0.405166
0.405123
0.405394
0.405903
0.405911
0.405857
0.405859
0.40587
0.405875
0.405843
0.405794
0.405647
0.405696
0.405742
0.405741
0.405741
0.405512
0.40556
0.405619
0.405426
0.405516
0.405576
0.405568
0.405565
0.40532
0.405372
0.405483
0.405464
0.405462
0.405366
0.40536
0.405312
0.405163
0.405228
0.405346
0.405101
0.40516
0.405342
0.405337
0.405317
0.405048
0.382568
0.395347
0.402321
0.404876
0.405285
0.405258
0.405256
0.405134
0.405245
0.405442
0.405425
0.405412
0.405269
0.405357
0.405491
0.405415
0.40542
0.405418
0.405405
0.405508
0.40548
0.40564
0.405823
0.405614
0.405712
0.405817
0.405571
0.405629
0.405757
0.405738
0.405727
0.405463
0.405516
0.405635
0.405424
0.405372
0.405509
0.40562
0.405592
0.405508
0.405519
0.405532
0.405464
0.405463
0.405472
0.40548
0.405434
0.405354
0.405313
0.405234
0.405204
0.405159
0.405096
0.40489
0.404949
0.405137
0.405021
0.404951
0.40509
0.405251
0.405221
0.405179
0.405026
0.405188
0.405328
0.405333
0.405334
0.405272
0.40517
0.405226
0.405466
0.405534
0.405498
0.405392
0.405368
0.405359
0.40538
0.405372
0.405293
0.405223
0.405218
0.405123
0.405125
0.405377
0.405445
0.40539
0.405203
0.405228
0.405282
0.405011
0.382608
0.395279
0.402301
0.40499
0.405421
0.405309
0.405432
0.40555
0.405416
0.405427
0.405414
0.405253
0.405261
0.405507
0.405534
0.405474
0.405255
0.405268
0.405483
0.405417
0.405553
0.405655
0.405618
0.405613
0.405452
0.405545
0.405693
0.405431
0.405433
0.405568
0.40538
0.405361
0.405552
0.405579
0.405533
0.405363
0.405427
0.405486
0.405441
0.40539
0.405209
0.405184
0.405231
0.405217
0.405167
0.40516
0.405113
0.404964
0.404994
0.405192
0.405046
0.405146
0.405302
0.405244
0.405164
0.405267
0.405517
0.405399
0.405498
0.405547
0.405511
0.405406
0.405449
0.405487
0.405434
0.405414
0.405392
0.405412
0.405367
0.405361
0.405335
0.40529
0.405242
0.405132
0.405219
0.40535
0.405312
0.405248
0.405114
0.405092
0.405002
0.405122
0.405211
0.405167
0.40516
0.405007
0.405099
0.405216
0.405171
0.405018
0.382608
0.395283
0.402287
0.405016
0.405454
0.40532
0.405431
0.405553
0.405424
0.405452
0.405407
0.405237
0.40524
0.405495
0.405544
0.405482
0.405314
0.405248
0.405524
0.405658
0.405612
0.405442
0.405461
0.405601
0.405382
0.405415
0.405589
0.405392
0.405425
0.405582
0.405383
0.405456
0.40557
0.405563
0.405554
0.405272
0.405293
0.405393
0.405383
0.40538
0.405289
0.40523
0.404983
0.40502
0.405209
0.405183
0.405143
0.404954
0.404962
0.405448
0.405649
0.405489
0.405568
0.405672
0.40564
0.405635
0.405461
0.405529
0.405605
0.405594
0.405593
0.405511
0.405503
0.40539
0.405471
0.405512
0.405427
0.405464
0.405484
0.405439
0.405231
0.405274
0.405351
0.40529
0.405299
0.405318
0.405303
0.405084
0.405028
0.405102
0.405057
0.405055
0.405049
0.405049
0.404939
0.405024
0.405252
0.405253
0.405234
0.404977
0.382577
0.395342
0.402246
0.405026
0.405932
0.406186
0.406206
0.406178
0.406139
0.406105
0.406112
0.406091
0.406055
0.406056
0.406035
0.405969
0.40593
0.405952
0.405957
0.405827
0.40588
0.405925
0.405815
0.405811
0.405793
0.40561
0.405628
0.405715
0.405464
0.405503
0.405651
0.405542
0.405456
0.405512
0.40554
0.405391
0.405494
0.405605
0.405371
0.405435
0.405575
0.405419
0.405498
0.405597
0.405519
0.405559
0.405571
0.405546
0.405552
0.405502
0.405414
0.405153
0.405201
0.405493
0.405376
0.405492
0.405575
0.405464
0.405479
0.405469
0.405483
0.40542
0.405404
0.405394
0.40527
0.405334
0.405383
0.405191
0.405269
0.405383
0.405388
0.405388
0.40527
0.405134
0.405218
0.40535
0.405333
0.405324
0.405105
0.405196
0.405382
0.405259
0.405311
0.405326
0.405278
0.405131
0.405182
0.405314
0.40527
0.405106
0.382596
0.395326
0.402207
0.404996
0.405919
0.406178
0.406246
0.406217
0.406183
0.406196
0.406166
0.406093
0.406054
0.406054
0.406032
0.405965
0.405962
0.405996
0.405993
0.406019
0.405981
0.405843
0.405872
0.405968
0.405931
0.405945
0.405897
0.405886
0.405841
0.405554
0.405511
0.405599
0.405574
0.405457
0.405523
0.405649
0.405624
0.405616
0.405396
0.405455
0.40557
0.405465
0.405417
0.405419
0.405459
0.405431
0.405336
0.405379
0.405427
0.405425
0.405425
0.405334
0.405215
0.405255
0.405421
0.405505
0.405469
0.405385
0.405317
0.405466
0.405629
0.405494
0.405572
0.405672
0.405667
0.405667
0.405619
0.405589
0.405518
0.405486
0.405374
0.405436
0.40548
0.405464
0.40546
0.405209
0.405239
0.40536
0.40535
0.405331
0.405086
0.405146
0.405303
0.405073
0.405148
0.405295
0.405052
0.405103
0.405256
0.405015
0.382596
0.395329
0.402188
0.405092
0.405677
0.405737
0.405695
0.405461
0.405542
0.405647
0.405442
0.405523
0.405579
0.405371
0.405458
0.405531
0.405429
0.405348
0.405465
0.405638
0.405596
0.405482
0.405431
0.405479
0.405321
0.405372
0.405556
0.405361
0.405433
0.405577
0.405499
0.405492
0.405411
0.40551
0.405557
0.405486
0.405295
0.405226
0.405248
0.405052
0.405071
0.405216
0.405045
0.405133
0.405237
0.405211
0.40519
0.405146
0.40522
0.405303
0.405265
0.405145
0.405073
0.405279
0.405543
0.405394
0.405484
0.405605
0.405563
0.40547
0.405405
0.405427
0.405371
0.405481
0.40561
0.405512
0.405501
0.405498
0.40533
0.40536
0.40545
0.405354
0.405336
0.405304
0.405282
0.405344
0.405359
0.405153
0.405238
0.405354
0.405326
0.405242
0.405221
0.405254
0.405051
0.405121
0.405328
0.40534
0.40533
0.405052
0.382577
0.395342
0.402247
0.405025
0.40593
0.406183
0.406202
0.406174
0.406133
0.406098
0.406109
0.406084
0.406048
0.406048
0.406022
0.406004
0.40598
0.405965
0.405953
0.405913
0.405926
0.405938
0.405886
0.405645
0.405628
0.405695
0.405496
0.405575
0.405682
0.405653
0.405642
0.40555
0.405479
0.405245
0.405265
0.405404
0.40519
0.405244
0.405402
0.405176
0.40524
0.405404
0.40518
0.405256
0.405403
0.405207
0.405285
0.405417
0.40528
0.405365
0.4054
0.405363
0.405342
0.405198
0.405285
0.405421
0.405379
0.405232
0.405278
0.405435
0.405413
0.40531
0.405343
0.405428
0.40521
0.405297
0.405391
0.405198
0.4053
0.405413
0.405415
0.405415
0.405301
0.405162
0.405207
0.405338
0.405303
0.405252
0.405085
0.4052
0.405307
0.40526
0.40517
0.405078
0.4051
0.405063
0.405189
0.405267
0.405214
0.405034
0.382545
0.39539
0.402337
0.404835
0.405155
0.405137
0.405051
0.405078
0.405267
0.405313
0.40527
0.405109
0.405073
0.405378
0.405772
0.405739
0.405746
0.405692
0.405803
0.405852
0.405699
0.405785
0.405844
0.405843
0.405842
0.405638
0.405575
0.405558
0.405392
0.40546
0.405631
0.405551
0.405457
0.405488
0.405515
0.405602
0.405677
0.405439
0.405515
0.405611
0.405522
0.405508
0.405358
0.405441
0.405501
0.405441
0.405295
0.405223
0.405214
0.405034
0.405084
0.405238
0.405093
0.405184
0.405234
0.405193
0.405073
0.405086