/*--------------------------------*- C++ -*----------------------------------*\
  =========                 |
  \\      /  F ield         | OpenFOAM: The Open Source CFD Toolbox
   \\    /   O peration     | Website:  https://openfoam.org
    \\  /    A nd           | Version:  11
     \\/     M anipulation  |
\*---------------------------------------------------------------------------*/
FoamFile
{
    format      ascii;
    class       volScalarField;
    location    "0.036";
    object      nut;
}
// * * * * * * * * * * * * * * * * * * * * * * * * * * * * * * * * * * * * * //

dimensions      [0 2 -1 0 0 0 0];

internalField   nonuniform List<scalar> 
287084
(
0.000838776
0.000867966
0.000884582
0.000891097
0.000892284
0.000892512
0.000892623
0.000892338
0.000892558
0.000892918
0.000892895
0.00089285
0.00089251
0.000892237
0.000892283
0.000892163
0.000892421
0.000892791
0.000892366
0.000892538
0.000892662
0.000892321
0.000892278
0.00089226
0.00089223
0.000891949
0.000892084
0.000892369
0.000892251
0.000891935
0.000891943
0.000892176
0.000891846
0.000891999
0.0008925
0.000892705
0.000892762
0.000892712
0.000892799
0.00089255
0.000892866
0.000893249
0.000892783
0.000892953
0.000893366
0.000893022
0.000893009
0.000893549
0.000893745
0.000893577
0.000893616
0.000893641
0.000893628
0.000893617
0.000893229
0.000893399
0.000893655
0.000893597
0.000893552
0.000893454
0.000893577
0.000893241
0.000893407
0.000893756
0.000893696
0.000893675
0.000893192
0.000893397
0.000893689
0.000893569
0.000893583
0.000893364
0.000893539
0.000893823
0.000893841
0.00089377
0.000893731
0.000893345
0.000893446
0.000893749
0.000893686
0.000893575
0.000893289
0.000893139
0.000893059
0.00089283
0.000893087
0.000893462
0.000893403
0.000893191
0.0011855
0.00122529
0.00124763
0.00125619
0.00125751
0.00125753
0.00125762
0.00125748
0.00125759
0.00125761
0.00125743
0.00125686
0.0012569
0.00125716
0.00125631
0.00125625
0.00125664
0.00125655
0.00125623
0.00125632
0.00125708
0.00125687
0.00125688
0.00125704
0.00125699
0.00125651
0.00125681
0.00125712
0.00125643
0.00125674
0.00125705
0.00125634
0.00125657
0.00125718
0.00125676
0.00125678
0.0012572
0.00125724
0.00125781
0.00125821
0.00125825
0.00125828
0.00125796
0.00125843
0.00125875
0.00125866
0.00125821
0.00125813
0.00125834
0.00125806
0.00125796
0.00125848
0.00125892
0.00125881
0.00125832
0.00125853
0.00125902
0.00125836
0.00125864
0.00125905
0.00125896
0.00125885
0.0012587
0.00125878
0.00125838
0.00125867
0.00125906
0.00125892
0.00125853
0.00125857
0.00125916
0.00125936
0.00125923
0.00125845
0.0012586
0.00125909
0.00125859
0.00125884
0.00125894
0.00125864
0.00125862
0.00125861
0.0012582
0.00125833
0.00125846
0.00125832
0.00125796
0.001258
0.00125848
0.00125784
0.00118557
0.00122544
0.00124781
0.00125622
0.00125751
0.00125804
0.00125816
0.00125749
0.00125764
0.00125816
0.00125801
0.00125796
0.00125781
0.00125734
0.00125703
0.00125726
0.00125744
0.00125719
0.00125657
0.00125633
0.00125655
0.00125646
0.00125683
0.00125716
0.00125714
0.00125713
0.00125652
0.00125677
0.00125712
0.00125644
0.00125677
0.0012574
0.00125679
0.00125714
0.00125783
0.00125731
0.00125773
0.00125842
0.00125826
0.00125842
0.00125848
0.00125836
0.00125858
0.00125883
0.00125884
0.00125865
0.00125888
0.00125914
0.00125917
0.00125921
0.00125853
0.00125872
0.00125896
0.00125841
0.00125874
0.00125916
0.00125838
0.00125854
0.00125899
0.00125889
0.00125888
0.00125862
0.00125872
0.00125855
0.00125897
0.00125926
0.00125915
0.0012588
0.00125887
0.00125912
0.00125882
0.00125876
0.00125822
0.00125849
0.00125881
0.0012581
0.00125827
0.00125894
0.00125861
0.00125856
0.00125844
0.0012588
0.00125896
0.00125828
0.00125851
0.00125885
0.00125808
0.00125829
0.0012586
0.0012578
0.00118557
0.00122567
0.00124781
0.00125654
0.00125822
0.00125869
0.00125858
0.00125845
0.00125827
0.00125824
0.00125822
0.00125805
0.00125795
0.00125741
0.00125761
0.0012577
0.00125742
0.00125673
0.00125654
0.00125686
0.00125667
0.0012566
0.00125642
0.00125646
0.00125626
0.00125613
0.00125579
0.00125594
0.00125694
0.00125712
0.00125704
0.00125645
0.00125654
0.00125706
0.00125665
0.00125681
0.00125742
0.00125724
0.00125771
0.00125839
0.00125819
0.00125831
0.00125847
0.00125857
0.00125866
0.00125861
0.00125837
0.00125828
0.00125853
0.00125883
0.00125878
0.00125879
0.00125867
0.00125817
0.00125853
0.00125912
0.00125846
0.00125873
0.00125914
0.00125902
0.00125899
0.00125849
0.00125892
0.00125941
0.00125929
0.00125932
0.00125929
0.00125921
0.00125926
0.00125926
0.00125859
0.0012588
0.00125909
0.00125848
0.00125869
0.00125933
0.00125919
0.00125928
0.00125931
0.00125916
0.0012584
0.00125851
0.00125901
0.00125893
0.00125879
0.00125812
0.00125835
0.00125867
0.00125856
0.00125819
0.00118558
0.00122572
0.00124788
0.0012567
0.00125831
0.00125826
0.00125792
0.00125807
0.00125833
0.00125763
0.00125782
0.00125791
0.00125769
0.00125758
0.00125709
0.00125709
0.001257
0.00125678
0.00125653
0.00125643
0.00125619
0.00125658
0.00125712
0.00125667
0.00125668
0.00125664
0.00125619
0.00125643
0.00125696
0.00125652
0.0012564
0.0012566
0.00125661
0.0012572
0.00125792
0.00125752
0.00125799
0.00125837
0.00125853
0.00125869
0.00125802
0.00125829
0.00125867
0.0012588
0.0012589
0.00125824
0.00125855
0.00125891
0.00125831
0.00125865
0.00125911
0.00125835
0.00125831
0.00125873
0.00125839
0.00125869
0.00125926
0.0012589
0.00125892
0.00125889
0.00125846
0.00125866
0.0012592
0.00125846
0.00125866
0.0012591
0.00125834
0.00125838
0.00125884
0.00125835
0.0012586
0.00125914
0.00125912
0.0012591
0.00125845
0.00125873
0.00125909
0.00125858
0.00125852
0.0012585
0.00125813
0.0012584
0.00125893
0.0012583
0.0012586
0.00125894
0.00125827
0.00125857
0.00125892
0.00125805
0.00118554
0.00122587
0.001248
0.00125613
0.00125727
0.00125674
0.00125693
0.00125779
0.00125775
0.00125749
0.0012567
0.00125665
0.00125726
0.00125682
0.00125708
0.00125746
0.00125688
0.00125675
0.00125662
0.00125656
0.00125645
0.00125592
0.00125608
0.00125651
0.00125585
0.00125571
0.00125633
0.00125657
0.00125651
0.0012562
0.00125654
0.00125732
0.00125721
0.00125736
0.00125748
0.00125712
0.00125738
0.00125789
0.00125728
0.0012575
0.00125814
0.00125771
0.00125805
0.00125874
0.0012582
0.00125851
0.00125917
0.00125884
0.00125893
0.00125895
0.00125853
0.00125869
0.0012593
0.00125933
0.00125932
0.00125894
0.00125855
0.00125883
0.0012591
0.00125898
0.00125885
0.00125835
0.00125872
0.00125922
0.0012591
0.00125907
0.00125902
0.00125884
0.00125876
0.00125856
0.00125897
0.00125939
0.00125876
0.00125903
0.00125925
0.0012585
0.00125872
0.00125912
0.00125839
0.00125859
0.00125902
0.00125846
0.00125878
0.00125907
0.00125904
0.00125913
0.00125891
0.00125884
0.00125878
0.00125818
0.00118545
0.00122602
0.00124799
0.00125634
0.00125759
0.001257
0.00125724
0.00125754
0.00125729
0.00125696
0.00125687
0.00125851
0.00125895
0.0012584
0.00125832
0.00125851
0.00125845
0.00125829
0.00125816
0.00125788
0.00125771
0.00125757
0.00125701
0.00125709
0.0012572
0.00125707
0.00125691
0.00125665
0.00125678
0.0012569
0.00125674
0.00125711
0.00125756
0.00125696
0.00125732
0.00125802
0.00125754
0.00125795
0.00125862
0.00125876
0.00125892
0.0012584
0.00125881
0.00125929
0.00125912
0.0012592
0.00125911
0.00125919
0.00125926
0.0012593
0.00125884
0.00125908
0.00125928
0.0012586
0.00125849
0.00125908
0.00125925
0.00125908
0.00125868
0.0012584
0.00125845
0.00125814
0.00125851
0.00125894
0.00125882
0.0012588
0.00125859
0.00125854
0.00125806
0.0012584
0.00125879
0.00125806
0.00125807
0.00125873
0.001259
0.00125887
0.00125815
0.0012583
0.00125889
0.00125846
0.00125878
0.00125898
0.00125833
0.00125857
0.00125895
0.00125884
0.00125895
0.00125891
0.00125875
0.00125798
0.00118557
0.00122585
0.00124783
0.00125675
0.00125963
0.0012604
0.00126026
0.00126008
0.00126003
0.00125967
0.00125944
0.00125937
0.00125914
0.00125902
0.00125896
0.00125874
0.00125865
0.00125849
0.00125829
0.00125802
0.00125783
0.00125756
0.00125689
0.00125697
0.00125712
0.00125701
0.00125697
0.00125674
0.00125664
0.00125618
0.00125658
0.0012573
0.00125676
0.00125716
0.00125789
0.00125776
0.00125775
0.00125845
0.00125908
0.00125925
0.00125941
0.00125893
0.00125934
0.00125976
0.00125967
0.00125957
0.00125969
0.00126002
0.00125988
0.00126005
0.00126029
0.00126026
0.00126016
0.00126016
0.00125988
0.00125963
0.00125951
0.00125937
0.00125922
0.00125875
0.00125905
0.00125948
0.0012591
0.00125906
0.00125904
0.00125857
0.00125879
0.00125914
0.00125861
0.00125855
0.00125863
0.00125863
0.00125815
0.00125798
0.00125876
0.00125913
0.00125904
0.00125899
0.00125828
0.00125855
0.00125911
0.00125872
0.00125889
0.00125893
0.00125877
0.00125831
0.00125844
0.00125884
0.0012587
0.00125816
0.0011855
0.00122597
0.00124804
0.00125636
0.00125778
0.00125767
0.00125772
0.00125749
0.00125698
0.00125694
0.00125843
0.00125897
0.00125877
0.00125858
0.00125845
0.0012584
0.00125811
0.00125804
0.00125799
0.00125793
0.00125768
0.00125747
0.00125728
0.0012571
0.00125707
0.00125691
0.00125637
0.00125631
0.00125647
0.00125612
0.00125656
0.00125728
0.00125674
0.00125716
0.0012579
0.00125779
0.00125777
0.00125844
0.00125918
0.0012592
0.00125945
0.00125954
0.00125955
0.00125973
0.00125986
0.00125988
0.00125987
0.00125897
0.00125892
0.00125911
0.00125845
0.00125867
0.00125904
0.00125852
0.00125832
0.00125891
0.00125925
0.00125912
0.00125895
0.00125845
0.0012588
0.00125914
0.00125906
0.00125902
0.00125841
0.0012587
0.00125926
0.00125884
0.0012591
0.00125923
0.00125903
0.00125861
0.00125839
0.00125883
0.00125907
0.00125903
0.00125927
0.00125928
0.00125907
0.00125903
0.00125854
0.00125876
0.00125919
0.00125884
0.00125885
0.00125882
0.00125854
0.00125833
0.00125825
0.00125776
0.00118543
0.00122606
0.00124822
0.00125583
0.00125763
0.00125758
0.00125735
0.00125697
0.00125743
0.00125784
0.00125767
0.0012575
0.00125679
0.00125706
0.00125736
0.00125712
0.00125685
0.00125625
0.00125605
0.00125576
0.0012561
0.00125635
0.00125584
0.00125561
0.00125606
0.00125634
0.00125585
0.00125626
0.00125678
0.00125611
0.00125638
0.00125708
0.00125726
0.00125754
0.00125775
0.00125803
0.00125811
0.00125778
0.00125811
0.00125845
0.00125776
0.00125796
0.00125852
0.00125802
0.00125834
0.00125888
0.00125819
0.00125821
0.0012587
0.00125859
0.00125869
0.00125872
0.00125868
0.0012582
0.00125841
0.00125896
0.00125821
0.00125815
0.00125886
0.00125913
0.00125893
0.0012582
0.00125807
0.00125862
0.00125867
0.00125841
0.00125866
0.00125896
0.00125853
0.00125858
0.00125842
0.00125795
0.00125818
0.00125869
0.00125806
0.00125794
0.00125858
0.0012588
0.00125862
0.00125799
0.00125789
0.0012586
0.00125885
0.00125877
0.00125874
0.00125819
0.00125827
0.00125881
0.00125875
0.0012583
0.00118551
0.0012259
0.00124815
0.0012565
0.00125798
0.00125792
0.00125776
0.00125723
0.00125754
0.00125783
0.00125765
0.00125737
0.00125751
0.00125778
0.00125701
0.00125701
0.00125753
0.00125737
0.00125725
0.00125705
0.00125643
0.00125615
0.00125621
0.00125616
0.00125604
0.00125574
0.00125592
0.00125627
0.00125625
0.00125588
0.00125635
0.00125719
0.00125732
0.00125756
0.00125765
0.00125733
0.00125762
0.00125811
0.00125756
0.00125781
0.00125845
0.00125805
0.0012584
0.00125909
0.00125854
0.00125874
0.00125954
0.00125963
0.00125954
0.00125885
0.00125903
0.00125936
0.00125859
0.00125864
0.00125908
0.00125905
0.00125903
0.00125858
0.00125882
0.00125898
0.0012588
0.00125828
0.0012582
0.00125875
0.00125877
0.0012587
0.00125823
0.0012581
0.00125856
0.00125857
0.00125856
0.0012585
0.00125898
0.00125929
0.00125861
0.00125886
0.00125928
0.00125873
0.00125901
0.00125922
0.00125868
0.001259
0.0012592
0.00125836
0.00125848
0.00125888
0.00125847
0.00125852
0.00125837
0.00125785
0.00118549
0.00122598
0.00124801
0.00125663
0.0012581
0.001258
0.00125804
0.00125796
0.00125772
0.00125736
0.00125819
0.00125895
0.00125846
0.00125861
0.0012586
0.00125815
0.00125797
0.00125779
0.00125724
0.00125726
0.00125724
0.00125655
0.00125677
0.00125698
0.00125684
0.00125677
0.0012565
0.00125634
0.00125573
0.00125607
0.00125666
0.00125608
0.00125646
0.00125718
0.00125675
0.00125712
0.00125787
0.00125752
0.00125795
0.00125871
0.00125823
0.00125862
0.00125931
0.00125903
0.00125916
0.0012592
0.00125881
0.00125904
0.00125968
0.00125965
0.00125953
0.00125949
0.00125911
0.0012589
0.00125899
0.00125864
0.00125891
0.00125903
0.00125838
0.00125836
0.00125918
0.00125931
0.0012591
0.00125913
0.00125913
0.00125905
0.00125838
0.00125842
0.00125918
0.00125917
0.001259
0.00125825
0.00125828
0.00125882
0.00125879
0.00125865
0.00125797
0.00125813
0.00125881
0.00125883
0.00125882
0.00125823
0.00125853
0.0012588
0.00125868
0.00125865
0.00125811
0.00125846
0.0012588
0.00125797
0.00118557
0.00122586
0.00124786
0.00125679
0.00125972
0.00126008
0.00125978
0.00125969
0.00125956
0.00125956
0.00125934
0.0012589
0.00125885
0.0012588
0.00125857
0.00125847
0.00125821
0.00125783
0.00125763
0.00125756
0.00125735
0.00125709
0.00125664
0.00125666
0.00125668
0.00125651
0.00125609
0.00125606
0.00125629
0.0012559
0.00125639
0.00125714
0.00125722
0.00125724
0.00125783
0.00125855
0.00125887
0.00125915
0.00125869
0.00125912
0.00125966
0.00125973
0.00125987
0.00125943
0.00125981
0.00126013
0.00126006
0.0012601
0.00125983
0.00125984
0.0012599
0.00125983
0.0012591
0.00125914
0.00125966
0.00125959
0.00125944
0.00125878
0.00125901
0.00125957
0.00125955
0.00125952
0.00125877
0.001259
0.00125943
0.00125867
0.00125886
0.00125922
0.00125867
0.0012586
0.00125868
0.00125866
0.00125818
0.001258
0.00125878
0.00125915
0.00125904
0.00125897
0.00125836
0.00125862
0.00125889
0.00125881
0.00125879
0.00125819
0.0012585
0.0012591
0.00125872
0.00125869
0.00125866
0.00125808
0.00118545
0.001226
0.00124825
0.00125615
0.0012572
0.0012568
0.00125712
0.00125778
0.00125725
0.00125707
0.00125692
0.00125645
0.00125642
0.00125677
0.00125643
0.00125656
0.00125651
0.00125608
0.00125582
0.00125587
0.00125562
0.00125592
0.00125642
0.00125587
0.00125611
0.00125625
0.00125602
0.0012561
0.00125622
0.00125594
0.00125633
0.00125707
0.00125721
0.00125723
0.00125783
0.00125859
0.00125881
0.00125916
0.00125928
0.00125948
0.00125971
0.0012599
0.00125986
0.00125993
0.00125989
0.00125997
0.00126003
0.00125999
0.00125969
0.00125954
0.00125907
0.00125933
0.00125967
0.00125965
0.00125961
0.00125885
0.00125896
0.00125934
0.00125935
0.00125932
0.00125857
0.00125868
0.0012592
0.00125899
0.00125893
0.00125846
0.00125877
0.00125906
0.00125895
0.0012589
0.00125823
0.0012583
0.0012589
0.00125851
0.0012588
0.00125937
0.00125888
0.00125918
0.00125939
0.00125913
0.00125912
0.00125918
0.00125915
0.00125844
0.0012585
0.00125908
0.00125925
0.00125912
0.00125892
0.00125831
0.00118558
0.00122586
0.00124786
0.00125679
0.00125967
0.00126043
0.00126027
0.00126007
0.00125999
0.00125977
0.00125949
0.00125924
0.00125908
0.00125875
0.00125845
0.00125817
0.00125791
0.00125739
0.00125731
0.00125723
0.00125693
0.00125664
0.0012566
0.00125662
0.00125642
0.00125616
0.00125595
0.00125593
0.00125588
0.00125602
0.00125617
0.00125608
0.00125664
0.00125735
0.00125688
0.00125726
0.00125802
0.00125774
0.00125821
0.00125898
0.00125852
0.00125892
0.0012596
0.00125965
0.00125973
0.00125914
0.0012594
0.0012599
0.00125977
0.00125985
0.00125981
0.00125963
0.00125971
0.0012598
0.00125969
0.00125962
0.0012589
0.00125925
0.00125995
0.0012595
0.00125975
0.00126007
0.00125982
0.00125987
0.00125968
0.00125893
0.00125896
0.00125918
0.00125868
0.00125861
0.00125869
0.00125867
0.00125819
0.00125801
0.00125879
0.00125916
0.00125904
0.00125897
0.00125837
0.00125862
0.00125889
0.00125873
0.00125844
0.00125815
0.00125821
0.00125809
0.00125847
0.00125871
0.00125854
0.00125795
0.00118567
0.00122568
0.00124798
0.00125677
0.00125818
0.00125775
0.00125803
0.00125828
0.00125767
0.00125773
0.00125782
0.0012575
0.00125682
0.00125681
0.00125703
0.00125674
0.00125648
0.0012558
0.00125571
0.00125573
0.00125549
0.00125517
0.00125544
0.00125565
0.00125497
0.00125523
0.00125575
0.00125534
0.00125535
0.0012561
0.00125662
0.0012565
0.00125718
0.00125779
0.00125771
0.00125812
0.00125825
0.0012585
0.00125872
0.00125837
0.00125864
0.00125914
0.00125868
0.00125867
0.00125902
0.00125879
0.00125899
0.00125987
0.00125995
0.00125985
0.00125988
0.00125971
0.00125915
0.00125917
0.00126054
0.00126093
0.00126067
0.00126077
0.00126094
0.0012608
0.00126063
0.00126025
0.00126029
0.00126033
0.00126014
0.00126009
0.00125987
0.00125918
0.00125916
0.00125932
0.00125855
0.00125873
0.00125909
0.00125904
0.00125901
0.00125846
0.0012587
0.00125881
0.00125819
0.00125833
0.00125905
0.00125906
0.001259
0.00125836
0.00125856
0.00125894
0.00125862
0.00125872
0.00125857
0.00125799
0.00118564
0.00122582
0.00124773
0.0012567
0.00125962
0.00126039
0.00126038
0.00126018
0.00126008
0.00125983
0.00125944
0.00125914
0.00125895
0.00125868
0.00125824
0.00125804
0.00125783
0.0012571
0.00125707
0.00125697
0.00125603
0.00125607
0.0012562
0.00125607
0.00125604
0.00125594
0.00125592
0.00125524
0.00125554
0.00125615
0.00125649
0.00125685
0.00125637
0.0012569
0.00125754
0.00125793
0.0012583
0.00125776
0.00125804
0.00125868
0.00125831
0.00125859
0.00125935
0.00125952
0.00125957
0.00125892
0.00125896
0.00125962
0.00125971
0.00125958
0.00125968
0.00125968
0.00125902
0.0012594
0.0012604
0.00125999
0.0012603
0.00126049
0.00125994
0.00126019
0.00126031
0.00125976
0.0012599
0.00125992
0.0012597
0.00125971
0.00125952
0.00125888
0.00125899
0.00125919
0.00125874
0.00125873
0.00125874
0.00125864
0.00125815
0.00125797
0.00125854
0.00125894
0.00125886
0.00125883
0.00125832
0.00125837
0.00125884
0.00125847
0.00125877
0.00125894
0.00125842
0.00125876
0.00125899
0.00125809
0.00118558
0.00122586
0.00124785
0.00125679
0.00125966
0.0012604
0.00126051
0.00126031
0.00126005
0.00125993
0.00125969
0.00125928
0.00125896
0.00125875
0.00125846
0.00125802
0.00125766
0.00125748
0.00125726
0.00125662
0.00125657
0.00125653
0.00125604
0.00125594
0.00125584
0.00125554
0.00125541
0.00125549
0.00125524
0.00125582
0.00125645
0.00125601
0.00125659
0.00125738
0.00125698
0.00125743
0.00125822
0.00125796
0.00125845
0.00125923
0.00125879
0.00125911
0.0012598
0.00125966
0.00125979
0.00125982
0.00125979
0.00125988
0.0012599
0.00125969
0.00125964
0.00125933
0.00125973
0.00126057
0.00126011
0.0012604
0.00126058
0.00126045
0.00126031
0.00126028
0.00126027
0.00125979
0.00125973
0.00125968
0.00125922
0.00125937
0.00125949
0.00125884
0.00125904
0.00125936
0.00125935
0.00125932
0.00125892
0.00125848
0.00125872
0.00125911
0.00125897
0.00125876
0.00125833
0.00125825
0.00125815
0.00125862
0.00125891
0.00125883
0.00125878
0.0012581
0.00125839
0.00125888
0.00125873
0.00125818
0.00118563
0.00122582
0.00124773
0.00125669
0.00125961
0.0012604
0.00126023
0.00126003
0.00125993
0.00125954
0.00125924
0.00125905
0.00125876
0.00125833
0.00125812
0.00125789
0.00125714
0.00125708
0.00125696
0.00125599
0.00125599
0.0012561
0.00125557
0.00125542
0.00125524
0.0012548
0.00125509
0.00125563
0.00125506
0.00125541
0.00125623
0.00125604
0.00125663
0.0012576
0.001258
0.00125833
0.00125873
0.00125912
0.00125927
0.00125937
0.00125877
0.0012591
0.00125963
0.00125893
0.00125914
0.0012596
0.0012589
0.00125901
0.00125964
0.00125979
0.00125963
0.00125917
0.00125886
0.00125936
0.00126054
0.00126017
0.00126041
0.00126069
0.00126053
0.00126046
0.00126044
0.00126048
0.00126039
0.00126038
0.00126014
0.00125944
0.00125955
0.00125964
0.0012593
0.00125928
0.0012593
0.00125929
0.00125905
0.00125892
0.00125885
0.00125836
0.00125838
0.00125888
0.00125887
0.00125885
0.0012582
0.00125836
0.00125877
0.00125814
0.00125842
0.00125868
0.00125797
0.00125819
0.0012587
0.00125789
0.00118563
0.00122582
0.00124767
0.001257
0.00125873
0.00125866
0.00125858
0.00125851
0.00125822
0.00125817
0.00125808
0.00125748
0.00125702
0.00125699
0.00125715
0.00125675
0.00125648
0.0012561
0.00125584
0.00125513
0.00125502
0.00125594
0.00125592
0.00125568
0.00125505
0.00125494
0.00125512
0.00125473
0.0012552
0.00125592
0.0012555
0.00125606
0.00125694
0.00125665
0.00125717
0.00125802
0.00125818
0.00125865
0.00125885
0.0012586
0.00125903
0.00125957
0.00125936
0.00125946
0.00125947
0.0012595
0.00125955
0.00125958
0.00125923
0.00125957
0.0012613
0.00126214
0.00126218
0.00126206
0.00126187
0.00126171
0.00126165
0.00126163
0.00126144
0.0012609
0.00126095
0.00126099
0.00126062
0.0012605
0.00126034
0.00126033
0.00126036
0.00126021
0.00126013
0.00125998
0.00125978
0.00125922
0.00125935
0.0012595
0.00125935
0.00125894
0.00125883
0.00125895
0.00125886
0.00125883
0.00125828
0.00125847
0.00125863
0.00125802
0.00125823
0.00125875
0.00125841
0.00125847
0.00125832
0.00125783
0.00118555
0.00122588
0.00124807
0.00125635
0.00125753
0.00125741
0.00125697
0.00125702
0.00125738
0.00125661
0.00125634
0.00125649
0.00125601
0.00125615
0.00125644
0.00125615
0.00125589
0.00125527
0.0012555
0.00125551
0.00125569
0.00125598
0.00125536
0.00125521
0.00125515
0.00125475
0.00125506
0.00125565
0.0012551
0.00125547
0.00125628
0.00125614
0.00125683
0.00125779
0.00125755
0.00125825
0.00125903
0.00125935
0.00125968
0.00125926
0.00125974
0.00126018
0.00125996
0.00126008
0.00125993
0.00126008
0.00126013
0.00125997
0.00125947
0.00125955
0.00125967
0.00125893
0.00125901
0.00125948
0.00125925
0.00125917
0.00125916
0.00125909
0.00125838
0.00125854
0.00125909
0.00125832
0.00125841
0.00125888
0.00125867
0.00125867
0.00125853
0.00125818
0.00125855
0.00125916
0.00125893
0.00125876
0.00125879
0.0012588
0.00125833
0.00125816
0.00125878
0.00125914
0.001259
0.00125877
0.00125832
0.00125823
0.00125801
0.00125841
0.00125865
0.00125795
0.00125808
0.00125859
0.00125855
0.0012583
0.00118558
0.00122586
0.00124785
0.00125677
0.00125973
0.00125993
0.00125959
0.00125945
0.00125936
0.00125907
0.00125881
0.00125867
0.00125844
0.0012582
0.00125742
0.00125725
0.0012571
0.00125673
0.00125634
0.00125615
0.00125607
0.00125578
0.00125559
0.00125485
0.00125479
0.00125512
0.00125518
0.00125479
0.00125519
0.00125595
0.00125631
0.00125647
0.00125703
0.00125759
0.00125803
0.00125849
0.00125812
0.00125869
0.00125917
0.00125897
0.00125917
0.00125935
0.00125915
0.00125909
0.00125938
0.00125931
0.00125978
0.00126006
0.00125998
0.00126
0.00125971
0.00126045
0.0012619
0.00126227
0.00126217
0.00126201
0.00126197
0.00126179
0.00126147
0.00126142
0.00126141
0.00126118
0.00126116
0.00126095
0.00126077
0.00126026
0.00126032
0.00126041
0.00126002
0.00126025
0.00126035
0.00126022
0.00126014
0.00126002
0.00125985
0.00125951
0.00125949
0.00125931
0.00125879
0.00125863
0.00125868
0.00125823
0.00125852
0.00125899
0.00125879
0.00125875
0.00125813
0.0012584
0.00125866
0.00125786
0.00118558
0.00122586
0.00124785
0.00125678
0.00125965
0.00126039
0.00126034
0.00126012
0.00126001
0.00125975
0.00125933
0.001259
0.00125877
0.00125846
0.001258
0.00125777
0.00125751
0.00125674
0.00125667
0.00125654
0.00125623
0.00125583
0.00125574
0.00125574
0.00125558
0.00125553
0.00125535
0.00125536
0.00125506
0.00125569
0.00125642
0.00125613
0.00125686
0.00125785
0.00125761
0.00125816
0.00125903
0.00125925
0.0012595
0.00126011
0.00126048
0.00126055
0.00126068
0.00126028
0.00126057
0.00126071
0.00126069
0.00126068
0.00126046
0.00126001
0.00125967
0.00126058
0.00126198
0.00126229
0.00126232
0.00126215
0.00126197
0.00126193
0.00126175
0.00126158
0.00126135
0.0012612
0.00126112
0.00126108
0.00126069
0.00126072
0.00126078
0.00126053
0.00126062
0.00126065
0.00126052
0.00126046
0.0012602
0.00126009
0.00125984
0.00125976
0.00125968
0.00125976
0.00125956
0.00125949
0.0012594
0.00125875
0.00125884
0.00125911
0.00125833
0.0012585
0.00125899
0.00125901
0.00125899
0.00125809
0.00118551
0.00122591
0.00124821
0.0012562
0.00125733
0.00125781
0.00125791
0.00125698
0.00125699
0.00125725
0.00125697
0.00125677
0.00125624
0.00125716
0.00125784
0.00125717
0.00125708
0.0012572
0.00125694
0.00125667
0.00125586
0.00125583
0.00125583
0.00125491
0.00125506
0.00125542
0.00125515
0.00125535
0.0012557
0.00125601
0.00125566
0.00125627
0.00125709
0.00125675
0.00125727
0.00125812
0.0012585
0.00125858
0.00125922
0.00126002
0.00126007
0.00126029
0.00126027
0.00126041
0.00126045
0.00126039
0.00126032
0.00126021
0.00126035
0.00126036
0.00125965
0.00125977
0.00125981
0.00125948
0.0012592
0.00125959
0.00126031
0.00125994
0.00125992
0.0012598
0.00125978
0.0012594
0.00125959
0.00125985
0.00125956
0.0012595
0.00125918
0.00125941
0.00125959
0.00125956
0.00125953
0.00125912
0.00125868
0.00125886
0.00125921
0.0012591
0.00125882
0.00125906
0.00125936
0.00125857
0.00125876
0.00125905
0.00125829
0.00125849
0.00125872
0.00125859
0.00125839
0.0012582
0.00125834
0.00125781
0.00118558
0.00122587
0.00124781
0.00125695
0.00125907
0.00125881
0.001259
0.00125906
0.00125864
0.00125863
0.00125865
0.00125835
0.00125797
0.00125732
0.00125698
0.00125672
0.001256
0.00125598
0.00125595
0.00125554
0.00125503
0.00125469
0.00125498
0.00125494
0.00125461
0.00125493
0.0012553
0.00125463
0.00125496
0.00125568
0.00125609
0.00125626
0.00125686
0.00125745
0.00125789
0.00125835
0.00125808
0.00125824
0.00125866
0.00125851
0.00125901
0.00125964
0.00125901
0.00125927
0.00125979
0.00125921
0.0012591
0.00125938
0.00125907
0.00125932
0.00125985
0.00125985
0.00125965
0.00125884
0.00125886
0.00125933
0.00125926
0.00125909
0.00125925
0.00125942
0.0012593
0.00125923
0.00125886
0.00125874
0.00125815
0.00125827
0.00125883
0.00125815
0.00125829
0.00125877
0.00125868
0.00125856
0.00125845
0.00125861
0.00125845
0.00125839
0.00125847
0.00125847
0.00125783
0.00125783
0.00125872
0.00125892
0.00125871
0.00125802
0.00125805
0.00125849
0.00125781
0.00125795
0.00125845
0.00125775
0.00118558
0.00122586
0.00124785
0.00125677
0.00125967
0.00126015
0.00126
0.0012599
0.0012596
0.00125931
0.00125912
0.00125883
0.00125838
0.00125811
0.00125795
0.00125767
0.00125742
0.00125701
0.00125637
0.00125622
0.00125631
0.00125586
0.00125569
0.00125553
0.00125502
0.00125475
0.0012548
0.0012545
0.00125504
0.00125582
0.00125543
0.00125605
0.00125689
0.00125695
0.00125711
0.00125799
0.00125875
0.00125898
0.00125882
0.00125893
0.00125941
0.0012597
0.00125974
0.00125915
0.00125925
0.00125985
0.0012595
0.00125985
0.00126022
0.00126004
0.0012597
0.00125947
0.00125943
0.0012589
0.00125873
0.00125894
0.00125865
0.00125898
0.00125932
0.00125866
0.00125846
0.00125911
0.00125936
0.00125914
0.00125868
0.0012585
0.00125868
0.00125814
0.00125829
0.00125877
0.00125804
0.00125796
0.00125876
0.00125892
0.00125872
0.00125811
0.00125815
0.00125858
0.00125793
0.00125804
0.00125856
0.00125802
0.0012583
0.00125866
0.00125858
0.00125854
0.00125827
0.00125852
0.00125858
0.00125821
0.00118558
0.00122586
0.00124785
0.00125678
0.00125964
0.00126037
0.00126047
0.00126025
0.00126
0.00125986
0.00125959
0.00125915
0.0012588
0.00125856
0.00125824
0.00125778
0.00125754
0.00125728
0.00125651
0.00125645
0.00125637
0.00125555
0.00125566
0.00125596
0.00125581
0.00125572
0.00125562
0.00125547
0.00125581
0.00125625
0.00125652
0.00125644
0.00125705
0.0012579
0.00125766
0.00125836
0.00125914
0.00125944
0.00125977
0.00125951
0.00125959
0.00126022
0.00126049
0.00126043
0.00125996
0.00126011
0.00126025
0.0012601
0.00126005
0.0012595
0.00125983
0.00126147
0.00126222
0.00126236
0.00126235
0.00126216
0.00126198
0.00126194
0.00126178
0.00126161
0.0012614
0.00126134
0.00126131
0.0012611
0.00126056
0.00126059
0.00126066
0.00126028
0.00126044
0.00126048
0.00126025
0.0012602
0.00126018
0.00126022
0.00126003
0.00125933
0.00125938
0.00125946
0.00125931
0.0012589
0.00125882
0.00125895
0.00125886
0.00125889
0.00125893
0.00125888
0.00125805
0.00125806
0.00125848
0.00125784
0.00118558
0.00122586
0.00124784
0.00125678
0.00125965
0.00126039
0.00126034
0.00126013
0.00126002
0.00125975
0.00125933
0.001259
0.00125878
0.00125847
0.00125801
0.00125777
0.00125752
0.00125674
0.00125667
0.00125655
0.00125618
0.00125576
0.00125565
0.00125566
0.00125545
0.00125494
0.00125501
0.00125546
0.00125506
0.00125555
0.00125642
0.00125619
0.00125689
0.00125785
0.00125761
0.00125816
0.00125903
0.00125924
0.00125951
0.00126013
0.00126049
0.00126055
0.00126068
0.00126028
0.00126057
0.00126071
0.00126069
0.00126068
0.00126049
0.00126018
0.0012598
0.00126061
0.00126203
0.00126195
0.0012617
0.00126163
0.00126147
0.00126127
0.00126108
0.00126104
0.00126081
0.00126087
0.00126086
0.00126057
0.00126056
0.00126054
0.00126046
0.00126026
0.00126007
0.00125957
0.00125975
0.00125985
0.00125965
0.00125922
0.001259
0.00125902
0.00125848
0.0012587
0.00125922
0.00125875
0.00125893
0.00125901
0.00125868
0.00125884
0.00125887
0.00125871
0.00125821
0.00125837
0.00125869
0.00125786
0.00118558
0.00122586
0.00124785
0.00125677
0.00125973
0.00125994
0.0012596
0.00125945
0.00125937
0.00125907
0.00125881
0.00125866
0.00125831
0.00125812
0.0012579
0.00125765
0.00125692
0.00125671
0.00125653
0.00125606
0.00125581
0.00125547
0.00125496
0.0012546
0.00125483
0.00125498
0.00125482
0.00125538
0.00125593
0.00125622
0.00125665
0.0012569
0.0012574
0.00125781
0.00125813
0.00125787
0.00125818
0.00125865
0.00125863
0.00125921
0.0012596
0.00125964
0.00125949
0.00125924
0.0012594
0.00125928
0.00125973
0.00126005
0.00125987
0.00125983
0.00125964
0.00126043
0.00126195
0.00126191
0.00126167
0.00126161
0.00126157
0.00126152
0.00126135
0.00126114
0.00126062
0.00126072
0.0012608
0.00126075
0.0012607
0.00125994
0.00126005
0.00126019
0.00125955
0.0012598
0.00125996
0.0012599
0.00125986
0.00125907
0.00125921
0.00125954
0.00125946
0.00125943
0.00125912
0.00125908
0.00125892
0.00125844
0.00125863
0.00125899
0.00125822
0.00125839
0.00125895
0.00125893
0.00125886
0.001258
0.00118555
0.00122588
0.00124808
0.00125631
0.00125764
0.00125751
0.0012574
0.0012569
0.0012571
0.00125755
0.00125731
0.00125707
0.00125641
0.00125645
0.00125661
0.00125612
0.00125586
0.00125559
0.00125528
0.00125534
0.00125501
0.0012553
0.0012557
0.00125494
0.0012552
0.00125555
0.0012549
0.00125528
0.00125596
0.00125626
0.00125665
0.00125631
0.00125698
0.00125787
0.00125772
0.00125805
0.00125893
0.00125969
0.00125996
0.00126001
0.0012603
0.00126055
0.0012605
0.00126062
0.00126072
0.0012608
0.00126067
0.00126042
0.00126027
0.00126
0.00125985
0.00125966
0.0012594
0.0012587
0.00125882
0.00125934
0.00125891
0.00125862
0.00125899
0.00125944
0.00125928
0.0012591
0.00125857
0.00125902
0.00125941
0.00125938
0.00125934
0.00125911
0.00125875
0.00125889
0.00125961
0.00125979
0.00125965
0.0012593