/*--------------------------------*- C++ -*----------------------------------*\
  =========                 |
  \\      /  F ield         | OpenFOAM: The Open Source CFD Toolbox
   \\    /   O peration     | Website:  https://openfoam.org
    \\  /    A nd           | Version:  11
     \\/     M anipulation  |
\*---------------------------------------------------------------------------*/
FoamFile
{
    format      ascii;
    class       volScalarField;
    location    "0.036";
    object      omega;
}
// * * * * * * * * * * * * * * * * * * * * * * * * * * * * * * * * * * * * * //

dimensions      [0 0 -1 0 0 0 0];

internalField   nonuniform List<scalar> 
287084
(
55.0948
55.9807
56.4297
56.5787
56.5943
56.592
56.5879
56.5805
56.5901
56.601
56.6
56.5987
56.588
56.583
56.5903
56.5879
56.5976
56.6102
56.5991
56.6063
56.611
56.603
56.6041
56.6037
56.5997
56.5914
56.5974
56.6062
56.6023
56.587
56.5868
56.5941
56.5779
56.5804
56.5907
56.5911
56.5923
56.5857
56.5845
56.5751
56.5823
56.5904
56.5727
56.5764
56.5871
56.57
56.5694
56.5874
56.5901
56.5854
56.5864
56.5863
56.5824
56.5808
56.5707
56.5777
56.5859
56.5843
56.5796
56.5789
56.5871
56.5748
56.5802
56.5912
56.5886
56.5881
56.5749
56.582
56.5901
56.5887
56.5898
56.582
56.5868
56.592
56.5954
56.5939
56.5903
56.5804
56.5855
56.5913
56.5914
56.5914
56.5778
56.5738
56.5751
56.5672
56.5748
56.5857
56.5838
56.5779
55.0969
55.9713
56.4256
56.5803
56.5979
56.5978
56.5993
56.5954
56.5961
56.5969
56.5962
56.5839
56.5867
56.5945
56.5764
56.5787
56.5904
56.5902
56.5843
56.5887
56.6086
56.6044
56.6052
56.6098
56.6094
56.5972
56.6037
56.6093
56.5929
56.5978
56.602
56.5836
56.587
56.5977
56.581
56.5795
56.5892
56.5854
56.5935
56.5978
56.5943
56.5883
56.5814
56.5912
56.5951
56.5907
56.5749
56.5744
56.5813
56.5689
56.5666
56.5797
56.5877
56.5844
56.5728
56.5788
56.5893
56.5748
56.5815
56.59
56.5882
56.5828
56.5821
56.5876
56.5778
56.5839
56.592
56.5893
56.5804
56.5832
56.5949
56.5963
56.5964
56.5799
56.5845
56.5958
56.5852
56.5899
56.5916
56.5875
56.5876
56.5868
56.5772
56.579
56.5816
56.5787
56.5705
56.5732
56.5849
56.5688
55.0969
55.9707
56.4251
56.5779
56.593
56.6024
56.6074
56.5934
56.5982
56.6109
56.6099
56.6105
56.6067
56.5939
56.5918
56.6011
56.6065
56.6037
56.5876
56.5867
56.5973
56.5961
56.6045
56.6116
56.6109
56.6107
56.5979
56.6023
56.6079
56.5912
56.597
56.6081
56.5916
56.5968
56.6085
56.5928
56.599
56.61
56.6008
56.5985
56.5959
56.5934
56.5963
56.599
56.5967
56.5902
56.5938
56.5975
56.5962
56.5958
56.5804
56.5836
56.5879
56.5759
56.5833
56.5914
56.5738
56.5783
56.5881
56.5875
56.5878
56.5814
56.585
56.5804
56.5894
56.595
56.5925
56.5849
56.5874
56.5931
56.5849
56.5838
56.5737
56.5805
56.5873
56.5719
56.5771
56.5927
56.5851
56.5851
56.5825
56.5893
56.592
56.5776
56.5832
56.5903
56.5733
56.5785
56.5849
56.5675
55.0964
55.9723
56.42
56.5814
56.6058
56.6173
56.6168
56.6115
56.6095
56.6106
56.6115
56.609
56.6086
56.6005
56.6069
56.6103
56.6062
56.5923
56.5928
56.6036
56.5997
56.6001
56.5939
56.5926
56.5917
56.5917
56.5827
56.5862
56.6056
56.6066
56.6032
56.5864
56.5875
56.5968
56.5819
56.5829
56.5939
56.5842
56.5908
56.6016
56.5947
56.595
56.5937
56.5898
56.5879
56.5876
56.5791
56.5767
56.5821
56.5871
56.5843
56.5804
56.5798
56.5699
56.5783
56.5903
56.5755
56.5819
56.5903
56.5867
56.5863
56.5769
56.5876
56.5976
56.597
56.5986
56.5948
56.5933
56.5951
56.5952
56.5816
56.5866
56.5929
56.5802
56.5859
56.6004
56.5985
56.5988
56.5993
56.5974
56.5793
56.5827
56.5909
56.591
56.591
56.5742
56.5797
56.5864
56.5838
56.576
55.0965
55.9719
56.4197
56.583
56.6082
56.6068
56.5996
56.6041
56.6107
56.5973
56.6032
56.6064
56.6029
56.6027
56.5958
56.5969
56.597
56.5938
56.5873
56.5871
56.587
56.6
56.6123
56.6038
56.606
56.6028
56.5915
56.5969
56.6066
56.592
56.5882
56.5933
56.5897
56.5989
56.6101
56.5975
56.6039
56.6074
56.6067
56.6064
56.5883
56.5913
56.5964
56.596
56.5958
56.5796
56.5849
56.5907
56.5764
56.5832
56.5919
56.5738
56.5743
56.5845
56.5746
56.581
56.5928
56.586
56.5876
56.5846
56.5746
56.5805
56.5923
56.576
56.5813
56.5908
56.5742
56.5767
56.5881
56.5762
56.5822
56.5941
56.593
56.5927
56.5796
56.5864
56.5939
56.5838
56.5838
56.5832
56.5744
56.5805
56.5918
56.5782
56.5854
56.5922
56.5778
56.5849
56.5921
56.573
55.0954
55.9748
56.4196
56.5666
56.5822
56.5708
56.5773
56.595
56.5966
56.5934
56.5766
56.58
56.5972
56.5881
56.5964
56.6062
56.5968
56.5976
56.5969
56.5981
56.5949
56.5845
56.5905
56.6007
56.5832
56.5821
56.5979
56.6004
56.5977
56.5882
56.5946
56.6086
56.6037
56.6037
56.5997
56.5869
56.5897
56.5969
56.5784
56.5808
56.5921
56.5775
56.5826
56.5952
56.5797
56.5853
56.5978
56.5894
56.5913
56.5881
56.5774
56.5819
56.5954
56.5936
56.5906
56.5809
56.5748
56.5829
56.5883
56.5848
56.5785
56.5708
56.5823
56.5927
56.5924
56.5924
56.588
56.5813
56.5796
56.5789
56.5908
56.5992
56.586
56.5924
56.5968
56.5806
56.5862
56.5948
56.5789
56.5839
56.5934
56.5817
56.5891
56.5947
56.5939
56.5925
56.5909
56.5925
56.59
56.576
55.0935
55.9781
56.4189
56.5707
56.5888
56.5755
56.5825
56.5901
56.5846
56.5797
56.5832
56.625
56.6332
56.6243
56.6253
56.6294
56.6299
56.6319
56.6299
56.626
56.6274
56.624
56.6123
56.6155
56.6183
56.6146
56.6068
56.6032
56.6049
56.6051
56.6008
56.6045
56.61
56.5924
56.5971
56.6082
56.5922
56.5975
56.6075
56.6058
56.6052
56.5912
56.5977
56.6048
56.5971
56.597
56.5959
56.5971
56.5942
56.5913
56.5827
56.5886
56.5919
56.5736
56.5731
56.5887
56.5908
56.5868
56.5745
56.5713
56.5763
56.5687
56.577
56.5859
56.5827
56.5824
56.5776
56.5773
56.5689
56.5771
56.5853
56.5694
56.5715
56.5854
56.5877
56.5879
56.5729
56.5776
56.5914
56.5815
56.5885
56.5923
56.5786
56.5843
56.5924
56.5891
56.5889
56.5886
56.588
56.5715
55.0961
55.9734
56.4156
56.5831
56.6348
56.6486
56.6488
56.6466
56.6438
56.6412
56.6414
56.6396
56.6369
56.6375
56.639
56.6363
56.634
56.633
56.6311
56.6273
56.6258
56.6223
56.6114
56.6151
56.6185
56.6154
56.6106
56.6038
56.6016
56.5909
56.5979
56.6095
56.5929
56.5981
56.6093
56.599
56.5948
56.6084
56.6167
56.6154
56.615
56.6018
56.6079
56.6136
56.6077
56.604
56.6063
56.6123
56.6092
56.6103
56.6114
56.6131
56.6101
56.6068
56.5999
56.5944
56.592
56.5889
56.5862
56.5789
56.5879
56.597
56.5902
56.5906
56.5906
56.5791
56.5842
56.5918
56.5811
56.5815
56.5812
56.5808
56.5687
56.5668
56.5882
56.5944
56.5919
56.5903
56.5759
56.5833
56.5956
56.588
56.5906
56.5912
56.5884
56.5777
56.5817
56.5902
56.5872
56.5752
55.0946
55.9765
56.4191
56.5705
56.592
56.5879
56.5874
56.5873
56.5799
56.5826
56.621
56.6319
56.6287
56.6276
56.6285
56.6306
56.6289
56.6312
56.6299
56.6275
56.6239
56.6215
56.6208
56.6177
56.6161
56.6152
56.6008
56.6
56.6051
56.5923
56.5988
56.61
56.5932
56.5984
56.6094
56.599
56.5944
56.607
56.6177
56.6153
56.6174
56.6121
56.6092
56.6108
56.6111
56.6089
56.6057
56.5851
56.5855
56.5895
56.572
56.5768
56.5842
56.5699
56.5671
56.583
56.5893
56.5857
56.5783
56.5709
56.5816
56.5886
56.5865
56.5857
56.574
56.582
56.594
56.586
56.5915
56.5939
56.59
56.5774
56.5756
56.5881
56.589
56.5902
56.5966
56.5978
56.5926
56.5921
56.5829
56.5882
56.5975
56.5912
56.5925
56.5913
56.5812
56.5779
56.5793
56.5676
55.0927
55.9789
56.4222
56.5575
56.5889
56.5872
56.5799
56.5751
56.5907
56.6009
56.5986
56.5953
56.5846
56.5959
56.6047
56.6015
56.5948
56.5879
56.5901
56.5863
56.5959
56.6027
56.5909
56.5883
56.6015
56.6062
56.5955
56.6033
56.6115
56.5932
56.5966
56.6081
56.6078
56.6089
56.6047
56.6018
56.5982
56.5883
56.5912
56.5939
56.5744
56.5766
56.5865
56.5708
56.5755
56.5852
56.5679
56.5688
56.58
56.5758
56.5781
56.578
56.5747
56.5635
56.5697
56.5818
56.5651
56.5659
56.5818
56.5867
56.583
56.5663
56.5666
56.5784
56.5786
56.5754
56.5807
56.587
56.5762
56.5754
56.5752
56.567
56.5726
56.5838
56.5668
56.5664
56.5839
56.5871
56.5833
56.569
56.5695
56.5854
56.5893
56.587
56.5853
56.5752
56.5787
56.5912
56.5888
56.5785
55.0946
55.9748
56.4217
56.5732
56.596
56.5938
56.5881
56.5807
56.5928
56.6007
56.5998
56.5964
56.6031
56.6117
56.5982
56.603
56.6186
56.6182
56.6156
56.6139
56.6017
56.6
56.6072
56.6064
56.6004
56.5948
56.5991
56.605
56.6022
56.5899
56.5974
56.6106
56.6064
56.6064
56.6022
56.5886
56.5904
56.5959
56.5772
56.5794
56.5901
56.5755
56.5805
56.5929
56.5775
56.5814
56.5953
56.5963
56.5957
56.578
56.5816
56.5886
56.5714
56.574
56.5848
56.5818
56.5815
56.5738
56.579
56.5824
56.5789
56.5676
56.5687
56.5835
56.5834
56.5806
56.5666
56.5666
56.5821
56.5816
56.5818
56.5807
56.591
56.597
56.5824
56.5888
56.5978
56.5866
56.5929
56.597
56.5862
56.5934
56.5973
56.5787
56.5824
56.5914
56.5799
56.5786
56.5783
56.5693
55.0941
55.9765
56.4185
56.5764
56.5987
56.598
56.6011
56.598
56.5913
56.5892
56.6158
56.6333
56.6263
56.6322
56.6347
56.6304
56.6307
56.6301
56.6202
56.623
56.6253
56.6138
56.6209
56.6262
56.623
56.6179
56.6103
56.6058
56.5916
56.5968
56.6049
56.5864
56.5897
56.5997
56.5823
56.5851
56.5959
56.5805
56.5851
56.5968
56.5809
56.5861
56.5979
56.5893
56.591
56.5877
56.5767
56.5822
56.5921
56.5931
56.5899
56.5864
56.5774
56.576
56.5821
56.5734
56.5792
56.5814
56.5685
56.5702
56.5886
56.5904
56.5887
56.5906
56.5893
56.5853
56.5722
56.5761
56.5917
56.5917
56.5904
56.5724
56.575
56.5852
56.5854
56.5852
56.5685
56.5736
56.5897
56.5879
56.5876
56.576
56.5829
56.5883
56.5851
56.5846
56.5743
56.5825
56.5894
56.5712
55.0961
55.9734
56.4155
56.5828
56.6351
56.6428
56.6398
56.6405
56.6373
56.6366
56.6354
56.6318
56.6343
56.6368
56.6349
56.6335
56.6313
56.6299
56.6307
56.6332
56.6302
56.6238
56.6191
56.6222
56.6233
56.6199
56.6056
56.6056
56.6108
56.5958
56.6015
56.6117
56.6048
56.5986
56.6068
56.6149
56.6147
56.6144
56.5987
56.6032
56.6102
56.6067
56.6061
56.5949
56.6012
56.6058
56.6021
56.6017
56.5973
56.5987
56.5969
56.5932
56.579
56.5822
56.5916
56.5916
56.5915
56.5758
56.5824
56.5949
56.5944
56.5942
56.5789
56.5855
56.595
56.5787
56.5841
56.5921
56.5812
56.5816
56.5811
56.5807
56.5685
56.5666
56.588
56.5943
56.5911
56.586
56.5759
56.5842
56.5897
56.5875
56.5871
56.5753
56.5831
56.596
56.5885
56.5888
56.5882
56.5741
55.0932
55.9774
56.423
56.5638
56.5776
56.5698
56.5793
56.5956
56.5866
56.5868
56.5868
56.5787
56.5819
56.5939
56.5904
56.5963
56.5985
56.5918
56.5909
56.5997
56.597
56.6063
56.619
56.6091
56.6146
56.6169
56.6125
56.6128
56.6094
56.5977
56.6018
56.6117
56.6051
56.5984
56.606
56.6148
56.6114
56.6093
56.6088
56.6106
56.6081
56.6045
56.6034
56.6052
56.6018
56.6022
56.6013
56.5958
56.5863
56.5836
56.5759
56.5835
56.5908
56.5904
56.5902
56.5746
56.5784
56.5878
56.5875
56.5874
56.5724
56.5768
56.5894
56.5826
56.582
56.5741
56.5817
56.588
56.5854
56.5849
56.5714
56.5749
56.5899
56.5803
56.5871
56.5995
56.5894
56.5964
56.6004
56.5968
56.5975
56.5963
56.5946
56.5802
56.5833
56.5943
56.5954
56.5955
56.5913
56.578
55.0961
55.9734
56.4155
56.5829
56.6346
56.6484
56.6486
56.6465
56.6442
56.642
56.6419
56.6399
56.6373
56.6373
56.6356
56.6307
56.6281
56.6241
56.6278
56.63
56.6262
56.6235
56.626
56.628
56.6238
56.6144
56.608
56.6063
56.6009
56.6009
56.6005
56.5907
56.595
56.6021
56.583
56.5849
56.5949
56.5795
56.584
56.5954
56.5793
56.5846
56.596
56.5929
56.5921
56.5785
56.5838
56.5937
56.5895
56.5885
56.5872
56.587
56.5901
56.5926
56.5905
56.5892
56.5754
56.5856
56.6012
56.5929
56.5988
56.6062
56.6002
56.5999
56.599
56.5837
56.5857
56.5915
56.5808
56.5813
56.581
56.5805
56.5684
56.5665
56.5879
56.5942
56.591
56.5859
56.5758
56.5841
56.5895
56.5856
56.5759
56.5725
56.5779
56.5747
56.5824
56.5868
56.5829
56.57
55.0982
55.9692
56.4186
56.5799
56.6007
56.5915
56.5997
56.6068
56.5969
56.6006
56.6055
56.6024
56.591
56.5958
56.6049
56.6022
56.5972
56.5898
56.5942
56.5986
56.5972
56.5938
56.6042
56.6098
56.5962
56.6021
56.6116
56.5965
56.5939
56.6074
56.6105
56.6013
56.6077
56.6116
56.599
56.5981
56.5959
56.5962
56.5922
56.5775
56.5798
56.5869
56.5691
56.5678
56.5778
56.5694
56.5733
56.5908
56.5917
56.5895
56.5892
56.5881
56.5764
56.5799
56.6126
56.619
56.616
56.6177
56.6188
56.6195
56.6158
56.6086
56.6112
56.6128
56.6086
56.6084
56.6047
56.5899
56.5913
56.5956
56.5783
56.5831
56.5913
56.5898
56.5896
56.5792
56.5845
56.5866
56.5741
56.5786
56.5957
56.5952
56.5923
56.5781
56.5836
56.5917
56.5833
56.5831
56.5827
56.5721
55.0975
55.972
56.4127
56.5809
56.6338
56.648
56.6517
56.6495
56.6468
56.6441
56.6424
56.6426
56.6411
56.6359
56.6329
56.6337
56.6339
56.624
56.6275
56.6296
56.6133
56.6181
56.6236
56.6222
56.6218
56.6188
56.6165
56.5993
56.6023
56.6099
56.6089
56.6084
56.5888
56.5915
56.5962
56.596
56.5956
56.5749
56.576
56.5851
56.5695
56.5724
56.5871
56.5862
56.5833
56.5677
56.57
56.5827
56.5844
56.5843
56.5847
56.585
56.5722
56.5835
56.6059
56.5981
56.6057
56.61
56.5999
56.6062
56.609
56.5989
56.6021
56.603
56.5984
56.598
56.5965
56.5835
56.5865
56.5913
56.5832
56.5834
56.5842
56.583
56.5682
56.5663
56.5821
56.5898
56.5875
56.5844
56.576
56.5793
56.5908
56.5822
56.5885
56.5915
56.5813
56.5888
56.5931
56.5736
55.0961
55.9733
56.4155
56.583
56.6348
56.6485
56.6517
56.6527
56.6496
56.6474
56.6453
56.6435
56.6438
56.6424
56.6372
56.6343
56.6345
56.6334
56.6326
56.6254
56.6283
56.6309
56.6249
56.6258
56.6223
56.6112
56.609
56.6106
56.5982
56.6043
56.6096
56.5908
56.5946
56.6019
56.5827
56.5846
56.594
56.5782
56.5825
56.5936
56.5775
56.5812
56.5937
56.5876
56.5895
56.5855
56.5841
56.5863
56.5867
56.5815
56.5814
56.5778
56.5883
56.6072
56.5985
56.6057
56.61
56.6075
56.6058
56.6065
56.6072
56.5992
56.6003
56.5996
56.589
56.5926
56.5956
56.5828
56.588
56.5952
56.595
56.5948
56.5847
56.5763
56.5843
56.5928
56.5892
56.5811
56.5752
56.5772
56.5749
56.5851
56.5903
56.5881
56.5869
56.5732
56.5808
56.5909
56.5876
56.5755
55.0975
55.972
56.4127
56.5809
56.6338
56.6483
56.6486
56.6466
56.644
56.642
56.6422
56.6407
56.6352
56.6322
56.6331
56.6333
56.6233
56.6268
56.6291
56.613
56.6181
56.6245
56.6138
56.6138
56.6128
56.6018
56.606
56.614
56.5953
56.5977
56.6083
56.5927
56.5961
56.604
56.6044
56.6043
56.6012
56.6002
56.595
56.5896
56.573
56.5775
56.5855
56.5671
56.5708
56.5799
56.5629
56.5665
56.5786
56.5796
56.5797
56.569
56.5643
56.5807
56.6072
56.6002
56.6062
56.613
56.6099
56.6099
56.6109
56.6129
56.6116
56.6105
56.6066
56.5931
56.597
56.5996
56.5945
56.5958
56.594
56.5906
56.5889
56.5898
56.5865
56.5755
56.5782
56.5908
56.5908
56.5903
56.5745
56.5786
56.5875
56.574
56.5805
56.5855
56.5703
56.5759
56.5868
56.5692
55.0975
55.9721
56.4117
56.5867
56.6141
56.614
56.6145
56.6125
56.6089
56.612
56.6137
56.6029
56.5984
56.6043
56.6128
56.6113
56.6116
56.6051
56.6021
56.5946
56.6001
56.6242
56.6259
56.6248
56.6071
56.6061
56.6115
56.5964
56.601
56.6092
56.5906
56.5941
56.6032
56.5847
56.5868
56.5963
56.5866
56.5856
56.585
56.5744
56.5783
56.5856
56.5787
56.5794
56.5745
56.5743
56.5749
56.5756
56.5699
56.5803
56.6201
56.6348
56.6389
56.6371
56.6343
56.6349
56.6323
56.6298
56.6264
56.6188
56.6221
56.6238
56.6154
56.6148
56.615
56.6131
56.612
56.6092
56.6075
56.6068
56.6032
56.5925
56.5968
56.6003
56.5973
56.5884
56.5886
56.5924
56.5874
56.5867
56.5763
56.5804
56.5837
56.5711
56.5765
56.5878
56.5784
56.5774
56.5772
56.5687
55.0954
55.9741
56.42
56.5695
56.5859
56.5838
56.5758
56.5806
56.5916
56.5747
56.5745
56.5865
56.5788
56.5869
56.598
56.5962
56.5961
56.5903
56.6013
56.6042
56.6148
56.6266
56.6173
56.6175
56.6167
56.6058
56.6104
56.6185
56.5999
56.6017
56.6113
56.5961
56.6007
56.6105
56.5937
56.5989
56.6059
56.6031
56.6023
56.5872
56.5927
56.5974
56.5904
56.5917
56.5857
56.586
56.5866
56.5829
56.572
56.575
56.5784
56.5637
56.5679
56.5799
56.5768
56.5769
56.5753
56.5744
56.561
56.5671
56.5801
56.5637
56.568
56.5798
56.5736
56.5717
56.5689
56.5653
56.5772
56.5906
56.5842
56.5817
56.5833
56.5841
56.5721
56.5701
56.5876
56.5941
56.5902
56.5818
56.5753
56.5771
56.572
56.5803
56.5847
56.5697
56.5737
56.5854
56.5843
56.5791
55.0961
55.9733
56.4155
56.5829
56.636
56.6406
56.6371
56.6374
56.6356
56.6326
56.6329
56.6345
56.6323
56.6321
56.6216
56.6229
56.6251
56.6223
56.6197
56.622
56.6253
56.623
56.6222
56.6093
56.6104
56.6178
56.6144
56.6003
56.6039
56.613
56.6105
56.6029
56.6039
56.6048
56.6027
56.6017
56.5841
56.5878
56.5901
56.5799
56.58
56.5788
56.5667
56.5644
56.5731
56.5697
56.5788
56.584
56.5823
56.5814
56.5786
56.601
56.6304
56.6378
56.6397
56.6373
56.635
56.632
56.6295
56.6302
56.6313
56.6269
56.6251
56.6211
56.6184
56.611
56.6138
56.6165
56.6103
56.6153
56.6175
56.6146
56.6102
56.6079
56.6059
56.5986
56.5975
56.5962
56.5837
56.5824
56.5873
56.5758
56.5826
56.5925
56.5869
56.5859
56.5738
56.5802
56.5856
56.5686
55.0961
55.9734
56.4155
56.583
56.6349
56.6485
56.6519
56.6495
56.6473
56.6447
56.6428
56.6431
56.6418
56.6367
56.6338
56.6349
56.6352
56.6257
56.6295
56.632
56.6303
56.6262
56.628
56.6304
56.627
56.6214
56.6145
56.6124
56.6011
56.6076
56.6133
56.5959
56.6011
56.6109
56.5938
56.5962
56.6059
56.598
56.5963
56.6042
56.606
56.6021
56.6015
56.5917
56.5961
56.5977
56.5967
56.5966
56.5921
56.5795
56.5762
56.6038
56.6313
56.6378
56.6394
56.6403
56.6376
56.6351
56.6323
56.6298
56.6295
56.6305
56.6269
56.6259
56.6206
56.6217
56.6237
56.6213
56.6223
56.6234
56.6231
56.6208
56.6126
56.6094
56.6076
56.6095
56.6053
56.604
56.603
56.605
56.6013
56.5861
56.589
56.595
56.5779
56.5826
56.5936
56.593
56.5922
56.5733
55.0946
55.9751
56.4228
56.5656
56.5791
56.5898
56.5969
56.5791
56.5834
56.5929
56.5897
56.5862
56.5827
56.6146
56.6323
56.6236
56.6275
56.6359
56.6356
56.6353
56.624
56.6276
56.6311
56.6133
56.6177
56.6244
56.6171
56.618
56.6159
56.6118
56.5957
56.5992
56.6053
56.5855
56.587
56.5956
56.59
56.5825
56.5909
56.601
56.595
56.5947
56.5934
56.5957
56.5917
56.5895
56.5905
56.5883
56.59
56.5906
56.5766
56.5804
56.5824
56.5752
56.5711
56.5847
56.601
56.5954
56.5975
56.5929
56.5902
56.5862
56.5933
56.5998
56.593
56.5925
56.5888
56.5945
56.5987
56.5985
56.5983
56.5881
56.5799
56.5865
56.5943
56.5922
56.5862
56.593
56.5993
56.582
56.5869
56.5932
56.5766
56.5815
56.5864
56.5838
56.5759
56.5744
56.5817
56.5683
55.0961
55.9735
56.4149
56.5863
56.6225
56.6175
56.6227
56.6262
56.622
56.6242
56.625
56.6259
56.6234
56.614
56.614
56.6146
56.6037
56.6091
56.6138
56.6108
56.6014
56.6012
56.6133
56.6137
56.6094
56.6146
56.6194
56.5992
56.6012
56.609
56.6071
56.5991
56.6
56.6011
56.5983
56.597
56.5778
56.5747
56.5795
56.5673
56.5726
56.5814
56.5637
56.5679
56.5779
56.5605
56.5597
56.5701
56.5621
56.5684
56.5777
56.578
56.578
56.5623
56.5658
56.5786
56.5784
56.576
56.5799
56.5846
56.5826
56.5824
56.5743
56.5721
56.5621
56.5675
56.5811
56.5659
56.5705
56.5818
56.5804
56.5752
56.5751
56.583
56.5759
56.5755
56.578
56.5783
56.5654
56.5673
56.5871
56.5899
56.5856
56.5696
56.5726
56.5831
56.5666
56.5707
56.5823
56.5662
55.0961
55.9734
56.4155
56.583
56.6351
56.646
56.6452
56.6428
56.6413
56.6416
56.6401
56.6346
56.6316
56.6324
56.6347
56.6334
56.6329
56.6301
56.6229
56.6267
56.6338
56.6305
56.6313
56.6291
56.6136
56.6088
56.6106
56.5974
56.6024
56.6106
56.5914
56.5945
56.6014
56.5874
56.5806
56.591
56.5966
56.5921
56.5765
56.575
56.5811
56.5824
56.5822
56.5647
56.5668
56.5806
56.5709
56.5786
56.5866
56.5836
56.5737
56.5724
56.5765
56.5614
56.5605
56.571
56.5646
56.573
56.5811
56.5651
56.5636
56.5825
56.5874
56.5836
56.5707
56.5706
56.5795
56.566
56.5706
56.5819
56.5656
56.5663
56.5847
56.5867
56.583
56.5692
56.5724
56.5827
56.5674
56.5712
56.5836
56.5707
56.5774
56.585
56.5825
56.5783
56.5757
56.5826
56.5835
56.5778
55.0961
55.9734
56.4155
56.583
56.6348
56.6485
56.6516
56.6526
56.6501
56.6479
56.6455
56.6438
56.6441
56.643
56.6381
56.6352
56.6366
56.6369
56.6276
56.6315
56.6345
56.6219
56.6284
56.6335
56.6337
56.6336
56.6244
56.6171
56.6185
56.6196
56.6153
56.6023
56.6052
56.6123
56.5945
56.5992
56.6057
56.6021
56.601
56.5863
56.5844
56.5958
56.5971
56.5933
56.5808
56.5838
56.5864
56.5825
56.582
56.5724
56.5836
56.6212
56.6352
56.6386
56.6396
56.6402
56.6376
56.635
56.6329
56.6304
56.6304
56.6307
56.6311
56.628
56.6169
56.6187
56.6211
56.6151
56.6183
56.6194
56.6173
56.6174
56.6147
56.6126
56.6108
56.5973
56.5988
56.6008
56.5977
56.5888
56.5893
56.5929
56.5914
56.5927
56.5908
56.5883
56.5711
56.5734
56.5839
56.5684
55.0961
55.9734
56.4155
56.583
56.6349
56.6486
56.6519
56.6496
56.6474
56.6447
56.6429
56.6432
56.642
56.6368
56.6339
56.635
56.6354
56.6258
56.6296
56.6323
56.6283
56.6241
56.6259
56.6287
56.6248
56.6122
56.6132
56.6192
56.6015
56.605
56.6145
56.5974
56.6018
56.611
56.5939
56.5962
56.6059
56.598
56.5964
56.6046
56.6061
56.6022
56.6016
56.5917
56.5961
56.5977
56.5966
56.5965
56.5919
56.5829
56.5791
56.604
56.632
56.6325
56.631
56.6317
56.6261
56.6233
56.6233
56.6242
56.62
56.6205
56.6213
56.6182
56.6198
56.6171
56.6127
56.6089
56.6068
56.5991
56.6044
56.6066
56.6027
56.5902
56.5887
56.593
56.5797
56.5851
56.5966
56.5871
56.5904
56.592
56.5868
56.589
56.5894
56.5862
56.575
56.5794
56.5864
56.5684
55.0961
55.9734
56.4155
56.5829
56.636
56.6406
56.6372
56.6375
56.6357
56.6326
56.6329
56.6345
56.6321
56.6336
56.6312
56.6294
56.6214
56.6226
56.6244
56.6188
56.6188
56.618
56.6067
56.6023
56.6099
56.6117
56.6077
56.6149
56.6199
56.6174
56.6169
56.611
56.6087
56.6058
56.6042
56.5853
56.5847
56.5896
56.5795
56.5848
56.587
56.5827
56.5723
56.5674
56.5732
56.5688
56.5777
56.584
56.5826
56.5829
56.5794
56.6008
56.631
56.6323
56.631
56.6316
56.6294
56.6263
56.6237
56.6234
56.6151
56.6175
56.6203
56.62
56.6199
56.6047
56.6079
56.6116
56.599
56.6051
56.6085
56.6075
56.6073
56.5909
56.5948
56.6022
56.6001
56.5998
56.5921
56.5915
56.5885
56.5791
56.5847
56.5924
56.5754
56.5806
56.5932
56.5911
56.5882
56.5708
55.0954
55.9741
56.42
56.5689
56.5887
56.5878
56.5879
56.5782
56.586
56.5989
56.5964
56.5916
56.5848
56.593
56.6015
56.5979
56.5988
56.5953
56.5942
56.6055
56.6022
56.6128
56.624
56.6097
56.6167
56.6232
56.6063
56.6108
56.6194
56.6174
56.6165
56.5992
56.6037
56.6119
56.5944
56.593
56.6049
56.6116
56.6087
56.6031
56.6046
56.6055
56.6032
56.6038
56.6016
56.6011
56.5977
56.5897
56.5882
56.5823
56.5788
56.5755
56.5719
56.5601
56.566
56.5788
56.568
56.5641
56.5763
56.5863
56.5831
56.5764
56.5689
56.5832
56.5915
56.5913
56.5913
56.5858
56.5791
56.5854
56.5991
56.6056
56.6032
56.5957
56.5964
56.5959
56.5976
56.5943
56.5851
56.5829
56.5859
56.5784
56.5792
56.5964
56.5992
56.5952
56.5818
56.5841
56.5876
56.5688
55.0982
55.969
56.4195
56.5777
56.5984
56.5906
56.5989
56.6061
56.598
56.6
56.5968
56.5848
56.5875
56.6031
56.6041
56.6002
56.5841
56.5873
56.6034
56.5976
56.6062
56.6121
56.6084
56.608
56.5985
56.6052
56.6148
56.5964
56.5983
56.6088
56.594
56.5943
56.6069
56.6074
56.6062
56.5936
56.5981
56.6019
56.598
56.5908
56.5817
56.5825
56.5864
56.584
56.5773
56.5758
56.5752
56.5669
56.5701
56.5848
56.573
56.58
56.59
56.5842
56.5792
56.5889
56.6056
56.598
56.6042
56.6067
56.604
56.5967
56.6
56.6023
56.5977
56.5968
56.5971
56.5989
56.593
56.5897
56.5876
56.5873
56.5832
56.5763
56.5844
56.5929
56.5892
56.5811
56.5749
56.5769
56.5699
56.5776
56.5828
56.5788
56.5783
56.5694
56.5758
56.5832
56.5799
56.5689
55.0982
55.9692
56.4186
56.5797
56.6007
56.5912
56.5988
56.6064
56.5956
56.5952
56.595
56.5848
56.5863
56.6032
56.6049
56.6006
56.5849
56.5832
56.606
56.6127
56.6092
56.5968
56.5997
56.6099
56.5933
56.5967
56.6095
56.5943
56.5976
56.6092
56.5941
56.5994
56.607
56.6061
56.6054
56.5865
56.5891
56.5964
56.5943
56.5927
56.5856
56.5809
56.5662
56.5708
56.5806
56.5808
56.5808
56.5661
56.5684
56.6045
56.6147
56.6041
56.6093
56.6159
56.6128
56.6123
56.6017
56.6062
56.6109
56.6096
56.6096
56.6029
56.6021
56.5966
56.6019
56.604
56.6001
56.6008
56.6018
56.6007
56.5848
56.5877
56.5927
56.5906
56.5918
56.5901
56.5875
56.5704
56.5692
56.5785
56.5742
56.5744
56.5739
56.5741
56.5653
56.5714
56.5872
56.5852
56.5823
56.5658
55.0961
55.9734
56.4155
56.583
56.6348
56.6484
56.6519
56.6494
56.6469
56.6475
56.6451
56.6435
56.6437
56.6424
56.6372
56.6343
56.6345
56.6333
56.6326
56.6255
56.6284
56.6309
56.625
56.6256
56.6222
56.6086
56.6109
56.6171
56.5991
56.6029
56.6136
56.6028
56.598
56.6032
56.6049
56.5962
56.6034
56.6105
56.5945
56.5995
56.6089
56.599
56.6042
56.6105
56.6069
56.6079
56.6083
56.6063
56.6035
56.5995
56.5926
56.5777
56.5845
56.6056
56.5964
56.6041
56.6088
56.6026
56.6048
56.6009
56.5984
56.5971
56.5992
56.5962
56.587
56.5921
56.5949
56.5824
56.5878
56.5952
56.595
56.5948
56.5847
56.5764
56.5843
56.5929
56.5908
56.5895
56.5756
56.5831
56.5953
56.5877
56.59
56.5905
56.5878
56.5772
56.5815
56.5903
56.5872
56.5752
55.0975
55.972
56.4126
56.581
56.6339
56.6481
56.6515
56.6524
56.6499
56.6478
56.6452
56.6434
56.6436
56.6423
56.637
56.634
56.6349
56.6373
56.636
56.6349
56.6321
56.6249
56.6279
56.6344
56.6307
56.6307
56.6302
56.631
56.625
56.6042
56.6044
56.612
56.6059
56.5981
56.6048
56.6132
56.6132
56.6128
56.5963
56.6007
56.6084
56.5993
56.597
56.5982
56.6011
56.5985
56.5918
56.5954
56.5984
56.5979
56.5979
56.59
56.5825
56.587
56.5956
56.6039
56.6032
56.5935
56.5899
56.6029
56.6129
56.6045
56.6093
56.6156
56.6146
56.6146
56.6106
56.6054
56.6004
56.5984
56.5938
56.5991
56.6016
56.6001
56.5997
56.5829
56.586
56.5945
56.592
56.5891
56.5737
56.5791
56.5896
56.5736
56.5793
56.5889
56.572
56.5763
56.5869
56.5693
55.0975
55.9721
56.4117
56.5867
56.6143
56.6155
56.6156
56.6003
56.6063
56.6129
56.5992
56.6046
56.6077
56.5939
56.5999
56.6041
56.5951
56.5903
56.6007
56.6117
56.6086
56.5969
56.5957
56.6029
56.5897
56.5938
56.6071
56.5923
56.5975
56.6072
56.6035
56.6038
56.5976
56.6036
56.6061
56.6013
56.5843
56.5828
56.5881
56.5724
56.5748
56.5857
56.5724
56.5785
56.5851
56.5834
56.5786
56.578
56.5845
56.5863
56.5864
56.5767
56.5727
56.5908
56.6074
56.5973
56.6034
56.6111
56.6081
56.5981
56.596
56.6012
56.5964
56.6033
56.6113
56.606
56.606
56.6056
56.5923
56.5945
56.6008
56.5915
56.5912
56.5918
56.5903
56.5925
56.5929
56.5795
56.5856
56.593
56.591
56.585
56.5853
56.5881
56.5723
56.5781
56.5924
56.5915
56.59
56.5713
55.0961
55.9734
56.4155
56.5829
56.6346
56.6482
56.6517
56.6492
56.6465
56.647
56.6449
56.643
56.6433
56.6419
56.6365
56.6336
56.6318
56.6314
56.6303
56.6301
56.6313
56.6319
56.6298
56.6115
56.6122
56.6175
56.6018
56.6074
56.6143
56.6115
56.6074
56.6008
56.5978
56.5838
56.5871
56.5974
56.5815
56.586
56.5971
56.5808
56.586
56.5972
56.5814
56.5872
56.5969
56.5837
56.5893
56.5979
56.5894
56.5946
56.5963
56.593
56.5879
56.5811
56.5894
56.5982
56.5952
56.5846
56.589
56.5999
56.5977
56.5902
56.5928
56.5985
56.5836
56.5898
56.5957
56.5829
56.5903
56.5973
56.5969
56.5967
56.587
56.5783
56.5831
56.5919
56.5885
56.5811
56.5727
56.5832
56.5896
56.5858
56.5759
56.5725
56.5778
56.5747
56.5823
56.5867
56.5828
56.5699
55.0939
55.9774
56.4207
56.5653
56.5791
56.5773
56.5711
56.5743
56.5852
56.5856
56.5856
56.5726
56.5715
56.5979
56.6227
56.6213
56.6221
56.6176
56.624
56.6263
56.6169
56.6223
56.6255
56.6251
56.6249
56.6083
56.6059
56.608
56.595
56.6001
56.6118
56.6038
56.5981
56.6013
56.6023
56.6094
56.6151
56.599
56.6047
56.6109
56.6034
56.6025
56.5941
56.5998
56.6034
56.5992
56.5853
56.5832
56.5859
56.5716
56.5756
56.5864
56.5762
56.5819
56.5845
56.5816
56.5732
56.5755
56.5829
56.5804
56.5749
56.5701
56.5797
56.5871
56.5832
56.5674
56.568
56.5791
56.5776
56.5806
56.5812
56.573
56.5726
56.5856
56.5839
56.5844
56.5839
56.5843
56.5776
56.5854
56.5935
56.5843
56.5839
56.5827
56.5847
56.584
56.5733
56.5767
56.5863
56.569
55.0961
55.9733
56.4154
56.583
56.6349
56.6455
56.6443
56.6448
56.6448
56.6393
56.6371
56.6373
56.6369
56.6348
56.6323
56.6309
56.629
56.63
56.6305
56.6306
56.6201
56.6215
56.6229
56.6221
56.6218
56.6053
56.6018
56.6085
56.6106
56.6061
56.6118
56.6151
56.6063
56.5993
56.602
56.6052
56.6102
56.6113
56.6093
56.6054
56.6077
56.6136
56.6028
56.6083
56.6108
56.6025
56.6064
56.6077
56.6063
56.6058
56.5907
56.5931
56.595
56.5765
56.5782
56.5889
56.5765
56.583
56.5923
56.5759
56.5751
56.5828
56.5772
56.5872
56.597
56.5837
56.5886
56.5917
56.5811
56.588
56.5922
56.5896
56.5876
56.577
56.5853
56.5933
56.5904
56.5854
56.5758
56.5841
56.5896
56.5857
56.576
56.5727
56.5781
56.5748
56.5824
56.5868
56.5829
56.57
55.0941
55.9765
56.4185
56.5764
56.5987
56.5979
56.6011
56.5979
56.5914
56.5892
56.6159
56.6332
56.6262
56.6322
56.6348
56.6304
56.6308
56.6239
56.6265
56.6285
56.6168
56.6216
56.6244
56.6236
56.6236
56.6149
56.6141
56.6148
56.6141
56.6092
56.5928
56.5968
56.6087
56.5922
56.5923
56.602
56.5937
56.6016
56.6112
56.5982
56.6039
56.6069
56.593
56.5984
56.6022
56.5984
56.5903
56.5858
56.587
56.5927
56.59
56.5866
56.5773
56.5758
56.5819
56.5733
56.5791
56.5814
56.5685
56.5738
56.5843
56.5808
56.5813
56.5792
56.5815
56.5784
56.5696
56.5758
56.5919
56.5918
56.5904
56.5724
56.575
56.5851
56.5853
56.5852
56.5685
56.5716
56.5947
56.5957
56.5919
56.583
56.5774
56.5858
56.5899
56.5823
56.5903
56.5978
56.5943
56.5824
55.0932
55.9774
56.4231
56.5638
56.5776
56.5698
56.5689
56.5915
56.6202
56.6189
56.6155
56.6179
56.6192
56.6182
56.6156
56.6143
56.6151
56.6121
56.6127
56.6127
56.614
56.6103
56.602
56.5952
56.5949
56.5871
56.5946
56.6074
56.5978
56.5977
56.5969
56.5869
56.5916
56.6018
56.5849
56.5886
56.598
56.5907
56.5915
56.5904
56.579
56.5819
56.5887
56.5741
56.5805
56.5871
56.572
56.5783
56.5898
56.573
56.5722
56.5905
56.5935
56.5899
56.5834
56.5739
56.581
56.587
56.5832
56.5736
56.5705
56.576
56.5704
56.5786
56.583
56.5681
56.5738
56.5854
56.5849
56.5846
56.5679
56.5692
56.5853
56.579
56.588
56.5983
56.5893
56.5957
56.598
56.5943
56.5826
56.5863
56.5958
56.5791
56.5843
56.5931
56.5842
56.5846
56.5814
56.5705
55.096
55.9742
56.4169
56.5718
56.595
56.5853
56.5904
56.5931
56.5841
56.5893
56.5915
56.6004
56.6103
56.6029
56.603
56.5967
56.603
56.6079
56.6062
56.6059
56.5942
56.6025
56.611
56.6072
56.5971
56.5942
56.5992
56.5874
56.5931
56.6034
56.5993
56.5988
56.5909
56.5964
56.5981
56.5849
56.5908
56.5971
56.578
56.5795
56.5901
56.5759
56.5809
56.5935
56.5781
56.5823
56.5961
56.5972
56.5966
56.5783
56.5819
56.589
56.5718
56.5744
56.5852
56.5822
56.5819
56.5742
56.5762
56.5856
56.5891
56.5861
56.5776
56.5745
56.5827
56.5833
56.5951
56.6038
56.6033
56.6033
56.5985
56.5979
56.5894
56.591
56.5946
56.5876
56.5931
56.6003
56.5969
56.5853
56.5879
56.592
56.5918
56.5917
56.5724
56.5758
56.5852
56.5857
56.5857
56.5666
55.0961
55.9732
56.4195
56.5689
56.5938
56.5927
56.5877
56.5864
56.5811
56.5839
56.6179
56.6334
56.626
56.6318
56.6342
56.6298
56.6301
56.6302
56.6315
56.6278
56.6267
56.6232
56.6112
56.6144
56.6173
56.6145
56.6107
56.602