/*--------------------------------*- C++ -*----------------------------------*\
  =========                 |
  \\      /  F ield         | OpenFOAM: The Open Source CFD Toolbox
   \\    /   O peration     | Website:  https://openfoam.org
    \\  /    A nd           | Version:  11
     \\/     M anipulation  |
\*---------------------------------------------------------------------------*/
FoamFile
{
    format      ascii;
    class       volScalarField;
    location    "0.036";
    object      p;
}
// * * * * * * * * * * * * * * * * * * * * * * * * * * * * * * * * * * * * * //

dimensions      [0 2 -2 0 0 0 0];

internalField   nonuniform List<scalar> 
287084
(
1.74426
1.4689
1.39976
1.33216
1.26553
1.21456
1.16684
1.1211
1.07772
1.03722
0.996377
0.953864
0.910591
0.866778
0.822605
0.777923
0.732795
0.687305
0.64161
0.595977
0.550588
0.505694
0.461629
0.418526
0.37612
0.336169
0.300411
0.267988
0.238438
0.211566
0.187828
0.164787
0.143895
0.127097
0.113694
0.103261
0.0955848
0.0903678
0.0873317
0.0862215
0.0867529
0.0886394
0.0916404
0.0955368
0.10005
0.105009
0.110247
0.115552
0.120739
0.125657
0.129979
0.133932
0.138755
0.143752
0.147662
0.149422
0.150051
0.15261
0.15604
0.158381
0.158866
0.156952
0.155318
0.152901
0.148391
0.144611
0.143524
0.142991
0.139598
0.137106
0.134935
0.130347
0.123814
0.116345
0.109337
0.101628
0.0936234
0.0872573
0.0834288
0.0787807
0.0698894
0.0633843
0.0581834
0.0471047
0.0386211
0.0341232
0.0272268
0.0185293
0.00892768
0.00279703
1.61134
1.42468
1.3701
1.31511
1.25557
1.20818
1.16263
1.1188
1.07648
1.03521
0.993491
0.951144
0.908183
0.864605
0.820415
0.775607
0.730336
0.68462
0.638733
0.592857
0.547221
0.502135
0.457909
0.414805
0.372994
0.333132
0.29631
0.264327
0.234754
0.206013
0.180038
0.157659
0.138244
0.122062
0.109019
0.098911
0.0914865
0.0865692
0.0837953
0.0829633
0.0837548
0.0858995
0.0891498
0.0932822
0.0980166
0.103185
0.108621
0.11412
0.119532
0.124713
0.129626
0.134154
0.138608
0.142478
0.145282
0.148838
0.152331
0.15407
0.156068
0.157561
0.157315
0.156033
0.153849
0.15125
0.149467
0.14776
0.145512
0.143963
0.14087
0.137108
0.133989
0.129167
0.122596
0.115836
0.109115
0.101957
0.0956727
0.0901311
0.0831126
0.0774442
0.0712263
0.062894
0.0564089
0.0491537
0.0401063
0.0334939
0.0272455
0.0186263
0.00956887
0.00302899
1.58423
1.41607
1.36335
1.30775
1.25071
1.20375
1.15859
1.11521
1.07307
1.03155
0.989805
0.947412
0.904385
0.860633
0.816197
0.77109
0.725405
0.679298
0.632934
0.586585
0.540485
0.494913
0.450274
0.406817
0.364956
0.325225
0.287978
0.25424
0.223132
0.19487
0.169665
0.147456
0.128372
0.112571
0.0999137
0.090239
0.083329
0.0788758
0.0766446
0.0763338
0.0776566
0.0803274
0.0840882
0.0886856
0.0938843
0.0994854
0.105309
0.111179
0.11695
0.122506
0.127771
0.132659
0.137239
0.141496
0.144923
0.147718
0.150414
0.152723
0.154715
0.156336
0.156453
0.155168
0.153937
0.152414
0.149898
0.148364
0.147301
0.144558
0.140924
0.136905
0.132651
0.127725
0.12211
0.116151
0.109769
0.103183
0.0967596
0.0904326
0.084153
0.0777326
0.0707029
0.0634464
0.0563553
0.048607
0.0406949
0.0333333
0.025608
0.0172031
0.00849903
0.00232664
1.53876
1.38434
1.33755
1.28739
1.23626
1.19268
1.14998
1.1083
1.06711
1.02594
0.984244
0.9419
0.898734
0.854737
0.809947
0.76433
0.718121
0.67137
0.624329
0.577254
0.530371
0.484083
0.438713
0.394628
0.352262
0.312011
0.274349
0.239678
0.208192
0.179544
0.154154
0.132129
0.113542
0.0982893
0.0862551
0.077296
0.0710877
0.0674543
0.0660143
0.0665138
0.0686225
0.072072
0.0765725
0.0818786
0.0877491
0.0939796
0.100386
0.106807
0.113101
0.119153
0.124894
0.130228
0.135148
0.139561
0.143359
0.146829
0.149869
0.152018
0.153603
0.154815
0.155213
0.154708
0.153717
0.152236
0.150401
0.14851
0.146261
0.143382
0.140064
0.136223
0.131898
0.12707
0.121772
0.115974
0.109886
0.103633
0.0973629
0.0910427
0.0844025
0.0777339
0.0708608
0.0635809
0.0563242
0.0488427
0.0411075
0.0334575
0.0255021
0.0170946
0.00845798
0.00242056
1.51541
1.36833
1.32426
1.27546
1.22647
1.18394
1.14208
1.10105
1.06026
1.01919
0.977507
0.934992
0.891536
0.847126
0.801755
0.755499
0.708507
0.660871
0.612939
0.564834
0.516991
0.46968
0.423298
0.378293
0.33503
0.294038
0.255632
0.220299
0.188194
0.159375
0.134088
0.112349
0.0942127
0.0795883
0.0683237
0.0602157
0.0549868
0.0523358
0.0519432
0.0534976
0.0566674
0.0611507
0.0666494
0.0728998
0.0796591
0.0867223
0.0939022
0.101033
0.10798
0.114644
0.120919
0.126746
0.132085
0.136906
0.141148
0.144827
0.147888
0.150361
0.152302
0.153546
0.154017
0.153835
0.153106
0.151908
0.150257
0.148228
0.145826
0.142932
0.139509
0.135622
0.131332
0.126572
0.121377
0.115791
0.109928
0.103828
0.0975868
0.091171
0.0845636
0.0778229
0.0708543
0.0636454
0.0563509
0.0488613
0.0411909
0.0334205
0.0253286
0.0169153
0.00831494
0.00234178
1.49251
1.34809
1.30618
1.25957
1.21324
1.17254
1.13213
1.09208
1.05186
1.01105
0.969338
0.926615
0.882788
0.837786
0.791759
0.74462
0.696685
0.647987
0.598851
0.549549
0.500383
0.451785
0.40416
0.357933
0.313599
0.271566
0.232339
0.196209
0.163594
0.134522
0.109277
0.0878441
0.0702667
0.056431
0.0461068
0.0391108
0.0350738
0.033712
0.0346364
0.0375173
0.0419893
0.0477432
0.0544647
0.0618782
0.069734
0.0778237
0.0859446
0.0939423
0.101692
0.109074
0.116019
0.12245
0.128325
0.133605
0.138249
0.14226
0.145645
0.148385
0.15049
0.151902
0.152625
0.15271
0.152221
0.15119
0.149658
0.147688
0.145254
0.142341
0.138959
0.135121
0.130856
0.12616
0.121076
0.115627
0.109871
0.103863
0.0976495
0.0912388
0.0846213
0.0778398
0.0708632
0.0636851
0.0563812
0.0488984
0.0412567
0.033461
0.0253786
0.0169705
0.00829879
0.00232524
1.47473
1.33231
1.29192
1.24642
1.20148
1.1618
1.12217
1.08265
1.04273
1.00195
0.96013
0.917037
0.872669
0.826974
0.780027
0.731869
0.682751
0.632711
0.582221
0.531373
0.480719
0.43057
0.381384
0.333723
0.287983
0.244788
0.204484
0.167589
0.1344
0.105101
0.0799544
0.0589087
0.0420193
0.0290872
0.0199102
0.0142088
0.0115912
0.0117452
0.0142183
0.0186679
0.0246996
0.0319649
0.0401439
0.0489341
0.0580792
0.0673704
0.0766065
0.0856285
0.0943055
0.102539
0.110242
0.117362
0.123839
0.129656
0.134791
0.139235
0.142979
0.146031
0.148392
0.15006
0.151032
0.15136
0.151083
0.150227
0.148842
0.146948
0.144568
0.141705
0.138371
0.13459
0.130374
0.125751
0.120752
0.115395
0.109727
0.103785
0.0976172
0.091223
0.0846166
0.0778228
0.0708428
0.0636697
0.0563586
0.048885
0.0412424
0.0334206
0.0253001
0.0168556
0.00824838
0.00236729
1.45894
1.31729
1.27779
1.23334
1.18947
1.15062
1.11163
1.07259
1.03281
0.992018
0.949868
0.906321
0.861276
0.814697
0.766747
0.717346
0.666863
0.61533
0.563156
0.510625
0.458128
0.406167
0.355209
0.305832
0.258538
0.213902
0.172458
0.134628
0.100825
0.0713013
0.0462488
0.0256809
0.00957072
-0.00226316
-0.0101033
-0.0142857
-0.0152163
-0.0133071
-0.00901859
-0.00275783
0.00505453
0.0140555
0.0238899
0.0342496
0.0448728
0.0555348
0.0660315
0.0762118
0.085946
0.0951298
0.103695
0.11158
0.118749
0.125176
0.130853
0.135768
0.139933
0.143353
0.146034
0.147991
0.149238
0.149808
0.149747
0.149081
0.147843
0.146074
0.143787
0.141002
0.137741
0.134024
0.129879
0.125326
0.120398
0.115124
0.109526
0.103647
0.0975131
0.0911439
0.0845634
0.0777855
0.0708207
0.0636772
0.0563702
0.048894
0.0412721
0.0334442
0.0252881
0.0168444
0.00827761
0.00242083
1.44498
1.30384
1.26495
1.22112
1.17792
1.13963
1.10105
1.06216
1.02243
0.9814
0.938895
0.8947
0.848835
0.801262
0.752038
0.701271
0.649177
0.595902
0.541881
0.487342
0.432842
0.37883
0.325821
0.274515
0.225399
0.1792
0.136409
0.0975872
0.06317
0.0333784
0.0085314
-0.0114975
-0.0266526
-0.0372498
-0.0435851
-0.0460356
-0.0450851
-0.0411847
-0.0348567
-0.0265518
-0.0167247
-0.00578353
0.00590572
0.0180223
0.0302797
0.0424593
0.0543571
0.065816
0.0767173
0.0869567
0.0964668
0.105206
0.113131
0.120232
0.126509
0.131952
0.136576
0.1404
0.143437
0.145717
0.147254
0.148088
0.148255
0.147784
0.146723
0.145089
0.142919
0.140232
0.137062
0.133427
0.129355
0.124878
0.120023
0.114815
0.10928
0.103456
0.0973628
0.0910288
0.0844639
0.0776982
0.0707501
0.0636003
0.0563082
0.0488443
0.0412179
0.0334249
0.025348
0.0169562
0.00823958
0.00227964
1.43233
1.29144
1.25295
1.20954
1.16676
1.12877
1.09037
1.05155
1.01166
0.970304
0.927199
0.882271
0.835457
0.786693
0.736135
0.683773
0.629932
0.574742
0.518608
0.461916
0.405102
0.348794
0.293541
0.240053
0.188988
0.141
0.096787
0.0568804
0.0217493
-0.00823622
-0.0329195
-0.052262
-0.0663865
-0.0755693
-0.080159
-0.0806692
-0.0775916
-0.0714873
-0.0628972
-0.0523489
-0.0403194
-0.027246
-0.0135331
0.000485409
0.0145316
0.0283559
0.0417651
0.0546188
0.0667747
0.07815
0.0886866
0.0983335
0.107076
0.114902
0.121821
0.127827
0.132953
0.137225
0.140654
0.143277
0.145119
0.146225
0.146637
0.146379
0.14549
0.144012
0.141974
0.139404
0.13633
0.132789
0.128802
0.124401
0.119618
0.114474
0.108997
0.103231
0.097181
0.0908794
0.0843488
0.0776081
0.0706798
0.0635689
0.0562805
0.0488207
0.0412244
0.0334251
0.0252547
0.0168198
0.0082657
0.0024159
1.42077
1.28004
1.24172
1.19857
1.15602
1.11816
1.07985
1.04086
1.00069
0.958837
0.915089
0.869296
0.82136
0.771322
0.719196
0.665117
0.609325
0.551997
0.493615
0.434479
0.375229
0.316421
0.258687
0.202879
0.149583
0.0997552
0.0539239
0.0128816
-0.0229396
-0.0531563
-0.0775167
-0.0961254
-0.109025
-0.116638
-0.119363
-0.117735
-0.112361
-0.103846
-0.0928116
-0.079814
-0.065404
-0.050049
-0.0341576
-0.0180938
-0.00215301
0.0134326
0.0284544
0.0427658
0.0562528
0.0688335
0.0804557
0.0910737
0.100679
0.109275
0.116869
0.123479
0.129133
0.133869
0.137711
0.1407
0.142868
0.14426
0.144924
0.144881
0.144188
0.142869
0.140975
0.138531
0.135572
0.132123
0.128224
0.123905
0.11919
0.114112
0.108695
0.102977
0.0969682
0.0907045
0.0842051
0.0774874
0.0705718
0.0634722
0.0562057
0.0487814
0.0411778
0.0333667
0.0252518
0.0168365
0.00824093
0.00238753
1.41011
1.26944
1.23126
1.1882
1.14573
1.10782
1.06942
1.03027
0.98963
0.94718
0.902657
0.855834
0.806727
0.75523
0.701474
0.64553
0.587651
0.528063
0.467207
0.405531
0.343566
0.282089
0.221708
0.163354
0.107797
0.0558865
0.00846271
-0.0338117
-0.0703517
-0.100725
-0.124793
-0.142511
-0.154127
-0.16
-0.160638
-0.1567
-0.148834
-0.13775
-0.124098
-0.108528
-0.091605
-0.0738272
-0.0556556
-0.0374484
-0.0195095
-0.00209092
0.014613
0.0304639
0.0453407
0.0591734
0.0719186
0.0835401
0.0940476
0.103436
0.111734
0.118967
0.125177
0.130394
0.134666
0.138034
0.140535
0.142221
0.143137
0.143322
0.142826
0.141681
0.139938
0.137628
0.134778
0.131434
0.127623
0.123383
0.118747
0.113734
0.108374
0.102702
0.0967391
0.0905186
0.084049
0.077358
0.0704578
0.0633844
0.0561019
0.0486631
0.0411822
0.0334166
0.0252539
0.0168369
0.00823287
0.00237998
1.40028
1.25962
1.22143
1.17845
1.13595
1.09787
1.05932
1.01977
0.978634
0.935482
0.890059
0.842204
0.791747
0.738747
0.683205
0.625268
0.565164
0.503174
0.439735
0.375305
0.310592
0.246233
0.183103
0.122098
0.0640793
0.0101007
-0.0390821
-0.0825641
-0.119808
-0.150342
-0.173944
-0.190737
-0.200871
-0.2049
-0.20336
-0.196975
-0.186507
-0.172709
-0.156329
-0.138054
-0.118506
-0.0982297
-0.0776853
-0.0572592
-0.0372671
-0.0179583
0.000476463
0.0178912
0.0341883
0.0493011
0.063199
0.0758519
0.0872746
0.0974829
0.1065
0.114372
0.121138
0.126855
0.131564
0.135316
0.138158
0.14014
0.141319
0.141737
0.14144
0.140469
0.138881
0.1367
0.133971
0.130731
0.127014
0.122857
0.118286
0.113344
0.108046
0.102421
0.0965015
0.0903107
0.0838805
0.077221
0.0703538
0.0632981
0.0560709
0.0486757
0.0411136
0.0333184
0.0252247
0.0168375
0.00820948
0.00236934
1.39118
1.2505
1.21229
1.16926
1.12661
1.08832
1.04953
1.00961
0.967807
0.923881
0.877523
0.828452
0.776659
0.722028
0.664666
0.604655
0.542281
0.477751
0.411642
0.3444
0.276709
0.209471
0.143404
0.0796754
0.0191737
-0.0369883
-0.0878824
-0.132616
-0.170528
-0.201147
-0.224289
-0.240024
-0.248654
-0.2507
-0.246841
-0.237906
-0.224716
-0.208125
-0.188937
-0.167901
-0.145679
-0.122847
-0.0998939
-0.0772176
-0.0551471
-0.0339215
-0.0137429
0.005259
0.022993
0.0393972
0.05445
0.0681447
0.0804871
0.0915105
0.101251
0.109761
0.117095
0.123307
0.128448
0.132585
0.135767
0.138055
0.139494
0.140139
0.140044
0.139256
0.13782
0.135775
0.133164
0.130028
0.126403
0.12233
0.117834
0.112948
0.107706
0.102132
0.0962558
0.0901091
0.0837064
0.0770699
0.0702297
0.0631866
0.0559722
0.0485754
0.0410313
0.0332904
0.0251821
0.0167901
0.00821269
0.00238503
1.38279
1.2421
1.20382
1.16068
1.11788
1.07927
1.04013
0.999677
0.957289
0.912533
0.865172
0.814906
0.761671
0.705385
0.646122
0.58399
0.519221
0.452182
0.383289
0.313163
0.242554
0.172253
0.103325
0.0367825
-0.0262395
-0.0845597
-0.137183
-0.183118
-0.22166
-0.252315
-0.274888
-0.289515
-0.296493
-0.296524
-0.290307
-0.278762
-0.262823
-0.243404
-0.221378
-0.197566
-0.172659
-0.147266
-0.121908
-0.0969902
-0.0728447
-0.0497188
-0.0277988
-0.00722261
0.0119247
0.0296069
0.0458024
0.060516
0.0737728
0.0856087
0.0960667
0.10521
0.113102
0.11981
0.125385
0.129901
0.13342
0.135996
0.137693
0.138565
0.138669
0.13805
0.136769
0.134857
0.132363
0.129334
0.125799
0.121803
0.117375
0.112559
0.107372
0.101844
0.0960116
0.0898949
0.0835307
0.0769277
0.0701114
0.0631002
0.0559098
0.0485479
0.0410117
0.0332621
0.0251897
0.0168166
0.00818911
0.00234452
1.3751
1.23437
1.19599
1.15274
1.10968
1.07086
1.03124
0.990183
0.947131
0.901575
0.853172
0.801679
0.747001
0.689053
0.627897
0.563633
0.496528
0.426887
0.355267
0.282253
0.208618
0.135394
0.0634784
-0.00578381
-0.0713068
-0.131758
-0.18606
-0.233137
-0.272239
-0.302871
-0.324829
-0.338289
-0.343635
-0.341588
-0.332989
-0.31884
-0.300151
-0.277925
-0.2531
-0.226541
-0.198987
-0.171087
-0.143366
-0.116247
-0.0900722
-0.0650868
-0.0414726
-0.0193619
0.00117497
0.0201002
0.0374096
0.0531163
0.0672624
0.0798872
0.0910442
0.100798
0.109228
0.116407
0.122402
0.127288
0.13113
0.133994
0.135947
0.137038
0.137333
0.13689
0.13575
0.13397
0.131594
0.12866
0.125213
0.121298
0.116937
0.112173
0.107037
0.101558
0.0957694
0.089691
0.0833523
0.0767769
0.0699828
0.0629793
0.0558002
0.048442
0.0409294
0.0331947
0.0251615
0.0168078
0.00816424
0.00234267
1.3681
1.22734
1.18884
1.14546
1.10214
1.06292
1.02285
0.981343
0.937622
0.891185
0.841763
0.789023
0.732928
0.673309
0.610281
0.543903
0.474458
0.402322
0.327968
0.252132
0.175607
0.0994099
0.0246962
-0.0472867
-0.115202
-0.17769
-0.233582
-0.281713
-0.321316
-0.351842
-0.373151
-0.3854
-0.389066
-0.384979
-0.374032
-0.357338
-0.33598
-0.311033
-0.283497
-0.254292
-0.224197
-0.193872
-0.163885
-0.134658
-0.106538
-0.0797703
-0.054532
-0.0309494
-0.00909281
0.0110229
0.029397
0.0460515
0.06104
0.0744219
0.086238
0.0965879
0.105536
0.11317
0.119567
0.124806
0.128957
0.132091
0.13428
0.135583
0.136062
0.135777
0.134779
0.133122
0.130855
0.128018
0.124654
0.120808
0.116514
0.111808
0.106721
0.101293
0.0955405
0.0894946
0.0831886
0.0766356
0.0698729
0.0629103
0.0557585
0.048418
0.0408912
0.0331749
0.025131
0.0167822
0.00815939
0.00232518
1.36183
1.22099
1.18239
1.13885
1.09526
1.05572
1.01521
0.973159
0.928742
0.881483
0.83103
0.777135
0.719631
0.658458
0.59359
0.525232
0.453535
0.37896
0.302028
0.223442
0.14413
0.0651546
-0.0123244
-0.0868051
-0.157042
-0.221408
-0.278774
-0.32786
-0.367856
-0.398252
-0.418832
-0.42992
-0.431963
-0.425905
-0.412718
-0.393586
-0.369686
-0.342155
-0.312054
-0.280348
-0.247847
-0.215247
-0.183122
-0.151913
-0.121961
-0.0935205
-0.0667619
-0.0418036
-0.0186959
0.00253424
0.0219048
0.0394525
0.0552332
0.0693102
0.0817515
0.0926488
0.102082
0.110141
0.116911
0.12248
0.126919
0.130309
0.132723
0.13422
0.134872
0.134742
0.133875
0.132335
0.130169
0.12742
0.124134
0.120354
0.116117
0.111465
0.106428
0.101032
0.095316
0.0893006
0.0830212
0.0764915
0.0697436
0.0627811
0.0556269
0.048315
0.0408148
0.0331112
0.0250677
0.0167858
0.00817837
0.00230221
1.35627
1.21537
1.17663
1.13296
1.08915
1.04916
1.00829
0.965831
0.920702
0.87264
0.821232
0.766204
0.707406
0.644702
0.578163
0.507866
0.434082
0.357254
0.27786
0.196761
0.114834
0.0332171
-0.0467324
-0.123623
-0.195883
-0.262043
-0.320684
-0.370594
-0.410933
-0.441096
-0.461026
-0.470921
-0.471429
-0.463499
-0.448219
-0.426834
-0.400588
-0.370679
-0.338224
-0.304218
-0.269512
-0.234823
-0.200738
-0.16771
-0.136077
-0.106103
-0.0779524
-0.0517236
-0.0274854
-0.00523406
0.0150474
0.0334064
0.0499108
0.0646387
0.0776451
0.0890478
0.0989238
0.107372
0.114489
0.120354
0.125064
0.128683
0.131301
0.132978
0.133786
0.13379
0.133047
0.131611
0.129539
0.126868
0.123654
0.119937
0.115758
0.111152
0.106155
0.100801
0.0951202
0.0891364
0.0828802
0.0763713
0.0696503
0.0627251
0.0556019
0.0482905
0.0407711
0.0330814
0.0250076
0.0166615
0.00816238
0.0023777
1.35144
1.2105
1.17165
1.12782
1.08374
1.04347
1.00221
0.959269
0.913551
0.864734
0.812466
0.756413
0.69643
0.632387
0.564286
0.492275
0.416588
0.337645
0.256079
0.172624
0.0883615
0.00438696
-0.0778587
-0.156814
-0.231
-0.29862
-0.358441
-0.409041
-0.449604
-0.479555
-0.498779
-0.507615
-0.506721
-0.497112
-0.479939
-0.456524
-0.42817
-0.396123
-0.361558
-0.325496
-0.288817
-0.252263
-0.216434
-0.181777
-0.148652
-0.11731
-0.0879131
-0.0605663
-0.035306
-0.0121387
0.00895953
0.0280404
0.0451834
0.0604705
0.0739919
0.0858373
0.0961129
0.104908
0.112328
0.118466
0.123407
0.127236
0.130034
0.131871
0.13282
0.132947
0.13231
0.13097
0.128975
0.12638
0.123227
0.119566
0.115437
0.110872
0.105912
0.100586
0.094937
0.0889734
0.0827378
0.0762537
0.0695367
0.0626108
0.0554923
0.0481882
0.0407059
0.0330262
0.0249694
0.016658
0.00814711
0.00237701
1.34738
1.20638
1.16743
1.12345
1.07918
1.03867
0.997041
0.953621
0.90737
0.857964
0.804907
0.747971
0.686932
0.621659
0.552223
0.478668
0.401304
0.320591
0.237067
0.151624
0.0652802
-0.0207696
-0.104949
-0.185781
-0.261498
-0.330465
-0.391195
-0.442341
-0.483094
-0.51278
-0.531415
-0.539284
-0.53712
-0.526038
-0.507224
-0.482055
-0.451885
-0.418008
-0.381626
-0.343796
-0.305422
-0.267271
-0.229929
-0.193882
-0.159471
-0.126949
-0.0964835
-0.068167
-0.0420405
-0.018094
0.00370047
0.0234104
0.0411122
0.0568924
0.070846
0.0830813
0.0936927
0.102789
0.110473
0.116841
0.121988
0.125989
0.12895
0.130923
0.131988
0.132222
0.131679
0.130419
0.128501
0.125963
0.122863
0.119248
0.115159
0.11063
0.105703
0.100414
0.0947841
0.0888465
0.082629
0.0761584
0.0694689
0.0625615
0.0554657
0.0481839
0.0406891
0.0330234
0.0249623
0.0166358
0.00814535
0.0023835
1.3441
1.20307
1.164
1.11993
1.07548
1.03472
0.992789
0.949006
0.902349
0.852351
0.798696
0.740981
0.679087
0.612842
0.542252
0.467451
0.388709
0.306423
0.221318
0.134158
0.0461152
-0.0416433
-0.127445
-0.209753
-0.28682
-0.356767
-0.418235
-0.469839
-0.510681
-0.540162
-0.558236
-0.565291
-0.56212
-0.549805
-0.529641
-0.503023
-0.471356
-0.435965
-0.398092
-0.358814
-0.319053
-0.27958
-0.24101
-0.20381
-0.168343
-0.134859
-0.103513
-0.0744062
-0.047561
-0.0229754
-0.000597982
0.0196245
0.037778
0.0539575
0.0682747
0.0808205
0.091713
0.101054
0.108951
0.115508
0.120816
0.12497
0.128052
0.130139
0.131305
0.131625
0.131156
0.129963
0.128096
0.125614
0.122561
0.118983
0.11493
0.110431
0.10553
0.100257
0.0946519
0.0887294
0.0825268
0.0760777
0.0693857
0.0624848
0.0553951
0.0481024
0.0406295
0.0329605
0.0249151
0.0166082
0.00812374
0.00238974
1.34162
1.20055
1.16141
1.11727
1.07265
1.03181
0.989599
0.945453
0.898453
0.848112
0.793902
0.73565
0.673047
0.606002
0.534554
0.458759
0.378918
0.295533
0.209144
0.120724
0.0313529
-0.0577392
-0.144769
-0.22826
-0.306393
-0.377028
-0.438991
-0.490884
-0.531846
-0.561125
-0.578796
-0.585223
-0.581206
-0.567969
-0.54676
-0.519039
-0.486231
-0.449695
-0.410679
-0.370291
-0.329469
-0.288997
-0.249479
-0.21141
-0.175136
-0.140911
-0.108894
-0.0791772
-0.0517866
-0.0267079
-0.00389488
0.0167237
0.035221
0.0517105
0.0662975
0.0790889
0.0901894
0.0997222
0.107783
0.114485
0.119925
0.124186
0.127371
0.12954
0.130784
0.131169
0.130761
0.129614
0.127796
0.125351
0.122328
0.118784
0.114751
0.11028
0.105398
0.100145
0.0945509
0.0886486
0.0824608
0.076017
0.0693449
0.0624508
0.0553787
0.0481035
0.0406334
0.0329807
0.0249268
0.0166035
0.00811937
0.00238764
1.33997
1.19885
1.15965
1.11544
1.07075
1.02966
0.987379
0.94319
0.895897
0.845191
0.790697
0.732001
0.668972
0.601419
0.52935
0.452899
0.37233
0.288098
0.200867
0.11155
0.0212578
-0.0686981
-0.156627
-0.240853
-0.319883
-0.390757
-0.45285
-0.505104
-0.546177
-0.575329
-0.59268
-0.598667
-0.594134
-0.580245
-0.558331
-0.529857
-0.49628
-0.458962
-0.419179
-0.378046
-0.336508
-0.295354
-0.255202
-0.21654
-0.179721
-0.144999
-0.112529
-0.0824003
-0.0546428
-0.0292392
-0.0061316
0.0147486
0.0334849
0.0501856
0.0649677
0.0779229
0.0891721
0.0988257
0.107
0.113795
0.119321
0.123661
0.126907
0.129137
0.130428
0.130859
0.130486
0.129377
0.127586
0.125167
0.122171
0.118643
0.114637
0.110178
0.105308
0.100068
0.0944843
0.0885924
0.082405
0.0759729
0.0692994
0.0624121
0.0553316
0.0480532
0.0405976
0.0329364
0.0249243
0.0166591
0.00810979
0.00231318
1.33913
1.19799
1.15878
1.11453
1.06977
1.02859
0.986308
0.942055
0.894589
0.84376
0.789043
0.730176
0.666881
0.599041
0.526688
0.449883
0.368948
0.284342
0.19668
0.106927
0.0161762
-0.0742413
-0.162634
-0.247319
-0.326785
-0.39807
-0.45981
-0.512001
-0.553343
-0.582433
-0.599673
-0.605451
-0.600623
-0.58642
-0.564156
-0.535307
-0.50134
-0.463632
-0.423464
-0.381953
-0.340051
-0.298559
-0.258088
-0.219127
-0.182037
-0.147065
-0.114365
-0.08403
-0.0560771
-0.030498
-0.00724823
0.0137636
0.032613
0.0494183
0.0642907
0.0773266
0.0886477
0.0983697
0.1066
0.113446
0.119013
0.123389
0.12667
0.128928
0.130249
0.130702
0.130351
0.129254
0.127484
0.125077
0.12209
0.118578
0.114571
0.110123
0.10526
0.100025
0.094447
0.0885573
0.082384
0.0759563
0.0692931
0.0624062
0.0553337
0.0480639
0.0406016
0.0329514
0.0248975
0.0165862
0.00812317
0.00238421
1.33911
1.19798
1.15877
1.11451
1.06977
1.02857
0.986289
0.942044
0.894583
0.843735
0.789038
0.730168
0.666865
0.599059
0.526681
0.449888
0.368955
0.284321
0.196663
0.106907
0.0161542
-0.0742601
-0.162647
-0.247314
-0.326768
-0.398039
-0.459825
-0.512013
-0.553343
-0.582436
-0.599658
-0.605436
-0.600613
-0.586408
-0.564144
-0.535291
-0.501329
-0.463625
-0.423461
-0.381946
-0.340046
-0.298554
-0.258082
-0.219127
-0.18203
-0.147058
-0.114361
-0.0840243
-0.0560822
-0.0305118
-0.00725706
0.0137565
0.0326085
0.0494121
0.0642886
0.0773234
0.0886467
0.0983691
0.106597
0.113441
0.119016
0.123391
0.126667
0.128925
0.130243
0.130697
0.130342
0.12925
0.127476
0.125071
0.122086
0.118575
0.114573
0.110118
0.105257
0.100021
0.0944465
0.0885558
0.0823786
0.0759523
0.0692805
0.0623948
0.0553208
0.0480401
0.0405815
0.0329182
0.024884
0.0165965
0.00811828
0.00237991
1.33994
1.19882
1.15963
1.11542
1.07071
1.02961
0.987361
0.943201
0.895888
0.84518
0.790669
0.731966
0.668944
0.601348
0.529312
0.452852
0.372277
0.288087
0.200847
0.111552
0.0212515
-0.0686996
-0.156622
-0.240869
-0.319887
-0.390801
-0.452828
-0.505086
-0.546138
-0.575292
-0.592658
-0.598643
-0.594103
-0.580214
-0.558303
-0.529828
-0.496248
-0.458939
-0.41916
-0.378026
-0.336491
-0.295337
-0.255193
-0.216535
-0.179718
-0.144998
-0.112529
-0.0824022
-0.0546417
-0.0292325
-0.00612233
0.0147562
0.0334839
0.0501797
0.0649552
0.0779062
0.0891566
0.0988135
0.106988
0.113784
0.119308
0.123648
0.126891
0.129121
0.130417
0.130845
0.130475
0.129361
0.127574
0.125156
0.122159
0.118638
0.114622
0.110165
0.105295
0.100054
0.0944748
0.088579
0.0824007
0.0759663
0.0693032
0.0624174
0.0553423
0.0480734
0.0406062
0.0329457
0.02489
0.0165584
0.0081222
0.00240512
1.34157
1.2005
1.16136
1.1172
1.07259
1.03168
0.989529
0.945482
0.898453
0.848062
0.793869
0.735605
0.672992
0.605984
0.534514
0.458721
0.378905
0.295471
0.209106
0.12068
0.0313023
-0.057761
-0.144803
-0.228249
-0.306409
-0.376987
-0.43895
-0.490859
-0.531797
-0.56109
-0.578727
-0.585168
-0.581153
-0.567918
-0.546715
-0.518989
-0.486187
-0.449654
-0.410646
-0.370261
-0.329442
-0.288973
-0.24946
-0.211397
-0.175125
-0.140904
-0.108895
-0.079178
-0.0517932
-0.0267173
-0.00390398
0.0167097
0.0352048
0.0516908
0.0662813
0.0790696
0.0901743
0.0997055
0.107768
0.114467
0.119907
0.124171
0.127351
0.129521
0.130763
0.131145
0.130733
0.129589
0.127769
0.125327
0.122311
0.118766
0.114735
0.110258
0.105382
0.100127
0.0945354
0.0886349
0.0824474
0.0760072
0.0693311
0.062439
0.0553587
0.048072
0.0406181
0.0329461
0.02496
0.0166831
0.0080861
0.0023079
1.34403
1.203
1.16393
1.11987
1.07539
1.03462
0.992731
0.948978
0.902319
0.85231
0.798644
0.740921
0.679035
0.612762
0.542184
0.467389
0.388624
0.306405
0.221265
0.134144
0.0460823
-0.0416589
-0.127448
-0.209768
-0.286797
-0.356769
-0.418189
-0.469809
-0.510627
-0.540106
-0.558176
-0.565228
-0.562058
-0.549736
-0.529573
-0.502956
-0.471286
-0.43591
-0.398041
-0.358766
-0.319014
-0.279549
-0.240987
-0.203793
-0.168333
-0.134854
-0.10351
-0.0744088
-0.0475656
-0.0229854
-0.000615839
0.0196077
0.0377552
0.0539311
0.0682479
0.0807921
0.091685
0.101027
0.108923
0.115478
0.120788
0.124942
0.128023
0.130109
0.131275
0.131591
0.131125
0.129926
0.128064
0.125584
0.122532
0.118959
0.114899
0.110405
0.10551
0.100238
0.09463
0.0887113
0.0825153
0.0760629
0.0693824
0.0624838
0.0554025
0.0481187
0.0406451
0.0329884
0.0249414
0.0166282
0.00811778
0.00236615
1.34729
1.2063
1.16732
1.12336
1.07907
1.03848
0.996936
0.953629
0.907356
0.857881
0.804838
0.747888
0.686849
0.621596
0.55215
0.478602
0.401258
0.320513
0.237018
0.151559
0.0652357
-0.0207932
-0.10498
-0.185761
-0.261501
-0.330423
-0.391144
-0.442307
-0.483005
-0.512724
-0.53131
-0.539198
-0.537029
-0.525953
-0.507151
-0.481979
-0.451812
-0.417942
-0.381566
-0.343744
-0.305378
-0.267235
-0.229899
-0.19386
-0.159458
-0.126943
-0.0964868
-0.0681759
-0.0420533
-0.0181152
0.00367839
0.0233824
0.0410771
0.0568556
0.070814
0.0830447
0.0936564
0.102756
0.11044
0.116807
0.121945
0.125955
0.128911
0.130887
0.131952
0.13218
0.131634
0.130372
0.128452
0.125922
0.122828
0.119215
0.115124
0.110596
0.105672
0.100377
0.0947501
0.0888153
0.0826045
0.0761447
0.0694453
0.062542
0.0554463
0.0481513
0.0406745
0.0329935
0.0249579
0.0166609
0.00812353
0.00233861
1.35133
1.21039
1.17152
1.12772
1.08363
1.04335
1.0021
0.959193
0.913473
0.864645
0.81238
0.756321
0.696344
0.63229
0.564184
0.492177
0.416487
0.337587
0.256005
0.172581
0.0883056
0.00433982
-0.0778583
-0.156853
-0.230943
-0.298638
-0.358375
-0.408993
-0.449534
-0.479475
-0.498708
-0.507515
-0.506638
-0.497004
-0.479842
-0.456427
-0.42807
-0.396041
-0.361483
-0.325432
-0.288766
-0.252222
-0.216399
-0.181752
-0.148639
-0.117305
-0.0879166
-0.0605777
-0.0353243
-0.0121716
0.00891555
0.0280018
0.0451422
0.0604263
0.073951
0.0857994
0.0960701
0.104866
0.112283
0.118419
0.123358
0.127186
0.129986
0.131822
0.132771
0.132897
0.132261
0.130914
0.128922
0.126329
0.123181
0.11952
0.115388
0.110833
0.105877
0.100557
0.0949006
0.088947
0.0827175
0.0762371
0.0695266
0.0626086
0.0554977
0.0481935
0.0406998
0.0330191
0.0249412
0.0165988
0.00814795
0.00241456
1.35614
1.21525
1.17648
1.13284
1.08899
1.04905
1.00819
0.965686
0.920608
0.872504
0.821117
0.766092
0.707289
0.644602
0.578068
0.507764
0.434014
0.357149
0.277809
0.196678
0.11477
0.0331911
-0.0467836
-0.123599
-0.195903
-0.261999
-0.32064
-0.370557
-0.410841
-0.44102
-0.460911
-0.470814
-0.471321
-0.463398
-0.448131
-0.426749
-0.400503
-0.370603
-0.338155
-0.304158
-0.269458
-0.234788
-0.200704
-0.167682
-0.136063
-0.106099
-0.0779593
-0.0517429
-0.0275024
-0.00525685
0.0150157
0.0333678
0.0498654
0.0645803
0.0775893
0.0889893
0.098864
0.107316
0.114432
0.120299
0.125001
0.128627
0.131243
0.132922
0.133732
0.133732
0.132983
0.13155
0.129473
0.126806
0.123596
0.119884
0.115706
0.111102
0.106108
0.100753
0.0950747
0.0890918
0.0828475
0.0763483
0.0696194
0.0626894
0.0555687
0.0482545
0.0407587
0.0330623
0.0249774
0.0166328
0.00815324
0.00240476
1.36171
1.22084
1.18221
1.13873
1.09513
1.05555
1.01504
0.97306
0.928634
0.881346
0.830918
0.776993
0.719526
0.658323
0.593479
0.525093
0.453419
0.37885
0.301937
0.223353
0.14407
0.0650765
-0.0123358
-0.0868552
-0.157004
-0.22142
-0.278709
-0.327811
-0.367799
-0.398165
-0.41877
-0.429811
-0.431876
-0.425788
-0.412605
-0.393479
-0.369576
-0.342061
-0.311974
-0.280274
-0.247788
-0.215202
-0.183089
-0.151884
-0.121949
-0.0935163
-0.0667728
-0.0418227
-0.0187259
0.00249373
0.0218532
0.0393979
0.0551762
0.0692494
0.0816894
0.092586
0.102017
0.110074
0.116844
0.12241
0.126852
0.130239
0.132655
0.13415
0.134804
0.134668
0.133804
0.132257
0.130095
0.127347
0.124064
0.120288
0.116053
0.111409
0.106375
0.100987
0.0952733
0.089267
0.0829927
0.0764744
0.0697256
0.0627747
0.0556323
0.0483088
0.0407981
0.0330977
0.0250842
0.0167754
0.00813826
0.00229521
1.36794
1.22719
1.18867
1.14532
1.10196
1.0628
1.02273
0.98117
0.93745
0.891031
0.841585
0.788901
0.732758
0.673184
0.61015
0.543774
0.474367
0.402201
0.327878
0.252044
0.175511
0.099363
0.0246425
-0.0473134
-0.115203
-0.177698
-0.233544
-0.281681
-0.321248
-0.35177
-0.37305
-0.385288
-0.388972
-0.384873
-0.373937
-0.357245
-0.335891
-0.310955
-0.28343
-0.254232
-0.224143
-0.193841
-0.163854
-0.134639
-0.106527
-0.0797724
-0.0545513
-0.0309761
-0.00912577
0.0109839
0.0293463
0.0459956
0.0609785
0.07435
0.0861666
0.096514
0.105456
0.113088
0.119489
0.124727
0.128876
0.132013
0.134204
0.135504
0.135985
0.135695
0.134694
0.133039
0.130769
0.127933
0.124575
0.120731
0.11644
0.111741
0.106656
0.101232
0.0954878
0.0894501
0.0831498
0.0766048
0.0698387
0.0628723
0.0557199
0.0483783
0.040859
0.0331408
0.0250366
0.0166751
0.00818406
0.00240991
1.37493
1.2342
1.19582
1.15256
1.10952
1.07058
1.03101
0.990074
0.946991
0.901417
0.853016
0.801527
0.746853
0.688907
0.627738
0.563494
0.496363
0.426761
0.355149
0.282118
0.208559
0.135271
0.0634489
-0.0058536
-0.0713029
-0.131781
-0.186012
-0.233105
-0.272192
-0.302799
-0.324772
-0.338198
-0.343548
-0.341483
-0.332889
-0.318747
-0.300058
-0.277839
-0.253027
-0.226477
-0.198935
-0.171047
-0.143339
-0.116227
-0.0900679
-0.0650927
-0.0414963
-0.019392
0.00113555
0.0200493
0.0373493
0.0530467
0.0671911
0.0798083
0.0909591
0.100712
0.109143
0.116319
0.122313
0.127198
0.131042
0.133905
0.135855
0.136948
0.137242
0.136792