/*--------------------------------*- C++ -*----------------------------------*\
  =========                 |
  \\      /  F ield         | OpenFOAM: The Open Source CFD Toolbox
   \\    /   O peration     | Website:  https://openfoam.org
    \\  /    A nd           | Version:  11
     \\/     M anipulation  |
\*---------------------------------------------------------------------------*/
FoamFile
{
    format      ascii;
    class       volScalarField;
    location    "0.05";
    object      k;
}
// * * * * * * * * * * * * * * * * * * * * * * * * * * * * * * * * * * * * * //

dimensions      [0 2 -2 0 0 0 0];

internalField   nonuniform List<scalar> 
287084
(
0.381625
0.396077
0.407167
0.413365
0.41571
0.416031
0.416003
0.415938
0.415852
0.416037
0.416168
0.416132
0.416124
0.416096
0.416085
0.415898
0.415878
0.416074
0.415989
0.416096
0.416272
0.41617
0.41618
0.416197
0.416175
0.416029
0.416003
0.416169
0.416254
0.416236
0.416242
0.416185
0.416079
0.415841
0.415875
0.416006
0.415898
0.415896
0.415886
0.415743
0.415693
0.415752
0.415762
0.415685
0.415684
0.41569
0.415552
0.415662
0.415841
0.41566
0.415736
0.415836
0.415812
0.415791
0.415552
0.415553
0.415697
0.415696
0.415682
0.415695
0.415702
0.41552
0.415533
0.415848
0.415929
0.415871
0.415706
0.415658
0.415802
0.415885
0.415838
0.415652
0.415667
0.415848
0.415814
0.415848
0.415853
0.415798
0.415748
0.415845
0.415965
0.415952
0.415969
0.415939
0.415877
0.415689
0.415575
0.415702
0.415761
0.415626
0.381678
0.395956
0.407
0.413312
0.415699
0.416017
0.416003
0.415958
0.416042
0.416139
0.416127
0.416126
0.416053
0.416069
0.416026
0.415882
0.415935
0.41603
0.415912
0.415867
0.416011
0.416161
0.416263
0.4163
0.416259
0.416136
0.416143
0.416269
0.416062
0.41611
0.416221
0.416119
0.416084
0.416033
0.41598
0.415988
0.415988
0.415821
0.415901
0.41607
0.41607
0.416067
0.415827
0.415881
0.416009
0.416012
0.416011
0.415953
0.41595
0.415884
0.415723
0.41565
0.415761
0.415786
0.41576
0.415691
0.415669
0.415581
0.415668
0.415866
0.415752
0.415833
0.41587
0.415825
0.415687
0.415711
0.415885
0.415908
0.415912
0.415753
0.41586
0.416045
0.416028
0.41601
0.415862
0.415836
0.415728
0.415831
0.415964
0.415886
0.415889
0.415843
0.4157
0.415751
0.415842
0.41584
0.41584
0.415748
0.415729
0.415545
0.38168
0.395944
0.406995
0.413266
0.415665
0.416206
0.416213
0.416214
0.416083
0.416161
0.416281
0.416216
0.416249
0.416207
0.41605
0.416088
0.416216
0.416229
0.416231
0.416029
0.416058
0.416199
0.416191
0.416354
0.41639
0.416339
0.416152
0.416127
0.416211
0.416107
0.416043
0.416061
0.416034
0.416003
0.416017
0.415931
0.415966
0.416113
0.416079
0.416097
0.416097
0.416022
0.415998
0.415989
0.415988
0.415952
0.415914
0.416017
0.416056
0.416001
0.415778
0.415756
0.415827
0.415646
0.415685
0.415852
0.41576
0.415678
0.415765
0.415902
0.415888
0.415909
0.415856
0.415672
0.41574
0.415949
0.415941
0.41594
0.41585
0.415825
0.415838
0.415838
0.415663
0.41568
0.415814
0.415763
0.415687
0.41569
0.415707
0.415672
0.415623
0.415776
0.415951
0.415718
0.415728
0.415855
0.415663
0.415676
0.415789
0.415593
0.38166
0.395987
0.406947
0.413196
0.415746
0.416313
0.416327
0.416327
0.416181
0.416256
0.416356
0.416352
0.416349
0.416111
0.41617
0.416308
0.416295
0.416294
0.416197
0.416116
0.416118
0.416122
0.416092
0.416065
0.416076
0.416083
0.416059
0.415993
0.416092
0.416277
0.416284
0.416284
0.416177
0.41619
0.41617
0.416147
0.416076
0.415846
0.415839
0.416024
0.416036
0.416035
0.415884
0.415964
0.416013
0.416001
0.415996
0.41587
0.415786
0.415761
0.415822
0.415832
0.41583
0.415728
0.41564
0.415688
0.415598
0.415651
0.415923
0.415955
0.415898
0.41569
0.415704
0.415903
0.415814
0.415916
0.415988
0.415833
0.41594
0.416021
0.415768
0.415777
0.415898
0.415821
0.415772
0.415817
0.415826
0.415955
0.41607
0.416052
0.41604
0.415823
0.41588
0.415971
0.415923
0.415825
0.415743
0.41579
0.415802
0.415696
0.38166
0.395988
0.406923
0.413215
0.415754
0.416153
0.416013
0.416106
0.416281
0.416056
0.416107
0.416312
0.416311
0.416255
0.416038
0.4161
0.416169
0.416078
0.416072
0.416072
0.415981
0.415996
0.416196
0.416157
0.416174
0.416172
0.416075
0.41604
0.416104
0.416101
0.416109
0.416108
0.41598
0.415971
0.41613
0.416016
0.416091
0.416305
0.416279
0.416235
0.416084
0.415962
0.416007
0.416046
0.415988
0.415785
0.415758
0.415849
0.415672
0.415684
0.415825
0.415805
0.415815
0.415796
0.415625
0.415613
0.415799
0.415749
0.415761
0.41576
0.415672
0.415631
0.415705
0.415615
0.415643
0.415775
0.415761
0.415781
0.415771
0.415627
0.415603
0.415927
0.416039
0.415985
0.415834
0.41578
0.415853
0.415801
0.41582
0.415807
0.415699
0.415663
0.415755
0.41566
0.41575
0.415935
0.415712
0.415746
0.4159
0.415683
0.381644
0.39599
0.406988
0.413208
0.415417
0.415629
0.415629
0.415914
0.416111
0.41611
0.416106
0.415954
0.415932
0.415828
0.415923
0.416187
0.416099
0.416131
0.416085
0.416065
0.41606
0.41593
0.415914
0.416073
0.416094
0.415989
0.416068
0.416213
0.416172
0.416167
0.416046
0.416034
0.416025
0.416025
0.416024
0.416068
0.41608
0.416059
0.416059
0.416008
0.415936
0.415762
0.415704
0.415783
0.415718
0.415707
0.415782
0.415781
0.415817
0.415821
0.415835
0.415734
0.41584
0.415971
0.415966
0.415965
0.415802
0.41575
0.415841
0.415885
0.415834
0.415648
0.415637
0.415796
0.415755
0.41586
0.415966
0.415967
0.415967
0.415758
0.415775
0.415937
0.415784
0.415862
0.416009
0.415805
0.415766
0.415832
0.415738
0.415717
0.415778
0.415689
0.415792
0.415974
0.41586
0.415857
0.415846
0.41586
0.415847
0.415696
0.381614
0.396021
0.406982
0.413214
0.415477
0.415687
0.415824
0.415991
0.415962
0.415957
0.415807
0.415998
0.416516
0.416509
0.41644
0.416523
0.416628
0.416569
0.416563
0.416474
0.416468
0.416467
0.416333
0.416391
0.416528
0.416494
0.416454
0.416246
0.416297
0.416328
0.416106
0.416172
0.416318
0.416199
0.416141
0.416091
0.415943
0.41591
0.416145
0.416232
0.416174
0.416017
0.415964
0.416093
0.416117
0.416068
0.415902
0.415963
0.41601
0.415964
0.415823
0.415819
0.415902
0.415886
0.415765
0.415764
0.415911
0.415967
0.415929
0.415861
0.415841
0.41563
0.415593
0.415814
0.415902
0.415816
0.415806
0.415795
0.415592
0.415601
0.415761
0.415764
0.415674
0.415701
0.415883
0.415905
0.415906
0.415765
0.415754
0.415657
0.415766
0.415947
0.415722
0.415726
0.415858
0.415768
0.41588
0.415959
0.415905
0.415717
0.381646
0.396013
0.406936
0.413055
0.415846
0.416668
0.416654
0.416757
0.416851
0.416841
0.416806
0.416808
0.416814
0.416774
0.416769
0.416676
0.416603
0.416672
0.416701
0.416621
0.41662
0.416619
0.416575
0.416461
0.416456
0.416516
0.416477
0.416475
0.41645
0.416329
0.41621
0.416158
0.416085
0.41604
0.416144
0.416187
0.416034
0.416083
0.416332
0.416339
0.416293
0.416077
0.416099
0.416224
0.416228
0.416228
0.416156
0.416142
0.416005
0.416093
0.416235
0.416093
0.41618
0.416224
0.416189
0.416214
0.416165
0.416135
0.416107
0.41598
0.415837
0.41582
0.415787
0.415796
0.415797
0.415679
0.415716
0.415863
0.415856
0.415836
0.415814
0.415785
0.41578
0.415683
0.415679
0.415951
0.416003
0.415953
0.415816
0.415729
0.415766
0.415721
0.415856
0.415968
0.415953
0.415949
0.415772
0.415827
0.415864
0.415671
0.381629
0.396008
0.406985
0.413177
0.415551
0.415996
0.416019
0.415961
0.415956
0.415871
0.415994
0.416423
0.416397
0.416438
0.416445
0.416428
0.416385
0.416498
0.416647
0.416639
0.416631
0.416628
0.416636
0.416541
0.416571
0.41658
0.416549
0.416547
0.416489
0.416258
0.41612
0.41615
0.416133
0.416088
0.416155
0.416189
0.416032
0.41605
0.416198
0.416121
0.416217
0.416273
0.416102
0.416192
0.416249
0.416247
0.416245
0.416115
0.416098
0.416013
0.415794
0.415671
0.415714
0.415726
0.415611
0.415624
0.415863
0.415903
0.415851
0.415654
0.415632
0.415851
0.415885
0.415835
0.415695
0.415657
0.415764
0.4157
0.415822
0.416014
0.415987
0.415948
0.415742
0.415792
0.415935
0.415794
0.415924
0.416049
0.416049
0.416048
0.41583
0.415793
0.41587
0.415807
0.415899
0.415936
0.415858
0.415868
0.415824
0.41563
0.381616
0.395978
0.407102
0.41307
0.415509
0.415951
0.415934
0.415818
0.415802
0.416122
0.416218
0.416164
0.415965
0.415933
0.416211
0.416296
0.416242
0.416239
0.416211
0.415992
0.416021
0.416204
0.4162
0.416126
0.416135
0.416256
0.416092
0.416154
0.416342
0.416288
0.416169
0.416156
0.416206
0.416106
0.416182
0.416206
0.416152
0.415989
0.415986
0.41603
0.415939
0.415923
0.415852
0.415617
0.415583
0.415709
0.415742
0.415747
0.415706
0.415593
0.415652
0.415724
0.415699
0.415695
0.415548
0.415603
0.415634
0.415523
0.415618
0.415866
0.415845
0.415806
0.415601
0.415661
0.415767
0.415578
0.415661
0.415847
0.415745
0.415769
0.415723
0.415594
0.415546
0.415686
0.415731
0.41561
0.415695
0.415913
0.415889
0.41585
0.41565
0.415691
0.415927
0.415991
0.415953
0.415877
0.415761
0.415802
0.415862
0.415673
0.381641
0.395978
0.406994
0.413174
0.415643
0.416039
0.416018
0.415889
0.415897
0.416059
0.416068
0.416037
0.416056
0.416191
0.41619
0.416147
0.416277
0.416437
0.416389
0.416421
0.416425
0.416378
0.416367
0.416304
0.416311
0.41632
0.416189
0.416224
0.416231
0.416167
0.41611
0.416235
0.41633
0.416315
0.416312
0.416251
0.416233
0.416182
0.416092
0.415983
0.415904
0.415723
0.415655
0.415766
0.415787
0.415715
0.41584
0.415992
0.415971
0.415957
0.415874
0.415829
0.415793
0.415675
0.415672
0.415784
0.415771
0.41563
0.41567
0.415789
0.415795
0.415795
0.41559
0.415676
0.415792
0.415772
0.415768
0.415583
0.415662
0.415806
0.415789
0.415735
0.41578
0.415962
0.415761
0.415764
0.415901
0.415771
0.415863
0.416015
0.415799
0.415871
0.416021
0.415908
0.415795
0.415773
0.415839
0.415854
0.41585
0.415652
0.381623
0.396018
0.406953
0.413198
0.415618
0.41607
0.416192
0.416173
0.416178
0.416051
0.416053
0.416365
0.416333
0.416476
0.416644
0.416509
0.416502
0.416501
0.416389
0.416472
0.416589
0.416361
0.416424
0.416592
0.416532
0.416539
0.416563
0.416551
0.416419
0.416372
0.41632
0.41623
0.416148
0.416096
0.41606
0.416007
0.415946
0.415806
0.415753
0.415809
0.415742
0.415718
0.415775
0.415775
0.415808
0.415812
0.415788
0.415698
0.415824
0.415982
0.415898
0.415941
0.416009
0.415992
0.415921
0.415665
0.415668
0.415764
0.415735
0.415635
0.415692
0.415882
0.415726
0.415824
0.41591
0.415898
0.415894
0.415694
0.415798
0.415945
0.41594
0.415936
0.415717
0.415772
0.415852
0.415828
0.415817
0.415633
0.415739
0.415935
0.415896
0.415735
0.415713
0.415887
0.415925
0.415884
0.415673
0.415708
0.415871
0.415653
0.381646
0.396012
0.40694
0.413033
0.415889
0.416605
0.416566
0.416569
0.416505
0.416616
0.416686
0.416494
0.416575
0.416685
0.41652
0.416617
0.416696
0.416621
0.416613
0.416525
0.416633
0.416701
0.41648
0.416545
0.416622
0.416617
0.416617
0.416573
0.41655
0.416352
0.416221
0.416268
0.416288
0.416268
0.416214
0.416288
0.416342
0.416286
0.416176
0.416065
0.416144
0.416177
0.416125
0.415939
0.415961
0.416119
0.416123
0.416123
0.416026
0.416018
0.415945
0.41591
0.415904
0.415776
0.415832
0.41592
0.415889
0.415855
0.415709
0.415846
0.415975
0.415927
0.415793
0.415723
0.415792
0.415673
0.415703
0.415835
0.415831
0.415817
0.415808
0.41578
0.415775
0.415678
0.415675
0.415951
0.415996
0.415944
0.415739
0.415727
0.415905
0.415921
0.415882
0.415727
0.415687
0.415791
0.415782
0.415781
0.41578
0.415656
0.381624
0.395979
0.407039
0.413217
0.415401
0.415634
0.4157
0.415925
0.41586
0.415898
0.415905
0.415881
0.415821
0.415799
0.415797
0.415978
0.416176
0.416068
0.416141
0.416174
0.416044
0.416125
0.416398
0.416274
0.416385
0.416527
0.416411
0.416423
0.416425
0.416378
0.416241
0.416277
0.41629
0.416104
0.416103
0.416275
0.416281
0.41626
0.416274
0.416247
0.416223
0.416164
0.416172
0.416199
0.416144
0.41615
0.416143
0.416165
0.416133
0.416062
0.415885
0.41574
0.415833
0.415907
0.415876
0.41586
0.415694
0.415769
0.415909
0.415887
0.415868
0.415675
0.415726
0.415866
0.415822
0.415654
0.415653
0.415825
0.415863
0.415869
0.415809
0.415778
0.415738
0.415621
0.415695
0.415965
0.415804
0.415896
0.416057
0.415917
0.415998
0.416043
0.416014
0.416004
0.415811
0.415857
0.416058
0.416076
0.416066
0.4158
0.381647
0.396012
0.406935
0.413053
0.415839
0.416699
0.416768
0.416732
0.416636
0.416747
0.416817
0.416676
0.416728
0.416756
0.416706
0.416716
0.416701
0.41653
0.416577
0.416672
0.416602
0.416595
0.416589
0.416626
0.416623
0.416634
0.416561
0.416531
0.416503
0.416512
0.416485
0.416355
0.41625
0.416196
0.416135
0.41609
0.41602
0.415874
0.415768
0.415779
0.41574
0.415713
0.415858
0.415997
0.415954
0.415868
0.415743
0.415722
0.415685
0.415816
0.415897
0.415725
0.415811
0.415966
0.415948
0.415926
0.415715
0.415651
0.415771
0.415746
0.415869
0.41608
0.416039
0.416057
0.415983
0.415995
0.416003
0.415977
0.415961
0.415793
0.415813
0.415837
0.415799
0.41569
0.415676
0.41595
0.415995
0.415942
0.415737
0.415747
0.415943
0.415978
0.415946
0.415912
0.415859
0.415645
0.415709
0.415873
0.415835
0.415691
0.381684
0.395973
0.406896
0.413221
0.415614
0.415918
0.416066
0.416215
0.416013
0.41608
0.416225
0.416181
0.416183
0.416075
0.416162
0.416299
0.416255
0.416087
0.4161
0.416209
0.416204
0.416172
0.416228
0.416393
0.416193
0.416195
0.416331
0.416333
0.416239
0.416277
0.416376
0.416165
0.416229
0.416345
0.416261
0.416245
0.416139
0.416136
0.416096
0.416047
0.415989
0.41595
0.415921
0.415891
0.41583
0.415705
0.415533
0.415684
0.415885
0.415753
0.415823
0.415848
0.415812
0.415715
0.415824
0.416172
0.416058
0.416148
0.416379
0.41637
0.416346
0.416136
0.416172
0.416237
0.416233
0.416233
0.416203
0.416198
0.416109
0.416058
0.415851
0.41575
0.415915
0.416
0.415946
0.415756
0.415788
0.415888
0.415793
0.4157
0.415818
0.415978
0.415944
0.415877
0.415772
0.415808
0.415876
0.415839
0.41579
0.415654
0.381658
0.396019
0.406911
0.413028
0.415777
0.4168
0.416945
0.416945
0.416913
0.416849
0.416859
0.416925
0.416907
0.416847
0.416653
0.416674
0.416718
0.416484
0.416554
0.416674
0.416426
0.416447
0.416575
0.416512
0.416548
0.416566
0.416534
0.41652
0.41637
0.416374
0.416399
0.416351
0.416304
0.416098
0.41609
0.416086
0.416049
0.416047
0.415977
0.415941
0.415865
0.41564
0.415694
0.415818
0.41581
0.415804
0.415583
0.415649
0.415788
0.415624
0.415728
0.415825
0.415621
0.41557
0.415768
0.415805
0.415935
0.416131
0.41593
0.41601
0.416148
0.415933
0.416005
0.416097
0.415965
0.415971
0.415956
0.415787
0.415793
0.415878
0.415711
0.415788
0.415853
0.415846
0.415844
0.415619
0.415619
0.415905
0.415946
0.415921
0.41592
0.415837
0.41581
0.415682
0.415777
0.415944
0.415731
0.415805
0.415961
0.415705
0.381647
0.396013
0.406932
0.413064
0.415785
0.416878
0.41694
0.416876
0.416871
0.416893
0.416902
0.416849
0.416834
0.416722
0.416751
0.416767
0.416603
0.416679
0.416745
0.416526
0.416602
0.416731
0.41663
0.416633
0.416646
0.416662
0.416657
0.416602
0.416398
0.416299
0.416275
0.416218
0.416216
0.416182
0.41613
0.416091
0.416016
0.415852
0.415724
0.415721
0.415726
0.415678
0.41571
0.415802
0.415768
0.415786
0.415716
0.415781
0.415844
0.415834
0.415831
0.415607
0.415599
0.415827
0.415802
0.41594
0.41613
0.416028
0.416098
0.416134
0.416105
0.416092
0.416063
0.416009
0.415831
0.415881
0.41599
0.415829
0.415779
0.415921
0.416029
0.416014
0.416012
0.415935
0.415829
0.415869
0.415986
0.415939
0.415937
0.41591
0.415697
0.415711
0.415937
0.415945
0.415904
0.415725
0.415681
0.415801
0.415826
0.415695
0.381658
0.39602
0.406913
0.41302
0.415818
0.416657
0.416645
0.416772
0.416843
0.41672
0.416758
0.416764
0.416729
0.41659
0.416653
0.416705
0.416471
0.416541
0.416665
0.41642
0.416432
0.416566
0.416502
0.416508
0.41651
0.416472
0.416416
0.416362
0.41636
0.416358
0.416309
0.416239
0.416076
0.416161
0.41628
0.41617
0.416215
0.416277
0.416243
0.416201
0.416021
0.415883
0.415821
0.415712
0.415608
0.415517
0.41549
0.415457
0.415562
0.415785
0.415778
0.415765
0.415623
0.415551
0.415756
0.415882
0.416004
0.41616
0.416051
0.41613
0.416163
0.416147
0.416163
0.416146
0.416098
0.415919
0.41597
0.416055
0.415892
0.415855
0.415956
0.415981
0.415904
0.415942
0.415954
0.415915
0.415757
0.415822
0.415918
0.41589
0.41587
0.415726
0.415688
0.415589
0.41569
0.415857
0.415698
0.415636
0.415663
0.415559
0.381653
0.396046
0.406834
0.413171
0.415756
0.416353
0.416378
0.416332
0.416194
0.416258
0.416363
0.416352
0.416351
0.41619
0.416271
0.416373
0.416288
0.416324
0.416334
0.41631
0.416248
0.416383
0.416652
0.416587
0.416596
0.416606
0.416581
0.416431
0.416304
0.416264
0.416249
0.416245
0.416198
0.416126
0.416083
0.416037
0.415964
0.415956
0.415894
0.415756
0.41566
0.415645
0.415623
0.415661
0.41573
0.415703
0.415678
0.415668
0.415563
0.415499
0.415721
0.416438
0.416506
0.416486
0.416425
0.416472
0.416504
0.416495
0.416492
0.416259
0.416302
0.416371
0.416274
0.416282
0.416268
0.416271
0.416243
0.416149
0.416197
0.416235
0.416183
0.416081
0.415992
0.415962
0.415924
0.415986
0.415999
0.415925
0.415928
0.415905
0.4157
0.415742
0.415851
0.415691
0.415642
0.41568
0.41565
0.41565
0.41565
0.415552
0.381648
0.395984
0.406978
0.413186
0.415547
0.415878
0.415758
0.415739
0.415864
0.415938
0.415968
0.415932
0.415766
0.415804
0.416132
0.41618
0.416139
0.416008
0.41606
0.416429
0.416681
0.416659
0.41661
0.416596
0.416543
0.416376
0.416357
0.41646
0.416417
0.416412
0.416375
0.416192
0.416116
0.416166
0.416004
0.415994
0.416148
0.416168
0.416117
0.415908
0.415868
0.415901
0.415919
0.415916
0.415697
0.415758
0.415827
0.415799
0.41579
0.415696
0.415658
0.415605
0.415506
0.41557
0.415707
0.415626
0.415632
0.415632
0.415566
0.415491
0.415497
0.415514
0.415495
0.415477
0.415469
0.415615
0.415696
0.4155
0.415532
0.415818
0.415939
0.415907
0.41586
0.415876
0.415864
0.415712
0.415707
0.415964
0.416028
0.416004
0.416013
0.415943
0.415675
0.415697
0.41583
0.415749
0.415659
0.415731
0.415803
0.415642
0.381647
0.396011
0.406941
0.413027
0.415912
0.416598
0.416564
0.416576
0.416563
0.416589
0.416502
0.416583
0.416666
0.416625
0.416489
0.416501
0.41658
0.416515
0.416521
0.416481
0.416596
0.416723
0.416679
0.416678
0.416683
0.416693
0.416643
0.416537
0.416339
0.416353
0.416367
0.416179
0.416254
0.41629
0.416272
0.416255
0.415968
0.415887
0.415865
0.415784
0.415776
0.415776
0.41578
0.415742
0.415688
0.415486
0.41554
0.41572
0.415714
0.415712
0.415553
0.415594
0.416132
0.416489
0.416437
0.41645
0.416411
0.416478
0.416535
0.416529
0.416548
0.416505
0.416362
0.416391
0.416408
0.416162
0.416205
0.416283
0.416074
0.416159
0.41629
0.416141
0.416219
0.416325
0.416289
0.416283
0.416294
0.416306
0.416252
0.416213
0.416116
0.415867
0.415748
0.415882
0.415948
0.415894
0.415692
0.415711
0.415835
0.415612
0.381647
0.396013
0.406934
0.413057
0.415825
0.416767
0.416795
0.41669
0.416787
0.416844
0.416745
0.416761
0.416756
0.416758
0.41662
0.416686
0.416755
0.416529
0.416604
0.416741
0.416728
0.416688
0.416726
0.416798
0.4168
0.4168
0.416762
0.416743
0.416526
0.416439
0.416382
0.416272
0.416214
0.416205
0.416156
0.41604
0.416072
0.416093
0.415922
0.416012
0.416109
0.416106
0.416101
0.415836
0.415879
0.415963
0.415857
0.415923
0.415947
0.415895
0.415702
0.415671
0.416113
0.416515
0.41643
0.416537
0.416604
0.416549
0.416569
0.416498
0.416466
0.416415
0.416474
0.416493
0.416266
0.416312
0.416383
0.416191
0.416282
0.416382
0.416359
0.416353
0.416355
0.416361
0.416329
0.416324
0.416228
0.416208
0.416119
0.416113
0.41611
0.416059
0.415996
0.415947
0.415853
0.415741
0.415859
0.415968
0.415917
0.415728
0.381644
0.395965
0.407028
0.413187
0.41546
0.416066
0.416063
0.416023
0.415904
0.415922
0.415993
0.415958
0.415852
0.415963
0.416444
0.416378
0.416403
0.416729
0.416843
0.416802
0.416649
0.416655
0.416751
0.41656
0.416516
0.416556
0.416547
0.416565
0.416574
0.416569
0.416458
0.416397
0.416353
0.416283
0.416129
0.416082
0.416011
0.415784
0.415775
0.41598
0.416029
0.415992
0.416
0.415958
0.415869
0.415856
0.415853
0.415756
0.41581
0.415878
0.415626
0.415675
0.415766
0.415746
0.415755
0.415653
0.415766
0.415828
0.41581
0.415777
0.415784
0.415712
0.41581
0.41604
0.416065
0.416024
0.415799
0.415846
0.416021
0.415952
0.415964
0.415967
0.415964
0.41586
0.415902
0.415943
0.415782
0.415864
0.416032
0.41579
0.415776
0.415875
0.415698
0.415734
0.415927
0.415944
0.415909
0.415898
0.415845
0.41559
0.381643
0.39603
0.406884
0.413154
0.415807
0.416327
0.416517
0.416525
0.416322
0.4164
0.416545
0.416511
0.416509
0.416464
0.416486
0.416443
0.416263
0.416285
0.416418
0.416403
0.416404
0.416286
0.416416
0.416559
0.416364
0.416451
0.41661
0.41654
0.416381
0.416373
0.416374
0.416144
0.416203
0.416237
0.416215
0.416207
0.416094
0.416071
0.415981
0.415775
0.41561
0.415583
0.41557
0.415503
0.41552
0.415587
0.415575
0.415569
0.415424
0.415378
0.415633
0.415726
0.415704
0.415695
0.415508
0.415572
0.415663
0.415506
0.415613
0.41579
0.415774
0.415784
0.415767
0.41575
0.415651
0.415589
0.415543
0.415435
0.415426
0.415682
0.415815
0.415789
0.415705
0.415743
0.415778
0.415614
0.415716
0.415796
0.415738
0.415626
0.415681
0.415888
0.415903
0.415905
0.415803
0.415775
0.415643
0.415544
0.41555
0.415475
0.381647
0.396013
0.406937
0.413042
0.415879
0.416631
0.416597
0.416602
0.416578
0.416687
0.416743
0.416615
0.416704
0.416764
0.416711
0.416711
0.416723
0.416715
0.416529
0.416552
0.416684
0.416591
0.416697
0.416751
0.416711
0.416708
0.416644
0.416504
0.416377
0.416335
0.416248
0.416223
0.416223
0.416189
0.415994
0.415918
0.416006
0.416024
0.415968
0.415827
0.415792
0.415725
0.415694
0.415689
0.415618
0.415601
0.415445
0.415515
0.415737
0.4157
0.415699
0.415642
0.415658
0.415714
0.415719
0.41566
0.415461
0.415477
0.415668
0.415669
0.415582
0.415608
0.415843
0.415899
0.41587
0.415836
0.415782
0.415613
0.415539
0.415635
0.415682
0.415569
0.415669
0.415855
0.415866
0.415867
0.415772
0.415759
0.415673
0.415573
0.415549
0.415493
0.415613
0.415827
0.415829
0.415828
0.415647
0.415746
0.415858
0.415656
0.381646
0.396013
0.406933
0.413065
0.415785
0.41688
0.416942
0.416857
0.416847
0.41676
0.416822
0.416845
0.416763
0.416794
0.416801
0.416654
0.416725
0.416797
0.416573
0.416648
0.416794
0.416574
0.416605
0.416775
0.416787
0.416814
0.416784
0.41676
0.416739
0.416739
0.416723
0.416644
0.416537
0.416426
0.41614
0.416055
0.416122
0.416129
0.41613
0.416109
0.415946
0.415895
0.415907
0.415911
0.415891
0.415773
0.415788
0.415803
0.415759
0.415691
0.415592
0.415755
0.4165
0.416613
0.416482
0.416565
0.416606
0.416538
0.416524
0.416536
0.41656
0.416524
0.416537
0.416475
0.416249
0.416279
0.416347
0.416137
0.41622
0.416325
0.416208
0.416217
0.416202
0.416219
0.416175
0.415995
0.41604
0.416098
0.41604
0.416016
0.416036
0.416046
0.41585
0.415909
0.415972
0.415951
0.415946
0.415832
0.415793
0.415579
0.381647
0.396013
0.406934
0.413057
0.415826
0.416769
0.416797
0.416692
0.416789
0.416847
0.416748
0.416761
0.416755
0.416758
0.416621
0.416688
0.416757
0.41653
0.416604
0.416743
0.416661
0.416724
0.416771
0.416749
0.41678
0.416737
0.416706
0.416679
0.416531
0.41643
0.416364
0.416233
0.416144
0.416165
0.416166
0.416049
0.416048
0.416064
0.415921
0.416017
0.416112
0.416109
0.416104
0.415837
0.41588
0.415963
0.415915
0.41592
0.415936
0.415928
0.415703
0.415687
0.416145
0.416376
0.416371
0.416351
0.416386
0.416417
0.416367
0.416358
0.416176
0.416255
0.41634
0.416146
0.416227
0.416299
0.416182
0.416183
0.416178
0.416022
0.41607
0.416157
0.416157
0.416158
0.416107
0.416089
0.415916
0.415796
0.415789
0.415724
0.415848
0.415969
0.415769
0.415856
0.415947
0.415928
0.415927
0.415854
0.415814
0.415597
0.381647
0.396011
0.406942
0.413026
0.415911
0.416599
0.416533
0.416597
0.416672
0.416624
0.416632
0.416624
0.416492
0.416558
0.41668
0.416644
0.416517
0.416549
0.416629
0.416541
0.41658
0.416613
0.416576
0.416387
0.416447
0.416535
0.416327
0.416413
0.416575
0.416572
0.416568
0.41648
0.416489
0.416452
0.416403
0.416307
0.416276
0.416168
0.415862
0.415788
0.415836
0.415848
0.415811
0.415756
0.415735
0.415503
0.415517
0.415784
0.415811
0.415759
0.415595
0.415595
0.416148
0.416427
0.416419
0.416382
0.416366
0.416407
0.416431
0.416433
0.416268
0.416206
0.416291
0.416324
0.416275
0.41609
0.416072
0.416139
0.415959
0.416006
0.416209
0.416199
0.41616
0.416037
0.415943
0.416032
0.416134
0.416058
0.416098
0.416112
0.416069
0.415967
0.415867
0.415822
0.415793
0.415744
0.415853
0.415954
0.415901
0.415709
0.381648
0.395981
0.406989
0.413159
0.415565
0.415978
0.415955
0.415856
0.415799
0.416045
0.416187
0.416142
0.415973
0.415958
0.416107
0.416062
0.416155
0.416206
0.416087
0.416171
0.41628
0.416357
0.416572
0.416398
0.416468
0.416638
0.416507
0.416428
0.416505
0.416542
0.416498
0.416434
0.416346
0.416308
0.416247
0.41612
0.416053
0.416126
0.416139
0.416034
0.416095
0.416123
0.416034
0.416061
0.416013
0.416009
0.41607
0.416056
0.41592
0.41592
0.415942
0.415953
0.415945
0.415795
0.415564
0.415582
0.415624
0.415468
0.415505
0.415791
0.415812
0.415762
0.415596
0.415591
0.41584
0.415863
0.415898
0.415908
0.415881
0.415811
0.415906
0.416106
0.416009
0.416088
0.416115
0.416019
0.416051
0.416062
0.416038
0.416049
0.416016
0.415958
0.415763
0.41583
0.416027
0.416022
0.41604
0.415997
0.415916
0.415642
0.381687
0.395962
0.406914
0.413218
0.415589
0.415897
0.416052
0.416204
0.416095
0.416094
0.41606
0.416068
0.415961
0.416065
0.416251
0.416261
0.416264
0.41609
0.416073
0.416035
0.416157
0.41653
0.41654
0.416517
0.416296
0.416266
0.416404
0.416415
0.416437
0.41639
0.41633
0.416148
0.416204
0.416301
0.416253
0.416167
0.416063
0.416088
0.416104
0.416073
0.415999
0.415964
0.415963
0.415968
0.415916
0.415881
0.415845
0.41579
0.415669
0.415623
0.415488
0.415556
0.415794
0.415779
0.415792
0.41572
0.415776
0.415769
0.415929
0.416103
0.416077
0.415983
0.416011
0.41608
0.415942
0.415932
0.415887
0.415951
0.415971
0.415859
0.415947
0.416003
0.415969
0.41594
0.415805
0.415883
0.415994
0.415945
0.415942
0.415908
0.415658
0.415648
0.41584
0.415886
0.415832
0.415602
0.415621
0.415772
0.415761
0.415647
0.381683
0.395973
0.406898
0.413221
0.415613
0.415916
0.416058
0.416208
0.41604
0.41609
0.416109
0.416072
0.415969
0.416039
0.416316
0.416328
0.416274
0.416058
0.416114
0.416435
0.416483
0.416451
0.416409
0.416374
0.416317
0.416272
0.416197
0.416176
0.416194
0.416198
0.416063
0.416131
0.416287
0.41629
0.416285
0.416181
0.416059
0.415957
0.415962
0.415995
0.415999
0.415949
0.41588
0.415627
0.415657
0.415753
0.415743
0.415739
0.415533
0.41564
0.41604
0.415924
0.415989
0.416269
0.416278
0.416218
0.416
0.415966
0.416173
0.416259
0.416236
0.416245
0.416189
0.415954
0.415995
0.416101
0.415911
0.415997
0.416091
0.41606
0.416023
0.415914
0.415875
0.415762
0.415855
0.415946
0.415939
0.415939
0.415862
0.415867
0.415785
0.415764
0.415763
0.41575
0.415621
0.415528
0.415735
0.415868
0.415819
0.415634
0.381647
0.396013
0.406933
0.413059
0.415813
0.416794
0.416841
0.416829
0.416855
0.41679
0.416812
0.416854
0.416825
0.4168
0.416763
0.416722
0.416596
0.416674
0.416743
0.416526
0.416602
0.416731
0.416609
0.41662
0.416622
0.416631
0.416608
0.416559
0.416461
0.41628
0.416307
0.416331
0.416145
0.416211
0.416258
0.41601
0.416045
0.416188
0.416065
0.415991
0.415962
0.415867
0.415962
0.416129
0.415953
0.416046
0.416133
0.415976
0.416055
0.416098
0.41606
0.416021
0.41583
0.415812
0.415762
0.415891
0.416105
0.416007
0.416034
0.415986
0.415965
0.415956
0.415962
0.415952
0.415816
0.415872
0.415981
0.415822
0.415776
0.415923
0.416029
0.416013
0.416011
0.415935
0.41583
0.415902
0.415973
0.415923
0.415823
0.415729
0.415775
0.415722
0.415852
0.415959
0.415944
0.415941
0.41577
0.415831
0.415869
0.415675
0.381659
0.39602
0.406909
0.413031
0.415761
0.416863
0.416934
0.416846
0.416855
0.416839
0.4168
0.416818
0.416843
0.416776
0.416763
0.41685
0.416872
0.416813
0.416809
0.416819
0.416825
0.416756
0.416619
0.416631
0.416737
0.416734
0.416691
0.416662
0.416658
0.416662
0.416604
0.41656
0.416469
0.41623
0.416131
0.416272
0.416316
0.416258
0.416108
0.415997
0.416073
0.416109
0.416064
0.415934
0.41598
0.416011
0.415808
0.415819
0.416028
0.4161
0.416079
0.416053
0.416031
0.415832
0.415855
0.416085
0.41609
0.41607
0.415884
0.415891
0.416075
0.415956
0.416046
0.416223
0.416102
0.416168
0.416287
0.416273
0.416242
0.416216
0.415992
0.415993
0.416108
0.416108
0.416106
0.416017
0.41587
0.415904
0.415982
0.41595
0.41593
0.415806
0.415753
0.415609
0.415644
0.4158
0.415756
0.415746
0.4157
0.415558
0.381653
0.396044
0.406844
0.413132
0.415819
0.416354
0.416339
0.416257
0.416176
0.416179
0.416052
0.416142
0.416279
0.416046
0.416104
0.41625
0.416212
0.416212
0.416147
0.416293
0.41644
0.416405
0.416413
0.416395
0.41629
0.416143
0.416113
0.41604
0.416116
0.416333
0.416338
0.416319
0.416097
0.416155
0.416256
0.416243
0.416238
0.416158
0.416125
0.415978
0.415806
0.41574
0.415561
0.415609
0.415783
0.415752
0.415747
0.415603
0.415691
0.415894
0.415882
0.415866
0.415652
0.41564
0.415862
0.415816
0.415907
0.416219
0.416224
0.416194
0.416211
0.416149
0.415919
0.41594
0.416111
0.41605
0.416072
0.416079
0.416065
0.416031
0.41599
0.415864
0.415933
0.415987
0.415816
0.415908
0.415991
0.41574
0.415746
0.41588
0.415874
0.415889
0.415906
0.415907
0.415816
0.41571
0.415841
0.415973
0.415921
0.415723
0.381646
0.396013
0.406934
0.413056
0.415829
0.416686
0.416693
0.416817
0.416868
0.416829
0.416829
0.416818
0.416812
0.416675
0.416696
0.416747
0.416653
0.416743
0.416783
0.416602
0.416676
0.41674
0.416694
0.416697
0.416677
0.416641
0.416378
0.416308
0.41643
0.416514
0.416478
0.416439
0.416414
0.416297
0.416184
0.416102
0.415935
0.415809
0.415808
0.41574
0.415713
0.415765
0.415671
0.415708
0.41585
0.415702
0.41574
0.415892
0.415747
0.415846
0.41597
0.415958
0.415955
0.415731
0.415728
0.415932
0.415991
0.415952
0.415826
0.415908
0.415972
0.415792
0.415856
0.415976
0.415754
0.415805
0.415957
0.415746
0.415756
0.415922
0.415912
0.415977
0.415993
0.415954
0.415821
0.415865
0.415937
0.415887
0.415716
0.415704
0.415902
0.415975
0.415948
0.415904
0.415877
0.415654
0.41571
0.415872
0.415833
0.415689
0.381624
0.395998
0.407017
0.413186
0.415486
0.415796
0.415798
0.415766
0.415834
0.416037
0.416059
0.416018
0.415798
0.415806
0.416221
0.4164
0.416377
0.41629
0.416404
0.416588
0.416386
0.416421
0.416683
0.416744
0.416717
0.416697
0.416652
0.416586
0.416469
0.416248
0.41629
0.416324
0.416294
0.41629
0.416202
0.416252
0.416254
0.416108
0.416083
0.416162
0.416197
0.416161
0.415929
0.415967
0.416073
0.416013
0.416038
0.416051
0.41603
0.415869
0.41571
0.41567
0.415556
0.415653
0.415847
0.415864
0.415822
0.415633
0.415695