/*--------------------------------*- C++ -*----------------------------------*\
  =========                 |
  \\      /  F ield         | OpenFOAM: The Open Source CFD Toolbox
   \\    /   O peration     | Website:  https://openfoam.org
    \\  /    A nd           | Version:  11
     \\/     M anipulation  |
\*---------------------------------------------------------------------------*/
FoamFile
{
    format      ascii;
    class       volScalarField;
    location    "0.05";
    object      nut;
}
// * * * * * * * * * * * * * * * * * * * * * * * * * * * * * * * * * * * * * //

dimensions      [0 2 -1 0 0 0 0];

internalField   nonuniform List<scalar> 
287084
(
0.000836648
0.000869248
0.000895084
0.000910119
0.000916168
0.000917441
0.000917684
0.000917703
0.000917582
0.000917988
0.000918261
0.000918164
0.000918113
0.000918002
0.000917918
0.000917435
0.000917322
0.000917681
0.000917426
0.000917598
0.000917928
0.000917653
0.000917633
0.000917645
0.000917584
0.000917259
0.000917206
0.000917578
0.000917767
0.000917759
0.000917858
0.000917903
0.000917831
0.000917455
0.000917671
0.000918107
0.000918014
0.000918154
0.000918274
0.000918096
0.000918118
0.000918376
0.000918514
0.000918449
0.000918545
0.000918646
0.000918417
0.000918728
0.000919181
0.000918829
0.000919035
0.000919272
0.000919218
0.000919176
0.000918649
0.000918646
0.000918942
0.000918922
0.00091888
0.000918904
0.000918909
0.000918489
0.000918508
0.000919184
0.000919344
0.000919201
0.000918806
0.000918672
0.000918983
0.000919155
0.000919035
0.000918586
0.000918617
0.000919018
0.000918928
0.000918996
0.000918991
0.000918868
0.000918744
0.000918937
0.000919198
0.000919159
0.000919176
0.000919105
0.000918953
0.000918532
0.000918301
0.000918594
0.000918721
0.00091839
0.00118262
0.0012271
0.00126183
0.00128188
0.0012896
0.0012908
0.00129086
0.00129078
0.00129106
0.00129135
0.00129128
0.00129122
0.00129092
0.00129088
0.00129065
0.0012901
0.00129016
0.00129036
0.00128989
0.00128966
0.00129003
0.00129042
0.00129068
0.00129076
0.00129061
0.00129023
0.00129029
0.00129073
0.00129014
0.00129039
0.00129088
0.00129071
0.00129076
0.00129079
0.00129081
0.00129103
0.00129123
0.00129092
0.00129137
0.00129209
0.00129228
0.00129245
0.00129187
0.00129219
0.00129272
0.00129285
0.00129296
0.00129287
0.00129294
0.00129281
0.00129236
0.00129219
0.00129256
0.00129268
0.00129261
0.00129239
0.00129232
0.00129203
0.00129229
0.0012929
0.00129254
0.00129277
0.00129286
0.00129271
0.00129225
0.0012923
0.00129283
0.00129287
0.00129287
0.00129236
0.00129268
0.00129324
0.00129317
0.0012931
0.00129263
0.00129254
0.00129217
0.00129247
0.00129288
0.00129261
0.0012926
0.00129245
0.00129199
0.00129215
0.00129243
0.00129242
0.00129241
0.00129212
0.00129206
0.00129149
0.00118268
0.00122726
0.00126204
0.00128194
0.00128966
0.00129149
0.00129159
0.00129163
0.00129122
0.00129144
0.00129177
0.0012915
0.00129152
0.0012913
0.00129071
0.00129072
0.00129101
0.00129095
0.00129085
0.00129012
0.00129013
0.00129049
0.00129041
0.00129088
0.00129097
0.00129082
0.00129027
0.00129025
0.0012906
0.00129038
0.00129031
0.00129051
0.00129059
0.00129067
0.00129091
0.00129085
0.00129116
0.00129183
0.00129193
0.00129219
0.00129237
0.00129232
0.00129241
0.00129254
0.00129267
0.00129268
0.00129267
0.00129309
0.00129329
0.00129319
0.00129255
0.00129252
0.00129278
0.00129225
0.00129238
0.00129292
0.00129264
0.00129238
0.00129263
0.00129305
0.001293
0.00129305
0.00129287
0.00129228
0.00129247
0.00129309
0.00129305
0.00129303
0.00129274
0.00129264
0.00129267
0.00129265
0.00129209
0.00129213
0.00129253
0.00129235
0.0012921
0.0012921
0.00129214
0.00129201
0.00129185
0.00129231
0.00129285
0.00129211
0.00129214
0.00129253
0.00129192
0.00129195
0.00129229
0.00129166
0.00118264
0.00122753
0.00126216
0.00128203
0.0012902
0.00129206
0.00129212
0.0012921
0.00129161
0.00129178
0.00129203
0.00129194
0.00129184
0.00129099
0.00129107
0.00129138
0.00129123
0.00129112
0.00129071
0.00129036
0.00129028
0.00129021
0.00129006
0.00128993
0.00128995
0.00128997
0.00128993
0.00128979
0.00129018
0.00129087
0.00129102
0.00129117
0.00129101
0.00129124
0.00129139
0.00129152
0.00129152
0.00129102
0.00129121
0.00129199
0.00129222
0.0012924
0.0012921
0.0012925
0.0012928
0.00129288
0.00129297
0.00129267
0.00129249
0.00129248
0.00129272
0.0012928
0.00129282
0.00129253
0.00129227
0.00129243
0.00129216
0.00129232
0.00129316
0.00129326
0.00129306
0.0012924
0.00129243
0.00129303
0.00129273
0.00129303
0.00129324
0.00129273
0.00129304
0.00129328
0.00129247
0.00129247
0.00129283
0.00129257
0.0012924
0.00129253
0.00129254
0.00129292
0.00129327
0.0012932
0.00129315
0.00129247
0.00129263
0.00129291
0.00129275
0.00129244
0.00129217
0.00129231
0.00129234
0.00129198
0.00118265
0.00122761
0.0012622
0.00128222
0.00129035
0.00129167
0.00129124
0.00129148
0.00129197
0.0012912
0.00129128
0.00129182
0.00129172
0.00129143
0.00129064
0.00129071
0.00129081
0.00129041
0.00129028
0.00129017
0.00128979
0.00128976
0.00129031
0.00129015
0.00129018
0.00129018
0.00128991
0.00128987
0.00129016
0.00129026
0.00129043
0.00129059
0.00129038
0.00129056
0.00129126
0.00129114
0.00129159
0.00129248
0.00129262
0.0012927
0.00129243
0.00129223
0.00129254
0.00129282
0.00129278
0.00129227
0.00129229
0.00129266
0.00129219
0.00129229
0.00129278
0.00129276
0.00129282
0.00129278
0.00129226
0.00129223
0.00129281
0.00129265
0.00129268
0.00129267
0.00129238
0.00129223
0.00129245
0.00129215
0.00129221
0.0012926
0.00129254
0.00129258
0.00129252
0.00129205
0.00129196
0.00129295
0.00129328
0.00129309
0.0012926
0.00129241
0.00129263
0.00129245
0.00129249
0.00129244
0.00129209
0.00129197
0.00129225
0.00129194
0.00129221
0.00129278
0.00129207
0.00129217
0.00129265
0.00129194
0.00118261
0.00122764
0.00126246
0.00128229
0.00128941
0.00129015
0.00129013
0.00129096
0.00129149
0.0012914
0.0012913
0.00129072
0.00129053
0.00129009
0.00129026
0.00129095
0.00129055
0.00129052
0.00129026
0.00129008
0.00128997
0.00128948
0.00128936
0.0012898
0.00128985
0.00128952
0.00128981
0.00129033
0.00129029
0.00129041
0.00129018
0.00129032
0.00129049
0.00129071
0.00129094
0.00129131
0.00129158
0.00129176
0.00129199
0.00129205
0.00129203
0.00129168
0.00129167
0.00129208
0.00129201
0.0012921
0.00129244
0.00129252
0.00129271
0.00129278
0.00129287
0.00129259
0.00129295
0.00129337
0.00129337
0.00129337
0.00129285
0.00129269
0.00129296
0.00129308
0.00129291
0.00129231
0.00129225
0.00129272
0.00129257
0.00129288
0.00129319
0.00129317
0.00129314
0.00129247
0.0012925
0.00129299
0.00129249
0.00129271
0.00129315
0.0012925
0.00129236
0.00129255
0.00129224
0.00129216
0.00129234
0.00129205
0.00129236
0.00129292
0.00129256
0.00129254
0.00129249
0.00129253
0.00129248
0.00129198
0.00118252
0.00122777
0.00126248
0.00128236
0.00128966
0.00129038
0.00129079
0.00129123
0.00129106
0.00129095
0.00129037
0.00129085
0.00129234
0.00129218
0.00129183
0.00129195
0.00129214
0.00129182
0.00129167
0.00129128
0.00129115
0.00129105
0.00129056
0.00129069
0.00129109
0.00129099
0.00129091
0.00129033
0.00129059
0.00129082
0.0012903
0.0012907
0.00129137
0.00129124
0.00129131
0.0012914
0.0012912
0.00129135
0.00129232
0.00129282
0.00129285
0.00129256
0.00129257
0.00129313
0.00129334
0.00129331
0.0012929
0.00129317
0.00129339
0.0012933
0.0012929
0.00129292
0.0012932
0.00129316
0.00129279
0.00129279
0.00129324
0.0012934
0.00129327
0.00129304
0.00129296
0.00129228
0.00129214
0.0012928
0.00129305
0.00129276
0.0012927
0.00129264
0.00129199
0.00129199
0.00129247
0.00129245
0.00129215
0.00129222
0.00129276
0.00129281
0.0012928
0.00129234
0.00129229
0.00129198
0.00129231
0.00129286
0.00129214
0.00129215
0.00129255
0.00129226
0.0012926
0.00129284
0.00129266
0.00129204
0.00118262
0.00122775
0.00126236
0.0012819
0.00129085
0.00129348
0.00129341
0.00129365
0.00129385
0.00129371
0.00129348
0.00129336
0.00129324
0.00129298
0.00129281
0.00129237
0.001292
0.00129207
0.00129202
0.00129164
0.00129152
0.00129141
0.00129119
0.00129078
0.00129074
0.00129094
0.00129085
0.00129093
0.00129096
0.00129074
0.00129055
0.00129061
0.00129062
0.00129073
0.00129132
0.00129173
0.00129153
0.00129194
0.00129297
0.00129323
0.00129331
0.00129284
0.00129309
0.00129364
0.00129379
0.00129391
0.00129379
0.00129382
0.00129346
0.00129379
0.00129426
0.00129385
0.00129413
0.00129428
0.00129417
0.00129424
0.00129407
0.00129397
0.00129386
0.00129344
0.00129297
0.0012929
0.00129277
0.00129277
0.00129274
0.00129235
0.00129244
0.00129287
0.00129282
0.00129274
0.00129264
0.00129253
0.00129249
0.00129217
0.00129213
0.00129296
0.00129311
0.00129293
0.00129249
0.00129221
0.00129231
0.00129216
0.00129257
0.0012929
0.00129285
0.00129283
0.00129227
0.00129243
0.00129254
0.0012919
0.00118257
0.00122774
0.00126253
0.00128231
0.00128996
0.00129142
0.00129146
0.0012912
0.00129109
0.0012907
0.00129095
0.00129215
0.00129193
0.0012919
0.00129176
0.00129155
0.00129125
0.00129145
0.00129176
0.00129159
0.00129143
0.00129132
0.00129125
0.0012909
0.00129096
0.001291
0.00129095
0.00129103
0.00129097
0.00129042
0.00129019
0.00129052
0.00129073
0.00129086
0.00129137
0.00129177
0.00129157
0.00129191
0.00129264
0.00129265
0.00129318
0.00129356
0.00129322
0.00129366
0.00129397
0.00129408
0.00129417
0.00129385
0.00129385
0.00129363
0.00129298
0.00129261
0.00129276
0.0012928
0.00129243
0.00129246
0.00129319
0.00129329
0.00129311
0.00129247
0.00129237
0.00129302
0.0012931
0.00129291
0.00129245
0.0012923
0.0012926
0.00129238
0.00129273
0.0012933
0.00129319
0.00129304
0.00129238
0.00129251
0.00129294
0.00129248
0.00129286
0.00129324
0.00129322
0.0012932
0.00129251
0.00129238
0.00129261
0.0012924
0.00129268
0.00129278
0.00129253
0.00129255
0.00129241
0.00129177
0.00118252
0.00122765
0.0012629
0.00128199
0.00128985
0.0012913
0.00129121
0.00129077
0.00129061
0.00129148
0.00129164
0.00129132
0.00129055
0.00129029
0.00129098
0.00129107
0.00129073
0.00129055
0.0012903
0.00128947
0.00128942
0.00128987
0.00128976
0.00128946
0.00128946
0.00128984
0.00128938
0.00128967
0.0012904
0.00129041
0.00129026
0.00129048
0.00129092
0.00129091
0.00129146
0.00129185
0.001292
0.0012918
0.00129207
0.00129248
0.00129243
0.0012926
0.00129257
0.001292
0.00129203
0.00129254
0.00129273
0.00129281
0.00129274
0.00129243
0.00129263
0.00129287
0.00129279
0.00129278
0.0012923
0.00129246
0.00129253
0.00129216
0.00129242
0.00129317
0.00129307
0.00129292
0.00129224
0.0012924
0.0012927
0.00129207
0.0012923
0.00129285
0.0012925
0.00129255
0.00129238
0.00129195
0.00129178
0.00129219
0.00129231
0.00129191
0.00129216
0.00129282
0.00129273
0.00129259
0.00129195
0.00129207
0.00129279
0.00129298
0.00129285
0.00129261
0.00129223
0.00129236
0.00129254
0.00129191
0.0011826
0.00122765
0.00126257
0.00128232
0.00129027
0.00129159
0.00129148
0.00129099
0.0012909
0.00129127
0.00129116
0.0012909
0.0012908
0.00129104
0.00129086
0.00129054
0.00129076
0.00129107
0.00129074
0.00129068
0.00129053
0.00129026
0.00129012
0.00128985
0.00128984
0.00128987
0.00128953
0.00128974
0.00128991
0.00128991
0.00128998
0.00129065
0.00129126
0.00129155
0.00129188
0.00129204
0.00129232
0.00129249
0.00129251
0.00129245
0.00129246
0.00129211
0.00129209
0.0012926
0.0012928
0.00129269
0.00129316
0.0012937
0.00129368
0.00129367
0.00129342
0.00129329
0.00129317
0.00129279
0.00129276
0.00129309
0.00129302
0.00129255
0.00129264
0.00129297
0.00129295
0.00129292
0.00129224
0.00129247
0.0012928
0.0012927
0.00129265
0.00129205
0.00129226
0.00129268
0.0012926
0.0012924
0.00129252
0.00129306
0.00129241
0.0012924
0.00129281
0.00129238
0.00129265
0.00129311
0.00129242
0.00129263
0.00129309
0.00129272
0.00129236
0.00129229
0.00129248
0.00129252
0.0012925
0.00129185
0.00118255
0.00122778
0.00126244
0.0012824
0.0012902
0.00129168
0.00129202
0.00129187
0.00129177
0.00129124
0.00129109
0.00129189
0.00129161
0.00129187
0.0012922
0.00129158
0.00129136
0.00129116
0.00129062
0.0012907
0.0012909
0.00129005
0.00129013
0.00129057
0.00129035
0.00129038
0.00129051
0.00129059
0.00129035
0.00129043
0.00129054
0.00129057
0.00129066
0.00129086
0.00129112
0.00129133
0.00129151
0.00129142
0.00129157
0.00129204
0.00129209
0.00129225
0.00129262
0.00129278
0.00129302
0.00129313
0.00129314
0.00129292
0.00129335
0.00129386
0.00129361
0.00129374
0.00129393
0.00129386
0.00129361
0.00129278
0.00129276
0.00129302
0.00129289
0.00129254
0.00129267
0.00129322
0.0012927
0.00129296
0.00129319
0.00129311
0.00129307
0.00129241
0.0012927
0.00129313
0.00129308
0.00129304
0.00129233
0.00129248
0.0012927
0.00129261
0.00129255
0.00129196
0.00129227
0.00129286
0.00129273
0.00129221
0.00129213
0.00129266
0.00129277
0.00129263
0.00129196
0.00129206
0.00129256
0.00129185
0.00118262
0.00122776
0.0012624
0.00128189
0.00129104
0.00129335
0.00129319
0.0012931
0.00129277
0.00129297
0.00129303
0.00129225
0.00129232
0.00129245
0.00129174
0.00129183
0.00129186
0.00129141
0.00129118
0.00129071
0.00129087
0.00129093
0.00129012
0.00129024
0.00129044
0.00129044
0.0012905
0.00129049
0.00129061
0.00129024
0.00129013
0.00129062
0.00129106
0.00129139
0.00129163
0.00129226
0.00129282
0.00129302
0.00129301
0.00129298
0.00129349
0.00129383
0.00129386
0.00129345
0.00129365
0.00129424
0.00129432
0.00129437
0.0012941
0.00129409
0.00129386
0.00129374
0.0012937
0.00129327
0.00129341
0.00129365
0.00129351
0.00129336
0.00129286
0.00129324
0.00129359
0.0012934
0.00129294
0.00129268
0.00129285
0.00129244
0.00129249
0.00129287
0.00129282
0.00129274
0.00129268
0.00129257
0.00129252
0.00129219
0.00129216
0.00129299
0.00129311
0.00129293
0.00129228
0.00129222
0.00129276
0.00129279
0.00129266
0.00129217
0.00129203
0.00129235
0.00129231
0.0012923
0.00129229
0.00129186
0.00118255
0.00122766
0.00126271
0.00128246
0.00128953
0.00129033
0.00129049
0.00129108
0.00129075
0.00129071
0.00129057
0.00129031
0.00128992
0.00128964
0.00128942
0.00128976
0.00129014
0.00128958
0.00128958
0.00128948
0.00128888
0.00128897
0.00128968
0.00128921
0.00128951
0.00128996
0.00128968
0.00128986
0.00129007
0.0012902
0.0012901
0.00129059
0.00129103
0.00129088
0.00129132
0.00129228
0.00129272
0.00129305
0.00129345
0.00129369
0.00129389
0.00129395
0.00129417
0.00129442
0.00129437
0.00129449
0.00129453
0.00129464
0.00129457
0.00129435
0.00129379
0.00129332
0.00129357
0.00129377
0.00129363
0.00129353
0.00129296
0.00129315
0.00129353
0.00129341
0.0012933
0.00129265
0.00129276
0.00129315
0.00129297
0.0012924
0.00129236
0.00129285
0.00129293
0.00129292
0.0012927
0.00129257
0.00129241
0.00129202
0.00129223
0.00129304
0.00129252
0.00129279
0.00129327
0.00129282
0.00129305
0.00129318
0.00129308
0.00129303
0.00129242
0.00129255
0.00129317
0.00129322
0.00129318
0.00129231
0.00118262
0.00122776
0.00126239
0.00128194
0.00129088
0.00129362
0.00129379
0.00129357
0.00129314
0.00129333
0.00129336
0.00129273
0.00129268
0.00129255
0.00129216
0.00129195
0.00129166
0.00129089
0.0012908
0.00129087
0.00129044
0.00129025
0.00129008
0.0012901
0.00129005
0.0012901
0.00128996
0.00129002
0.00129016
0.00129048
0.00129076
0.00129076
0.00129088
0.00129118
0.00129146
0.00129178
0.00129201
0.00129197
0.00129201
0.00129238
0.00129255
0.00129271
0.00129336
0.00129395
0.00129394
0.00129376
0.00129343
0.0012934
0.0012933
0.0012937
0.00129394
0.00129337
0.0012936
0.00129404
0.00129393
0.00129381
0.00129309
0.00129284
0.00129315
0.00129302
0.00129335
0.00129395
0.00129377
0.00129377
0.00129349
0.00129349
0.00129346
0.00129334
0.00129325
0.00129269
0.00129272
0.00129276
0.00129261
0.00129225
0.00129218
0.001293
0.00129312
0.00129294
0.00129228
0.00129229
0.00129288
0.00129298
0.00129287
0.00129274
0.00129257
0.00129189
0.00129208
0.00129258
0.00129246
0.00129197
0.00118274
0.00122764
0.00126226
0.00128247
0.00129017
0.00129119
0.0012916
0.00129195
0.00129118
0.00129123
0.00129149
0.00129115
0.00129093
0.00129036
0.00129039
0.00129056
0.00129017
0.00128939
0.00128918
0.00128928
0.00128904
0.00128875
0.00128877
0.00128919
0.00128852
0.00128854
0.00128906
0.00128924
0.0012892
0.00128963
0.00129033
0.00129011
0.00129079
0.00129165
0.00129189
0.00129234
0.00129247
0.0012929
0.00129317
0.00129336
0.00129348
0.00129361
0.00129372
0.00129378
0.00129371
0.00129341
0.00129292
0.00129342
0.00129405
0.00129363
0.00129382
0.00129385
0.0012937
0.00129334
0.00129362
0.00129464
0.00129423
0.00129444
0.0012951
0.00129501
0.00129487
0.00129416
0.00129421
0.00129436
0.0012943
0.00129425
0.00129411
0.00129405
0.00129373
0.00129353
0.00129285
0.0012925
0.00129299
0.00129322
0.00129303
0.00129241
0.00129248
0.00129277
0.00129246
0.00129215
0.0012925
0.00129298
0.00129286
0.00129264
0.0012923
0.00129241
0.00129261
0.00129249
0.00129232
0.00129186
0.00118266
0.00122778
0.00126231
0.00128186
0.00129068
0.00129392
0.00129432
0.0012942
0.00129396
0.00129359
0.00129342
0.00129341
0.00129312
0.0012927
0.00129184
0.00129164
0.0012915
0.0012905
0.00129045
0.00129057
0.00128957
0.00128943
0.00128967
0.00128936
0.00128942
0.0012895
0.00128951
0.00128965
0.00128946
0.00128982
0.00129031
0.00129063
0.001291
0.0012909
0.00129141
0.00129191
0.00129229
0.00129274
0.00129293
0.00129318
0.00129325
0.0012928
0.00129317
0.00129371
0.0012938
0.00129386
0.00129321
0.00129344
0.00129387
0.00129334
0.00129363
0.00129388
0.00129319
0.00129296
0.00129352
0.00129357
0.0012939
0.00129444
0.00129375
0.00129393
0.00129429
0.00129356
0.00129373
0.00129395
0.00129349
0.00129345
0.00129336
0.00129279
0.00129276
0.00129299
0.00129243
0.00129263
0.0012928
0.00129275
0.00129271
0.00129199
0.00129196
0.00129283
0.00129294
0.00129284
0.00129282
0.00129255
0.00129245
0.00129204
0.00129232
0.00129283
0.00129216
0.00129238
0.00129286
0.00129202
0.00118262
0.00122776
0.00126237
0.00128197
0.0012907
0.00129416
0.00129429
0.00129397
0.0012938
0.00129369
0.00129352
0.00129313
0.00129284
0.00129224
0.00129206
0.00129183
0.00129104
0.00129099
0.00129091
0.00128996
0.00128995
0.00129013
0.00128966
0.00128955
0.00128954
0.00128962
0.00128972
0.00128975
0.00128941
0.00128948
0.00128985
0.00129018
0.00129072
0.00129118
0.00129158
0.00129201
0.00129229
0.00129225
0.00129228
0.00129264
0.00129296
0.00129307
0.00129337
0.00129381
0.00129381
0.00129394
0.00129376
0.00129397
0.00129416
0.0012941
0.00129404
0.00129329
0.0012932
0.00129384
0.00129369
0.00129405
0.00129456
0.00129417
0.00129432
0.00129435
0.00129419
0.00129409
0.00129393
0.0012937
0.00129309
0.00129319
0.00129348
0.00129293
0.00129273
0.00129313
0.00129343
0.00129334
0.0012933
0.00129303
0.00129267
0.00129277
0.00129311
0.00129294
0.00129291
0.00129281
0.00129213
0.00129216
0.00129285
0.00129286
0.00129271
0.00129214
0.00129199
0.00129236
0.00129243
0.00129198
0.00118266
0.00122778
0.00126231
0.00128183
0.00129079
0.00129346
0.00129336
0.00129363
0.0012937
0.00129312
0.00129304
0.00129283
0.00129247
0.00129177
0.00129169
0.00129156
0.00129053
0.00129045
0.00129054
0.00128949
0.00128928
0.00128946
0.00128909
0.00128899
0.00128895
0.00128886
0.00128882
0.00128887
0.00128917
0.00128957
0.00128989
0.00129021
0.00129028
0.00129113
0.00129209
0.00129233
0.001293
0.00129368
0.00129401
0.00129426
0.00129401
0.00129384
0.00129385
0.00129367
0.00129345
0.00129323
0.00129318
0.00129308
0.00129339
0.00129404
0.00129397
0.00129387
0.00129335
0.00129305
0.00129361
0.00129392
0.00129422
0.00129463
0.00129421
0.00129438
0.00129441
0.00129429
0.00129427
0.00129415
0.00129395
0.00129333
0.00129344
0.00129365
0.0012931
0.00129294
0.00129321
0.00129325
0.00129298
0.00129306
0.00129307
0.00129292
0.0012924
0.00129258
0.00129286
0.00129275
0.00129267
0.0012922
0.00129207
0.00129175
0.00129205
0.00129256
0.00129206
0.00129186
0.00129193
0.00129157
0.00118264
0.00122787
0.00126206
0.0012823
0.0012906
0.00129251
0.00129252
0.00129225
0.00129166
0.00129167
0.00129178
0.00129151
0.00129125
0.00129047
0.00129043
0.00129045
0.00128987
0.00128967
0.0012894
0.00128903
0.00128857
0.00128876
0.00128941
0.00128908
0.00128906
0.00128913
0.00128919
0.00128896
0.00128889
0.00128919
0.00128965
0.00129019
0.00129065
0.00129105
0.00129152
0.00129198
0.00129231
0.00129278
0.00129304
0.00129299
0.00129301
0.00129323
0.00129336
0.00129363
0.00129394
0.00129392
0.00129387
0.00129384
0.00129348
0.00129324
0.00129387
0.00129603
0.00129617
0.00129602
0.00129575
0.00129581
0.00129582
0.00129571
0.00129562
0.00129481
0.00129487
0.00129501
0.00129464
0.0012946
0.00129449
0.00129444
0.0012943
0.00129396
0.00129406
0.00129413
0.00129393
0.00129357
0.00129326
0.00129313
0.00129298
0.00129315
0.00129316
0.0012929
0.00129289
0.0012928
0.00129214
0.00129226
0.00129258
0.00129207
0.00129191
0.00129201
0.00129191
0.0012919
0.00129189
0.00129155
0.00118262
0.00122767
0.00126251
0.00128234
0.00128994
0.00129102
0.00129058
0.00129039
0.00129062
0.00129065
0.00129052
0.00129017
0.00128939
0.00128923
0.00128994
0.00128978
0.00128934
0.0012886
0.00128845
0.00128929
0.00128979
0.00128949
0.00128914
0.00128897
0.00128876
0.00128829
0.00128837
0.00128894
0.00128915
0.00128958
0.00128999
0.00129
0.00129039
0.00129119
0.00129132
0.0012919
0.00129295
0.00129353
0.00129383
0.00129357
0.00129377
0.00129413
0.00129439
0.00129453
0.00129394
0.00129419
0.00129443
0.00129433
0.00129427
0.00129393
0.00129375
0.00129351
0.00129311
0.00129323
0.00129356
0.00129322
0.00129315
0.00129306
0.00129277
0.00129245
0.00129239
0.00129237
0.00129223
0.00129211
0.00129202
0.00129242
0.00129261
0.00129195
0.001292
0.00129284
0.00129317
0.00129303
0.00129285
0.00129287
0.0012928
0.0012923
0.00129225
0.00129303
0.00129321
0.00129311
0.00129312
0.00129288
0.00129204
0.00129209
0.00129249
0.00129223
0.00129194
0.00129215
0.00129237
0.00129183
0.00118262
0.00122776
0.00126239
0.00128184
0.00129107
0.00129326
0.00129308
0.00129298
0.00129277
0.00129265
0.00129216
0.00129216
0.00129215
0.00129173
0.001291
0.00129072
0.00129063
0.0012901
0.0012898
0.00128936
0.00128943
0.00128958
0.00128924
0.00128911
0.00128908
0.00128916
0.00128916
0.00128909
0.00128884
0.00128934
0.00128992
0.00128995
0.00129082
0.00129159
0.00129219
0.00129276
0.00129245
0.00129273
0.00129312
0.00129327
0.00129357
0.00129383
0.00129405
0.00129407
0.001294
0.00129342
0.00129361
0.00129416
0.0012941
0.00129404
0.00129347
0.00129352
0.00129511
0.00129613
0.00129588
0.00129582
0.0012956
0.00129572
0.00129581
0.0012957
0.00129568
0.00129547
0.00129495
0.00129497
0.00129496
0.00129413
0.0012942
0.00129439
0.00129369
0.00129391
0.00129427
0.00129377
0.00129397
0.00129427
0.00129412
0.00129408
0.00129408
0.0012941
0.00129391
0.00129376
0.00129344
0.00129265
0.00129226
0.00129267
0.00129286
0.00129268
0.00129204
0.00129209
0.00129247
0.00129174
0.00118262
0.00122776
0.00126237
0.00128193
0.00129079
0.00129378
0.00129378
0.00129332
0.00129345
0.00129343
0.00129289
0.00129269
0.0012924
0.00129212
0.00129137
0.00129125
0.00129113
0.00129009
0.00128999
0.00129009
0.00128976
0.00128938
0.0012893
0.00128939
0.00128936
0.00128942
0.00128946
0.00128966
0.00128936
0.00128957
0.00128995
0.00129022
0.0012907
0.00129134
0.00129186
0.00129213
0.00129282
0.00129342
0.00129336
0.00129404
0.00129467
0.00129493
0.00129511
0.00129443
0.00129466
0.00129497
0.00129465
0.00129485
0.00129488
0.00129466
0.00129398
0.0012938
0.00129509
0.00129625
0.00129588
0.00129612
0.00129623
0.00129596
0.00129593
0.00129563
0.00129544
0.0012952
0.00129531
0.0012953
0.00129452
0.00129461
0.00129477
0.00129411
0.00129434
0.00129461
0.00129449
0.00129443
0.0012944
0.00129439
0.00129425
0.00129421
0.00129388
0.00129379
0.00129349
0.00129345
0.00129343
0.00129325
0.00129304
0.00129287
0.00129257
0.00129221
0.00129256
0.0012929
0.00129273
0.0012921
0.00118261
0.00122761
0.00126266
0.00128234
0.00128966
0.00129159
0.00129151
0.00129125
0.0012907
0.00129056
0.00129055
0.00129018
0.00128957
0.00128962
0.0012908
0.00129027
0.00129
0.00129067
0.00129069
0.00129024
0.00128946
0.00128923
0.00128932
0.0012886
0.00128842
0.0012886
0.00128873
0.00128906
0.00128947
0.00128993
0.00129016
0.0012906
0.00129113
0.0012916
0.00129179
0.00129229
0.00129267
0.0012925
0.00129294
0.00129398
0.00129447
0.00129462
0.00129484
0.00129486
0.00129467
0.00129468
0.00129468
0.00129436
0.00129449
0.00129464
0.00129378
0.00129384
0.00129403
0.00129387
0.0012938
0.00129338
0.00129364
0.00129374
0.00129358
0.00129339
0.00129333
0.00129302
0.00129325
0.00129389
0.00129391
0.00129371
0.00129295
0.00129305
0.00129354
0.00129327
0.00129327
0.00129324
0.00129318
0.00129283
0.00129293
0.00129302
0.0012925
0.00129273
0.00129322
0.00129245
0.00129239
0.00129268
0.00129211
0.00129221
0.0012928
0.00129284
0.00129271
0.00129267
0.0012925
0.00129167
0.00118261
0.00122782
0.00126221
0.00128223
0.00129074
0.0012924
0.00129292
0.0012928
0.001292
0.00129204
0.00129226
0.00129189
0.00129161
0.00129117
0.00129092
0.00129045
0.00128955
0.00128927
0.00128934
0.00128897
0.00128868
0.00128805
0.00128826
0.00128857
0.00128792
0.00128825
0.00128889
0.00128896
0.00128885
0.00128931
0.00128989
0.00128981
0.00129067
0.00129146
0.00129207
0.00129269
0.00129294
0.00129341
0.00129361
0.00129337
0.00129319
0.00129337
0.00129353
0.00129346
0.00129361
0.00129386
0.00129384
0.0012938
0.0012933
0.0012931
0.00129381
0.00129402
0.00129385
0.00129372
0.00129304
0.00129314
0.00129332
0.00129274
0.00129298
0.00129344
0.0012933
0.00129325
0.00129312
0.001293
0.00129262
0.00129236
0.00129216
0.00129177
0.00129169
0.00129244
0.0012928
0.00129268
0.00129238
0.00129246
0.00129254
0.001292
0.00129229
0.00129252
0.00129231
0.00129194
0.00129209
0.00129272
0.00129275
0.00129274
0.00129241
0.00129231
0.00129189
0.00129158
0.00129159
0.00129132
0.00118262
0.00122776
0.00126238
0.00128188
0.00129096
0.00129335
0.00129316
0.00129304
0.00129279
0.00129293
0.00129287
0.00129222
0.00129221
0.0012921
0.00129162
0.00129128
0.00129098
0.00129061
0.00128969
0.00128943
0.00128954
0.001289
0.00128913
0.00128916
0.00128899
0.00128905
0.001289
0.00128884
0.00128884
0.0012892
0.0012895
0.00129006
0.00129073
0.00129131
0.00129138
0.00129179
0.00129267
0.00129327
0.00129357
0.00129353
0.00129375
0.00129381
0.00129392
0.00129404
0.00129391
0.00129391
0.00129343
0.00129363
0.00129428
0.0012941
0.00129402
0.00129375
0.00129371
0.00129378
0.0012937
0.00129341
0.0012927
0.00129265
0.00129315
0.00129306
0.0012927
0.0012927
0.00129336
0.00129346
0.0012933
0.00129313
0.0012929
0.00129232
0.00129204
0.00129229
0.00129239
0.001292
0.00129227
0.00129281
0.00129281
0.00129279
0.00129246
0.0012924
0.00129211
0.00129178
0.00129168
0.00129149
0.00129185
0.0012925
0.00129249
0.00129248
0.00129191
0.0012922
0.00129255
0.00129188
0.00118262
0.00122776
0.00126237
0.00128196
0.00129067
0.00129412
0.00129424
0.00129384
0.00129363
0.00129316
0.00129312
0.00129293
0.0012924
0.0012922
0.0012919
0.00129112
0.001291
0.00129088
0.00128985
0.00128976
0.00128991
0.00128897
0.00128887
0.00128926
0.00128926
0.0012894
0.00128947
0.00128966
0.00128998
0.00129046
0.00129098
0.00129136
0.0012917
0.00129204
0.00129183
0.00129221
0.00129301
0.00129357
0.00129405
0.00129439
0.00129421
0.00129431
0.00129456
0.00129471
0.00129474
0.00129442
0.00129448
0.00129451
0.00129433
0.00129405
0.00129367
0.00129409
0.00129632
0.00129657
0.00129607
0.00129622
0.00129625
0.00129594
0.00129581
0.00129576
0.00129575
0.00129555
0.00129551
0.00129525
0.00129448
0.00129451
0.00129466
0.00129395
0.00129416
0.00129443
0.00129403
0.00129401
0.00129393
0.00129395
0.00129378
0.00129318
0.0012933
0.00129345
0.00129325
0.00129315
0.0012932
0.00129321
0.00129258
0.00129275
0.00129294
0.00129286
0.00129284
0.00129247
0.00129234
0.00129164
0.00118262
0.00122776
0.00126237
0.00128193
0.00129079
0.00129378
0.00129379
0.00129333
0.00129346
0.00129345
0.0012929
0.00129269
0.0012924
0.00129211
0.00129138
0.00129126
0.00129114
0.00129009
0.00128999
0.0012901
0.00128955
0.00128949
0.00128944
0.00128924
0.00128929
0.00128922
0.00128928
0.00128946
0.00128938
0.00128954
0.00128989
0.0012901
0.00129048
0.00129122
0.00129189
0.00129216
0.00129275
0.00129333
0.00129336
0.00129405
0.00129468
0.00129493
0.00129512
0.00129444
0.00129466
0.00129497
0.00129484
0.00129484
0.00129485
0.00129476
0.00129398
0.00129385
0.00129519
0.00129581
0.0012957
0.00129554
0.00129555
0.00129555
0.00129531
0.00129519
0.00129454
0.0012947
0.00129489
0.00129422
0.0012944
0.00129456
0.00129414
0.00129409
0.00129402
0.00129349
0.00129359
0.00129382
0.00129379
0.00129375
0.00129356
0.00129347
0.00129291
0.00129251
0.00129247
0.00129224
0.00129261
0.00129297
0.00129233
0.00129259
0.00129286
0.00129279
0.00129277
0.00129254
0.00129241
0.00129169
0.00118262
0.00122776
0.0012624
0.00128184
0.00129107
0.00129326
0.00129298
0.00129304
0.00129311
0.00129276
0.00129256
0.00129229
0.00129161
0.00129152
0.00129159
0.00129117
0.00129044
0.00129021
0.00129013
0.00128955
0.00128938
0.00128924
0.00128892
0.00128821
0.00128835
0.00128868
0.00128818
0.0012887
0.00128957
0.00129002
0.00129055
0.00129088
0.00129155
0.0012921
0.0012926
0.00129292
0.00129341
0.0012936
0.00129311
0.00129328
0.00129376
0.00129405
0.00129414
0.00129412
0.00129415
0.00129348
0.00129354
0.00129436
0.0012944
0.00129419
0.00129361
0.00129352
0.00129516
0.00129594
0.00129582
0.00129561
0.00129546
0.0012955
0.00129548
0.00129541
0.00129481
0.00129454
0.00129473
0.00129476
0.00129454
0.0012939
0.00129379
0.00129394
0.00129333
0.00129343
0.00129402
0.00129395
0.00129379
0.00129337
0.00129305
0.00129329
0.00129359
0.00129333
0.00129343
0.00129345
0.0012933
0.00129296
0.00129263
0.00129248
0.00129238
0.00129221
0.00129254
0.00129285
0.00129268
0.00129204
0.00118263
0.00122766
0.00126254
0.00128226
0.00128999
0.00129134
0.00129119
0.00129075
0.00129041
0.00129098
0.0012912
0.00129082
0.00129003
0.0012897
0.00128987
0.00128942
0.00128938
0.00128922
0.00128853
0.00128849
0.00128854
0.00128854
0.00128902
0.00128836
0.00128853
0.0012891
0.00128884
0.00128884
0.00128943
0.00128998
0.00129037
0.00129075
0.0012911
0.00129163
0.00129208
0.00129229
0.00129265
0.0012934
0.0012939
0.00129396
0.00129448
0.00129482
0.00129475
0.00129498
0.00129493
0.00129497
0.00129518
0.00129513
0.00129468
0.00129463
0.00129463
0.00129459
0.00129448
0.00129393
0.00129311
0.00129308
0.00129312
0.00129255
0.00129257
0.00129338
0.00129337
0.00129314
0.00129255
0.00129246
0.00129318
0.00129319
0.00129324
0.00129322
0.00129308
0.00129282
0.00129307
0.00129365
0.00129332