/*--------------------------------*- C++ -*----------------------------------*\
  =========                 |
  \\      /  F ield         | OpenFOAM: The Open Source CFD Toolbox
   \\    /   O peration     | Website:  https://openfoam.org
    \\  /    A nd           | Version:  11
     \\/     M anipulation  |
\*---------------------------------------------------------------------------*/
FoamFile
{
    format      ascii;
    class       volScalarField;
    location    "0.05";
    object      omega;
}
// * * * * * * * * * * * * * * * * * * * * * * * * * * * * * * * * * * * * * //

dimensions      [0 0 -1 0 0 0 0];

internalField   nonuniform List<scalar> 
287084
(
55.0257
56.0537
56.7989
57.1918
57.3279
57.3426
57.3396
57.3319
57.3288
57.3444
57.3518
57.3483
57.348
57.3488
57.3475
57.3331
57.3334
57.3489
57.3406
57.3477
57.3589
57.3529
57.3532
57.3543
57.3536
57.3394
57.3391
57.3527
57.3571
57.3553
57.3543
57.3504
57.3406
57.3272
57.3318
57.3407
57.3345
57.3355
57.334
57.3201
57.3185
57.3263
57.3235
57.318
57.3184
57.3189
57.3109
57.3189
57.3303
57.3182
57.3234
57.3297
57.3272
57.3245
57.3095
57.3115
57.3224
57.3194
57.3184
57.3195
57.3199
57.3083
57.3107
57.3323
57.336
57.3319
57.317
57.3164
57.3284
57.3328
57.3302
57.3166
57.3194
57.3328
57.33
57.3301
57.3301
57.3256
57.3226
57.331
57.3385
57.337
57.3363
57.3342
57.3292
57.3149
57.3102
57.3211
57.324
57.3159
55.0295
56.0448
56.788
57.189
57.327
57.341
57.3405
57.3374
57.3428
57.3489
57.3475
57.3473
57.3417
57.3403
57.3381
57.3307
57.335
57.3412
57.3311
57.329
57.3413
57.3478
57.3543
57.3595
57.3567
57.3481
57.3503
57.3597
57.3438
57.3472
57.3546
57.3457
57.3409
57.3374
57.3371
57.3381
57.3381
57.328
57.3338
57.3449
57.3442
57.3438
57.3281
57.3324
57.3408
57.3405
57.3404
57.3359
57.3352
57.3309
57.3173
57.3152
57.3244
57.3251
57.3226
57.3181
57.3195
57.3127
57.3187
57.3318
57.3244
57.3291
57.331
57.3278
57.3181
57.3216
57.3342
57.3336
57.3335
57.3239
57.3318
57.3437
57.3414
57.3376
57.3269
57.3246
57.3202
57.3294
57.3378
57.331
57.3303
57.3275
57.3188
57.3232
57.329
57.3284
57.3283
57.321
57.3197
57.3086
55.0296
56.044
56.7877
57.1857
57.3258
57.3552
57.3543
57.3517
57.3446
57.3512
57.3589
57.3534
57.353
57.3527
57.3436
57.3465
57.3555
57.3547
57.3546
57.3416
57.3441
57.3509
57.3515
57.3644
57.3657
57.3629
57.3493
57.3497
57.3565
57.3446
57.3412
57.3459
57.3406
57.3387
57.343
57.3362
57.3388
57.3494
57.3472
57.349
57.3486
57.3398
57.3393
57.3416
57.3404
57.3347
57.3335
57.3421
57.3439
57.3408
57.3246
57.3251
57.3308
57.3165
57.32
57.3319
57.322
57.3171
57.325
57.3337
57.332
57.3306
57.3274
57.3169
57.3235
57.3375
57.3356
57.3354
57.3283
57.3274
57.3314
57.3312
57.3175
57.3196
57.3294
57.3224
57.3176
57.3182
57.3182
57.3184
57.3159
57.3263
57.3371
57.3208
57.3227
57.3322
57.3173
57.3191
57.3274
57.3123
55.0283
56.047
56.7839
57.1816
57.3325
57.3629
57.3615
57.3612
57.3528
57.3577
57.364
57.3632
57.3629
57.3471
57.3517
57.3607
57.3607
57.3606
57.3509
57.3462
57.3467
57.3469
57.3444
57.3428
57.3437
57.3442
57.342
57.3376
57.3466
57.3586
57.3583
57.3581
57.3498
57.3492
57.3477
57.3455
57.3413
57.328
57.3302
57.3443
57.3419
57.3415
57.3327
57.338
57.3408
57.3396
57.3392
57.329
57.3245
57.3251
57.3301
57.3283
57.3246
57.3171
57.3144
57.3215
57.314
57.3182
57.3352
57.337
57.3332
57.3183
57.3215
57.3362
57.329
57.3352
57.3394
57.3296
57.337
57.3417
57.3242
57.3262
57.3351
57.3264
57.3236
57.3275
57.3276
57.3382
57.3451
57.3431
57.3416
57.3279
57.3322
57.3381
57.3343
57.3242
57.3214
57.3255
57.326
57.3204
55.0283
56.047
56.7823
57.1832
57.3322
57.3511
57.3412
57.3478
57.3591
57.3435
57.348
57.3592
57.3604
57.3575
57.3416
57.3465
57.3507
57.3461
57.3464
57.3463
57.3391
57.3408
57.3559
57.3518
57.3535
57.3527
57.3421
57.341
57.3491
57.3483
57.349
57.3487
57.3388
57.3393
57.3518
57.3418
57.3471
57.3584
57.3584
57.3577
57.343
57.3362
57.3406
57.343
57.3392
57.3247
57.3252
57.3326
57.3183
57.3201
57.3307
57.329
57.33
57.3262
57.3139
57.3153
57.3298
57.3249
57.3263
57.3256
57.3157
57.314
57.3229
57.3151
57.3172
57.3268
57.3259
57.3276
57.3246
57.3141
57.3148
57.338
57.343
57.3391
57.3252
57.3242
57.333
57.3283
57.3302
57.3272
57.3162
57.316
57.3264
57.318
57.324
57.336
57.3205
57.3238
57.3348
57.3185
55.0271
56.0475
56.7868
57.1808
57.3063
57.3107
57.3126
57.3356
57.3474
57.3464
57.3458
57.3338
57.3333
57.3283
57.3357
57.3536
57.3448
57.3445
57.3442
57.3457
57.345
57.3349
57.335
57.3449
57.3449
57.3394
57.3444
57.3538
57.3528
57.3529
57.3434
57.3436
57.3431
57.3433
57.3432
57.344
57.3445
57.343
57.3399
57.3361
57.332
57.3195
57.3186
57.3281
57.3193
57.3192
57.3282
57.3274
57.3303
57.3275
57.3249
57.3209
57.3304
57.3385
57.3385
57.3383
57.3243
57.3223
57.3299
57.3321
57.3293
57.3157
57.3169
57.3293
57.3253
57.3316
57.3379
57.3376
57.3374
57.3239
57.3263
57.3384
57.3262
57.3315
57.341
57.324
57.3232
57.3315
57.3205
57.3199
57.3277
57.3201
57.327
57.3387
57.3318
57.3325
57.3317
57.3329
57.3298
57.3188
55.0249
56.0499
56.7863
57.1815
57.3108
57.3154
57.3249
57.3389
57.3359
57.3355
57.3267
57.3428
57.3741
57.3742
57.3716
57.3763
57.3828
57.3776
57.3775
57.3734
57.3738
57.3735
57.3631
57.3667
57.3724
57.3724
57.3723
57.3563
57.3595
57.3612
57.3466
57.3516
57.3613
57.3511
57.3449
57.343
57.3353
57.3354
57.3518
57.3558
57.3517
57.3376
57.3368
57.3474
57.3479
57.3453
57.3334
57.3381
57.3408
57.3376
57.3277
57.3291
57.3354
57.3325
57.3238
57.3255
57.3339
57.3347
57.3348
57.3296
57.3281
57.3116
57.3114
57.3294
57.3335
57.3291
57.3291
57.3276
57.3121
57.3142
57.3262
57.3236
57.3171
57.3209
57.334
57.3333
57.3329
57.3218
57.319
57.3153
57.3253
57.3369
57.3211
57.3227
57.3327
57.3255
57.3327
57.3371
57.3332
57.3199
55.0273
56.0489
56.7823
57.1725
57.342
57.389
57.387
57.3929
57.3985
57.3971
57.3948
57.3951
57.3954
57.3922
57.3915
57.3839
57.3802
57.386
57.3874
57.3837
57.3844
57.3834
57.3765
57.3697
57.3711
57.3755
57.3739
57.3741
57.3695
57.3575
57.3489
57.3482
57.3427
57.3411
57.3498
57.352
57.3428
57.3472
57.3622
57.3629
57.3616
57.3454
57.3482
57.3571
57.3556
57.3553
57.3497
57.3487
57.3412
57.3479
57.357
57.3481
57.3536
57.3558
57.3529
57.3518
57.3512
57.352
57.3476
57.335
57.3279
57.3301
57.3276
57.3286
57.3286
57.3193
57.3221
57.3326
57.3325
57.3281
57.3267
57.3274
57.3261
57.3189
57.32
57.3386
57.3402
57.3374
57.3242
57.3204
57.3266
57.3227
57.3314
57.3379
57.3362
57.3358
57.3249
57.3283
57.3304
57.3178
55.026
56.0488
56.7864
57.1793
57.3176
57.3375
57.3401
57.3384
57.3386
57.332
57.3418
57.3719
57.3691
57.3696
57.3696
57.3711
57.3678
57.3749
57.3841
57.3827
57.3821
57.3823
57.3828
57.3778
57.3781
57.3785
57.378
57.3751
57.369
57.3518
57.3458
57.3519
57.3473
57.3444
57.3503
57.3521
57.3426
57.3448
57.3559
57.3499
57.3557
57.3588
57.348
57.3541
57.3574
57.357
57.3567
57.3465
57.3453
57.3392
57.3216
57.3165
57.3205
57.321
57.3148
57.3165
57.332
57.3334
57.3305
57.3162
57.3168
57.3314
57.3321
57.3294
57.3162
57.3158
57.3272
57.3212
57.3294
57.3385
57.3387
57.3387
57.3228
57.3268
57.3365
57.327
57.3362
57.3437
57.3431
57.3429
57.3256
57.3251
57.3342
57.3286
57.3336
57.3354
57.3291
57.3289
57.3281
57.3147
55.0248
56.0474
56.7943
57.1711
57.315
57.3373
57.3355
57.327
57.3277
57.3505
57.3545
57.3505
57.3362
57.3366
57.3561
57.3596
57.3577
57.3579
57.3536
57.3376
57.3416
57.3547
57.3535
57.3479
57.3495
57.3586
57.3458
57.3506
57.3636
57.357
57.3493
57.3504
57.3544
57.3479
57.3522
57.3532
57.3495
57.3383
57.3394
57.3428
57.3343
57.3307
57.3263
57.3126
57.3131
57.3232
57.3222
57.3222
57.3194
57.3118
57.3166
57.3212
57.3188
57.3157
57.3083
57.3131
57.3147
57.3087
57.3154
57.3287
57.3291
57.3289
57.3131
57.3173
57.3242
57.3117
57.3179
57.3301
57.3212
57.3206
57.3196
57.3096
57.3079
57.3194
57.3213
57.3144
57.3203
57.3315
57.3318
57.3317
57.3164
57.3204
57.3348
57.3361
57.3362
57.3299
57.3224
57.3265
57.3303
57.318
55.0268
56.0467
56.7872
57.1795
57.3242
57.3432
57.3411
57.3317
57.3339
57.3461
57.3457
57.3432
57.345
57.355
57.3516
57.3486
57.3597
57.3695
57.3678
57.3708
57.3679
57.3614
57.3601
57.3588
57.3596
57.3601
57.3527
57.3538
57.3539
57.3487
57.3455
57.3561
57.3617
57.3603
57.36
57.3553
57.3518
57.3481
57.3417
57.3343
57.3298
57.3168
57.3154
57.3246
57.3251
57.3223
57.3307
57.3401
57.3377
57.3336
57.3276
57.3247
57.3226
57.3174
57.3191
57.3276
57.3255
57.315
57.3184
57.3264
57.3264
57.3264
57.3124
57.3187
57.3259
57.3238
57.3234
57.3119
57.3177
57.327
57.3257
57.3219
57.3264
57.3391
57.3242
57.3256
57.3361
57.3255
57.3317
57.3415
57.3266
57.3321
57.3418
57.3317
57.3249
57.3257
57.3309
57.3296
57.3286
57.3161
55.0256
56.0495
56.7842
57.1813
57.3226
57.3432
57.3527
57.3507
57.3482
57.3422
57.3451
57.3689
57.3645
57.3739
57.3842
57.3756
57.3762
57.3757
57.3669
57.3723
57.3796
57.364
57.369
57.3801
57.3772
57.3774
57.3792
57.3785
57.3652
57.3602
57.3565
57.3502
57.3449
57.3417
57.3394
57.3357
57.333
57.3228
57.3219
57.3296
57.3209
57.32
57.3276
57.327
57.3297
57.3268
57.3216
57.3186
57.3297
57.3396
57.3351
57.3367
57.3379
57.3395
57.3347
57.3164
57.3185
57.3254
57.3209
57.3142
57.3201
57.3329
57.3223
57.329
57.3341
57.3327
57.3323
57.3195
57.3274
57.3367
57.3356
57.335
57.3208
57.3248
57.3298
57.3275
57.3255
57.3146
57.3234
57.3361
57.3332
57.3216
57.3222
57.3332
57.3346
57.3337
57.3176
57.3212
57.3328
57.3164
55.0273
56.0488
56.7825
57.1711
57.3448
57.3841
57.3807
57.3813
57.3763
57.3831
57.3869
57.3743
57.38
57.3868
57.3762
57.3827
57.3872
57.3808
57.3807
57.3766
57.3834
57.387
57.3721
57.3766
57.3812
57.3805
57.3805
57.377
57.3748
57.3593
57.3528
57.3573
57.3585
57.3567
57.3533
57.3599
57.3631
57.3589
57.3481
57.3436
57.3505
57.3523
57.3493
57.336
57.3392
57.3507
57.3487
57.346
57.339
57.338
57.336
57.3364
57.3361
57.3261
57.3294
57.335
57.3319
57.3261
57.3191
57.3312
57.3389
57.3355
57.3227
57.3203
57.3289
57.3189
57.3213
57.3308
57.3305
57.3265
57.3264
57.3271
57.3259
57.3185
57.3198
57.3385
57.3397
57.3367
57.3218
57.323
57.334
57.3342
57.3337
57.3189
57.3177
57.3289
57.3273
57.3273
57.327
57.3173
55.0255
56.0471
56.7906
57.1811
57.3053
57.3115
57.317
57.3363
57.3314
57.3321
57.3322
57.33
57.3259
57.3273
57.3272
57.3395
57.3515
57.3449
57.3488
57.3503
57.3427
57.3491
57.368
57.3585
57.366
57.3748
57.3651
57.3639
57.3639
57.3639
57.3564
57.3578
57.3586
57.3469
57.3483
57.3587
57.3587
57.3573
57.3554
57.3535
57.3518
57.351
57.3521
57.354
57.3524
57.3534
57.3502
57.3486
57.3459
57.3418
57.3284
57.3214
57.3297
57.334
57.3312
57.3265
57.318
57.3254
57.3344
57.3319
57.3278
57.3169
57.3221
57.3313
57.3282
57.3161
57.318
57.331
57.331
57.3308
57.3257
57.3209
57.3177
57.3128
57.3207
57.3391
57.3275
57.3341
57.3444
57.3356
57.3405
57.3429
57.3404
57.339
57.3272
57.3318
57.3459
57.345
57.3435
57.3259
55.0274
56.0488
56.7823
57.1723
57.3417
57.3887
57.3893
57.3896
57.3851
57.3922
57.396
57.3874
57.39
57.3913
57.3901
57.3912
57.388
57.3753
57.3791
57.3851
57.382
57.382
57.3815
57.3843
57.3807
57.3781
57.3761
57.3771
57.3753
57.3764
57.3718
57.3593
57.3518
57.3485
57.3445
57.3434
57.3386
57.3267
57.3228
57.3272
57.3212
57.3198
57.3321
57.3405
57.3368
57.3275
57.3218
57.3236
57.3208
57.329
57.3335
57.3224
57.3286
57.3386
57.3363
57.3336
57.3174
57.3155
57.3281
57.325
57.3331
57.3466
57.3425
57.3416
57.3391
57.3398
57.3401
57.3392
57.3359
57.3255
57.3271
57.3286
57.3259
57.3184
57.3197
57.3385
57.3396
57.3366
57.3217
57.3242
57.336
57.3383
57.3355
57.3301
57.3289
57.3156
57.3208
57.3316
57.3289
57.3185
55.03
56.0457
56.7806
57.1832
57.3214
57.332
57.3417
57.3544
57.3408
57.3457
57.3551
57.3538
57.3543
57.3457
57.3512
57.3598
57.3566
57.3444
57.3466
57.3544
57.3541
57.3516
57.3553
57.3668
57.3519
57.3532
57.3636
57.3632
57.356
57.3585
57.3654
57.3505
57.3554
57.3631
57.356
57.3554
57.3474
57.3456
57.345
57.3413
57.3356
57.3332
57.3312
57.3291
57.3248
57.3155
57.3069
57.3206
57.3333
57.3248
57.3287
57.3298
57.3273
57.3206
57.3308
57.3545
57.3461
57.3527
57.3682
57.3674
57.3636
57.3495
57.3526
57.3568
57.3561
57.3561
57.3537
57.3531
57.3459
57.3413
57.3258
57.3219
57.3358
57.3402
57.3363
57.3228
57.3259
57.3326
57.324
57.3184
57.3288
57.3389
57.3359
57.3279
57.3233
57.3269
57.3281
57.3283
57.3251
57.3157
55.0283
56.0492
56.7805
57.1704
57.3379
57.3968
57.4021
57.4045
57.4018
57.3976
57.399
57.4003
57.4016
57.3977
57.3839
57.3856
57.3884
57.3725
57.3777
57.3852
57.368
57.3704
57.3796
57.3752
57.3758
57.3766
57.3757
57.3718
57.3628
57.3639
57.3657
57.3618
57.3551
57.3444
57.3449
57.345
57.3423
57.3409
57.3358
57.3321
57.3263
57.314
57.3199
57.3281
57.327
57.3263
57.312
57.3171
57.3263
57.3155
57.3228
57.3286
57.3118
57.3101
57.3261
57.3266
57.3375
57.3502
57.3363
57.3422
57.351
57.3363
57.3415
57.3472
57.3392
57.3409
57.3378
57.3254
57.3271
57.3333
57.3211
57.3261
57.3299
57.329
57.3288
57.314
57.3158
57.3352
57.3362
57.334
57.3323
57.326
57.3241
57.3179
57.3258
57.3365
57.3219
57.3275
57.3377
57.3197
55.0274
56.0489
56.7822
57.1728
57.3387
57.4022
57.4044
57.402
57.4023
57.4012
57.4005
57.3963
57.3954
57.3898
57.391
57.3917
57.3816
57.3862
57.39
57.3752
57.3807
57.3888
57.3831
57.3841
57.3835
57.3816
57.3795
57.3783
57.3624
57.3579
57.3596
57.3527
57.35
57.3477
57.3443
57.342
57.337
57.3251
57.3199
57.3233
57.3226
57.3191
57.3214
57.3278
57.3267
57.3285
57.3228
57.326
57.3299
57.3287
57.3285
57.3137
57.315
57.3327
57.3291
57.3383
57.3501
57.3441
57.3478
57.3496
57.3471
57.3433
57.341
57.3381
57.3282
57.3326
57.3397
57.3263
57.3243
57.3362
57.3424
57.3406
57.3404
57.3338
57.3274
57.3315
57.3393
57.3379
57.3382
57.334
57.3185
57.3217
57.3356
57.3359
57.3353
57.3185
57.3172
57.327
57.3276
57.3201
55.0283
56.0492
56.7805
57.17
57.3401
57.3883
57.3864
57.394
57.3978
57.3907
57.3919
57.3919
57.3918
57.3811
57.3846
57.3876
57.3717
57.3768
57.3846
57.3675
57.3696
57.3793
57.3744
57.3754
57.3725
57.3664
57.3624
57.3622
57.3624
57.3625
57.3588
57.3506
57.3428
57.3511
57.3588
57.3528
57.355
57.3591
57.3564
57.3505
57.3373
57.3281
57.324
57.3163
57.3092
57.3064
57.3076
57.3052
57.3121
57.3267
57.3249
57.3222
57.3113
57.3087
57.3258
57.3302
57.3388
57.3521
57.3456
57.3501
57.3516
57.3508
57.349
57.3468
57.3462
57.3353
57.3387
57.3441
57.3307
57.3296
57.3378
57.3386
57.3353
57.3362
57.3366
57.3361
57.3241
57.3284
57.3345
57.3317
57.3268
57.3199
57.3205
57.313
57.3198
57.3305
57.3169
57.3141
57.3193
57.3109
55.028
56.0507
56.7756
57.1806
57.3337
57.3631
57.3652
57.362
57.3525
57.3578
57.3645
57.3631
57.3629
57.3531
57.3584
57.3646
57.3603
57.3608
57.361
57.3593
57.3549
57.3663
57.3837
57.3802
57.3803
57.381
57.3794
57.3646
57.3578
57.3584
57.3549
57.3548
57.3518
57.3443
57.3411
57.34
57.335
57.3331
57.3294
57.3194
57.316
57.3182
57.3167
57.3175
57.3188
57.3197
57.3183
57.3151
57.3068
57.3053
57.3264
57.3722
57.3759
57.3741
57.3699
57.3738
57.3755
57.3746
57.3743
57.3589
57.3619
57.3663
57.3583
57.358
57.3569
57.3557
57.3532
57.3499
57.3542
57.3564
57.3524
57.3421
57.3388
57.3398
57.3371
57.3394
57.3398
57.3367
57.3376
57.3338
57.3188
57.3226
57.3298
57.3164
57.3145
57.3206
57.3179
57.3182
57.3182
57.3104
55.0273
56.047
56.7861
57.18
57.3167
57.3316
57.3206
57.3205
57.3308
57.3318
57.3334
57.3338
57.3236
57.3275
57.3492
57.3509
57.3484
57.3389
57.3447
57.3698
57.3858
57.3843
57.3775
57.3769
57.3739
57.3633
57.3641
57.3724
57.3688
57.3691
57.3641
57.3479
57.346
57.3535
57.3405
57.3412
57.3507
57.3514
57.3497
57.3311
57.3308
57.3366
57.3349
57.3342
57.3201
57.3246
57.3289
57.3262
57.3224
57.3157
57.3132
57.3092
57.3055
57.3117
57.3206
57.3164
57.3176
57.3171
57.3088
57.3044
57.308
57.3063
57.3048
57.3064
57.3058
57.3149
57.3191
57.3062
57.3099
57.3288
57.333
57.3332
57.3325
57.3342
57.331
57.3199
57.3218
57.3391
57.342
57.3398
57.3373
57.3334
57.3167
57.3201
57.3295
57.321
57.3155
57.3219
57.3263
57.3161
55.0274
56.0488
56.7826
57.1708
57.3464
57.3835
57.3806
57.3818
57.378
57.3764
57.3733
57.3804
57.3853
57.3823
57.3726
57.3744
57.3798
57.376
57.3769
57.3735
57.3804
57.3879
57.3867
57.387
57.3845
57.3818
57.378
57.37
57.3599
57.3622
57.3633
57.3517
57.3568
57.3589
57.3575
57.3564
57.334
57.3314
57.3331
57.3271
57.3274
57.3248
57.3219
57.3191
57.3177
57.3053
57.3103
57.3227
57.3206
57.3203
57.3107
57.3153
57.3551
57.3761
57.3732
57.3746
57.3714
57.3744
57.3777
57.3771
57.3764
57.3741
57.3657
57.3676
57.3685
57.3519
57.355
57.36
57.3461
57.3524
57.3606
57.3512
57.3563
57.3629
57.3595
57.3594
57.3604
57.3611
57.3566
57.3509
57.3442
57.3261
57.3216
57.333
57.3364
57.3329
57.3183
57.3211
57.33
57.3135
55.0274
56.0489
56.7822
57.1725
57.341
57.3936
57.3941
57.3887
57.3947
57.3978
57.3926
57.3947
57.3911
57.3887
57.3816
57.3868
57.3908
57.3754
57.3809
57.3895
57.3886
57.3856
57.3881
57.3926
57.3925
57.3925
57.3895
57.3878
57.371
57.3642
57.3624
57.3544
57.3497
57.3494
57.3493
57.3436
57.3448
57.3463
57.3358
57.3422
57.3483
57.3477
57.3473
57.3295
57.333
57.3384
57.3325
57.336
57.337
57.3341
57.3201
57.3202
57.3542
57.3781
57.3724
57.3791
57.3827
57.378
57.3771
57.375
57.3752
57.3714
57.3738
57.3744
57.3594
57.3625
57.367
57.3544
57.3608
57.3669
57.3646
57.3644
57.3646
57.365
57.3624
57.3613
57.3539
57.3537
57.3498
57.3504
57.3493
57.3422
57.3359
57.3323
57.3254
57.3211
57.3314
57.338
57.3342
57.3208
55.0269
56.0459
56.7897
57.1794
57.3115
57.346
57.3448
57.3384
57.3315
57.3339
57.3386
57.3361
57.3286
57.3393
57.3732
57.3667
57.3689
57.3912
57.3968
57.3936
57.3825
57.3843
57.3912
57.3738
57.3725
57.3789
57.3779
57.3794
57.3772
57.3735
57.3658
57.362
57.3591
57.3545
57.3441
57.3412
57.3375
57.3244
57.3264
57.3397
57.3425
57.3396
57.3373
57.3371
57.3332
57.3333
57.3303
57.3235
57.3282
57.3324
57.3151
57.3187
57.3246
57.3225
57.3198
57.3157
57.3254
57.326
57.3273
57.3272
57.3281
57.3223
57.3289
57.341
57.3415
57.3415
57.3268
57.3311
57.3433
57.3388
57.3404
57.3402
57.3365
57.3296
57.3336
57.336
57.326
57.3318
57.3427
57.3258
57.3265
57.3342
57.32
57.3232
57.3342
57.3358
57.3329
57.3292
57.3281
57.3114
55.0271
56.0499
56.7791
57.1795
57.3371
57.3617
57.3726
57.3753
57.3623
57.368
57.3773
57.3768
57.3768
57.3704
57.37
57.369
57.3572
57.3595
57.369
57.3681
57.3682
57.3587
57.3676
57.3763
57.3633
57.3697
57.38
57.3732
57.3629
57.3633
57.3637
57.3488
57.3531
57.3552
57.3536
57.353
57.3444
57.3428
57.3363
57.3201
57.3124
57.3139
57.3101
57.3057
57.3078
57.3124
57.3109
57.31
57.2986
57.2971
57.3178
57.3219
57.3196
57.3181
57.3068
57.3115
57.3173
57.3073
57.3151
57.3264
57.3243
57.3241
57.3226
57.3223
57.3143
57.3078
57.3074
57.3022
57.3027
57.3205
57.3276
57.3256
57.3197
57.3224
57.3245
57.3143
57.3213
57.3259
57.3204
57.3132
57.3192
57.3334
57.3333
57.333
57.3247
57.3219
57.3118
57.3074
57.3113
57.3053
55.0274
56.0489
56.7824
57.1717
57.3441
57.3861
57.3828
57.3836
57.3817
57.3879
57.3907
57.3832
57.3886
57.3919
57.3902
57.3905
57.3883
57.3851
57.3743
57.3773
57.3865
57.3801
57.3866
57.3893
57.3858
57.3855
57.3812
57.3684
57.3595
57.3587
57.3558
57.3562
57.3543
57.3496
57.3349
57.3331
57.3408
57.3415
57.3384
57.3255
57.3223
57.3209
57.3218
57.3214
57.313
57.3117
57.3028
57.3089
57.3241
57.3222
57.3225
57.318
57.3182
57.3193
57.3209
57.3168
57.3027
57.306
57.32
57.3192
57.3125
57.3153
57.3301
57.3333
57.3306
57.3252
57.3237
57.3106
57.3075
57.3155
57.3179
57.3117
57.3186
57.3306
57.3305
57.3304
57.3229
57.3214
57.3145
57.3095
57.3109
57.3068
57.3149
57.3286
57.3277
57.3276
57.3163
57.3234
57.3303
57.3167
55.0273
56.0489
56.7822
57.1729
57.3387
57.4023
57.4045
57.3975
57.3973
57.3935
57.3966
57.3975
57.3938
57.394
57.394
57.3852
57.3894
57.3936
57.3783
57.3838
57.3931
57.3778
57.381
57.3933
57.3932
57.393
57.3922
57.3926
57.3914
57.3918
57.3878
57.379
57.3715
57.3648
57.3444
57.3426
57.3514
57.3513
57.3485
57.3462
57.3339
57.3328
57.337
57.3353
57.3303
57.3243
57.3261
57.327
57.3236
57.3156
57.3117
57.3282
57.3787
57.3836
57.3756
57.3806
57.3827
57.377
57.3767
57.3778
57.3793
57.3763
57.3742
57.3708
57.3573
57.3601
57.3644
57.3504
57.3565
57.363
57.3562
57.3579
57.3539
57.3519
57.3515
57.3405
57.3432
57.3469
57.3419
57.3407
57.3425
57.343
57.3303
57.3342
57.338
57.336
57.3352
57.3262
57.3231
57.3103
55.0274
56.0489
56.7822
57.1725
57.341
57.3937
57.3943
57.3888
57.3949
57.398
57.3928
57.3946
57.3911
57.3889
57.3818
57.3869
57.3909
57.3755
57.381
57.3897
57.3854
57.3881
57.3907
57.3889
57.3879
57.3878
57.3861
57.3819
57.3705
57.3634
57.3593
57.3502
57.3478
57.3502
57.3505
57.3444
57.3447
57.3461
57.336
57.3426
57.3485
57.3479
57.3475
57.3296
57.333
57.3384
57.3371
57.338
57.3363
57.3346
57.3203
57.3213
57.3556
57.3677
57.3661
57.3647
57.3676
57.3695
57.3653
57.3646
57.3534
57.359
57.3642
57.3513
57.3569
57.3611
57.3544
57.3555
57.3545
57.3425
57.3456
57.3512
57.3508
57.3508
57.3466
57.3449
57.3312
57.325
57.3278
57.3227
57.3308
57.3381
57.3247
57.3309
57.3364
57.3344
57.3336
57.3279
57.3244
57.3115
55.0274
56.0488
56.7827
57.1707
57.3463
57.3835
57.3781
57.3812
57.3859
57.3847
57.3857
57.3828
57.3731
57.3784
57.3862
57.3836
57.3744
57.3768
57.382
57.3772
57.3781
57.3798
57.3793
57.3649
57.3689
57.3745
57.3608
57.3673
57.378
57.3772
57.3771
57.3705
57.3691
57.369
57.3679
57.3589
57.3549
57.3481
57.326
57.325
57.3293
57.3298
57.3297
57.3229
57.3209
57.3062
57.3094
57.3267
57.3275
57.324
57.3124
57.3151
57.3565
57.3714
57.3693
57.3667
57.3674
57.3706
57.3705
57.3702
57.3569
57.3542
57.3613
57.3628
57.36
57.3466
57.3472
57.3524
57.3383
57.3423
57.3535
57.3536
57.3533
57.3406
57.3354
57.3433
57.3496
57.346
57.347
57.3476
57.3461
57.3353
57.3267
57.3265
57.3242
57.3216
57.3309
57.337
57.3331
57.3193
55.0273
56.0468
56.7868
57.1781
57.3186
57.339
57.3368
57.3264
57.3245
57.3448
57.3524
57.3491
57.3369
57.3379
57.3494
57.345
57.3499
57.3524
57.3456
57.3506
57.3545
57.3608
57.3789
57.366
57.3711
57.3825
57.3707
57.3665
57.3733
57.3753
57.3716
57.3643
57.3586
57.3574
57.3539
57.3442
57.3427
57.3491
57.3496
57.3443
57.3475
57.349
57.3421
57.3416
57.3412
57.3418
57.3432
57.3444
57.3366
57.3369
57.3385
57.3373
57.3356
57.323
57.3089
57.3116
57.3143
57.3046
57.3083
57.3267
57.3271
57.3243
57.3123
57.3141
57.3304
57.3305
57.3331
57.3335
57.3316
57.3268
57.3351
57.3481
57.3425
57.3468
57.3479
57.3431
57.3437
57.3441
57.3422
57.34
57.3373
57.3344
57.3233
57.3295
57.3426
57.3412
57.3393
57.3358
57.331
57.3142
55.0302
56.045
56.7818
57.1827
57.3196
57.3306
57.3407
57.3537
57.3473
57.3482
57.3427
57.3399
57.3354
57.3448
57.3567
57.3565
57.3563
57.3454
57.3456
57.3425
57.3515
57.3772
57.3762
57.3719
57.3573
57.3579
57.369
57.3663
57.3645
57.361
57.3578
57.3481
57.3535
57.3599
57.3561
57.3472
57.3433
57.346
57.3471
57.3444
57.3397
57.3403
57.3378
57.3349
57.3311
57.3288
57.3262
57.3225
57.3139
57.3121
57.3053
57.3117
57.328
57.3277
57.3289
57.323
57.328
57.3269
57.3375
57.3481
57.3462
57.3395
57.3416
57.3462
57.3376
57.3381
57.3346
57.3372
57.338
57.3319
57.3372
57.3403
57.3372
57.3318
57.3256
57.3329
57.3398
57.3383
57.3386
57.3338
57.3156
57.3174
57.3294
57.3319
57.3291
57.3121
57.3151
57.3262
57.3247
57.3161
55.03
56.0457
56.7807
57.1831
57.3214
57.3318
57.3411
57.3539
57.343
57.3456
57.3464
57.3438
57.3366
57.3434
57.3593
57.3611
57.3583
57.3422
57.3483
57.3684
57.3712
57.3687
57.3625
57.3619
57.3575
57.3523
57.3504
57.3522
57.351
57.3487
57.3422
57.3485
57.359
57.3587
57.3582
57.3498
57.3392
57.3361
57.34
57.3399
57.3397
57.336
57.3276
57.3132
57.3172
57.3237
57.3224
57.322
57.3088
57.3185
57.3465
57.3369
57.3421
57.3591
57.3597
57.3559
57.3402
57.3403
57.3545
57.3586
57.3564
57.3539
57.3518
57.3371
57.3405
57.3475
57.3349
57.341
57.3467
57.3436
57.3377
57.3301
57.3282
57.3233
57.3309
57.3365
57.3355
57.3353
57.3293
57.3284
57.3254
57.326
57.3231
57.3192
57.3096
57.3063
57.3237
57.3311
57.3275
57.3142
55.0274
56.0489
56.7822
57.1726
57.3403
57.3958
57.3975
57.3964
57.3957
57.394
57.3957
57.3983
57.3957
57.3908
57.3881
57.3864
57.3801
57.3859
57.3899
57.3752
57.3807
57.3888
57.3814
57.3834
57.3805
57.3778
57.376
57.3725
57.3651
57.3562
57.3595
57.3612
57.3496
57.354
57.357
57.3404
57.344
57.3543
57.3427
57.3389
57.34
57.3329
57.3392
57.3501
57.3383
57.3449
57.3501
57.3402
57.3452
57.3474
57.344
57.3383
57.3248
57.3239
57.3234
57.3349
57.3485
57.3399
57.3394
57.339
57.3403
57.3398
57.3403
57.3375
57.3276
57.3321
57.3391
57.3258
57.324
57.3364
57.3423
57.3406
57.3403
57.3338
57.3274
57.3339
57.3382
57.3343
57.324
57.3204
57.3273
57.3227
57.3311
57.3373
57.3356
57.3353
57.3249
57.3287
57.3308
57.3181
55.0283
56.0492
56.7804
57.1705
57.3371
57.4013
57.404
57.3997
57.4013
57.3969
57.3942
57.3959
57.3974
57.3918
57.3915
57.3984
57.399
57.397
57.3971
57.3948
57.3916
57.386
57.3797
57.3824
57.3899
57.3881
57.3851
57.3861
57.3833
57.3803
57.3763
57.3742
57.3686
57.3506
57.3474
57.3594
57.3614
57.358
57.3441
57.3391
57.3459
57.3478
57.3448
57.3358
57.3395
57.3412
57.328
57.3301
57.3433
57.3445
57.3458
57.3441
57.3402
57.3284
57.3324
57.3493
57.3491
57.3454
57.3321
57.3347
57.3485
57.3388
57.3449
57.3564
57.3488
57.3528
57.3574
57.3588
57.3563
57.3524
57.339
57.3411
57.3496
57.3473
57.3446
57.3374
57.33
57.3337
57.3388
57.3359
57.3311
57.3223
57.3208
57.3132
57.3167
57.3278
57.3222
57.3186
57.3173
57.3097
55.028
56.0506
56.7762
57.1782
57.3382
57.3658
57.3636
57.3543
57.3507
57.3542
57.3441
57.3501
57.3587
57.3425
57.347
57.3567
57.3555
57.3558
57.3505
57.3602
57.369
57.3684
57.3692
57.365
57.3538
57.3465
57.3479
57.3424
57.3479
57.363
57.3616
57.3586
57.3451
57.3503
57.3571
57.3557
57.3553
57.3491
57.3462
57.3348
57.3222
57.3184
57.3091
57.3144
57.3263
57.3227
57.3223
57.314
57.3206
57.3339
57.3319
57.3292
57.3162
57.3176
57.3349
57.3299
57.3364
57.3552
57.3557
57.3534
57.3515
57.3481
57.3342
57.3377
57.3501
57.3458
57.348
57.3454
57.3411
57.3386
57.3368
57.3307
57.336
57.3392
57.3283
57.3346
57.3395
57.3223
57.3241
57.3342
57.3337
57.335
57.3333
57.3312
57.324
57.3189
57.3304
57.3384
57.3346
57.3203
55.0273
56.0489
56.7822
57.1725
57.3409
57.3904
57.39
57.3971
57.3995
57.3962
57.3961
57.3952
57.395
57.3871
57.3883
57.3916
57.3858
57.3909
57.3927
57.3811
57.3858
57.3895
57.3855
57.3853
57.3834
57.3806
57.3604
57.3586
57.3691
57.3706
57.371
57.3705
57.3667
57.3558
57.3475
57.3421
57.3303
57.3255
57.329
57.3207
57.3197
57.3269
57.3192
57.3218
57.3321
57.321
57.3241
57.3349
57.3242
57.331
57.3387
57.3372
57.3369
57.3223
57.3237
57.3367
57.3398
57.3379
57.3288
57.3347
57.3384
57.3268
57.3311
57.3389
57.3237
57.3279
57.3383
57.3232
57.3252
57.3377
57.3365
57.3389
57.3393
57.3387
57.3287
57.3311
57.3357
57.3322
57.32
57.3214
57.3342
57.3351
57.3359
57.3324
57.3288
57.3154
57.3207
57.3315
57.3287
57.3184
55.0256
56.0483
56.7888
57.1795
57.3121
57.3259
57.3245
57.3223
57.3288
57.3394
57.3398
57.3398
57.3255
57.3279
57.3579
57.3671
57.3653
57.359
57.3681
57.3798
57.3659
57.3696
57.386
57.3896
57.387
57.3825
57.3819
57.3768
57.3658
57.354
57.3587
57.3608
57.3585
57.3582
57.3546
57.3598
57.3596
57.3453
57.3451
57.3518
57.3536
57.3535
57.3357
57.3389
57.3461
57.3434
57.3459
57.3437
57.3397
57.3273
57.316
57.3134
57.3087
57.3178
57.3275
57.3275
57.3275
57.3157
57.3199
57.3274
57.3245
57.3146
57.3162
57.3297
57.3295
57.3268
57.3139
57.3149
57.3243
57.3306
57.329
57.3297
57.3229
57.3228
57.3267
57.3201
57.3235
57.3243
57.3144
57.3209
57.3358
57.3329
57.3327
57.3253
57.3252
57.3248
57.3207
57.3165
57.3169
57.3094
55.0274
56.0488
56.7823
57.1716
57.3439
57.3855
57.3795
57.3881
57.3937
57.3911
57.3907
57.3823
57.3853
57.3869
57.3848
57.3866
57.3808
57.3803
57.3816
57.3792
57.3698
57.3742
57.3797
57.379
57.379
57.3755
57.3686
57.3636
57.363
57.3532
57.3602
57.3687
57.3675
57.3669
57.3527
57.356
57.3621
57.3538
57.3556
57.3596
57.3577
57.3537
57.3414
57.346
57.3536
57.3391
57.3443
57.3535
57.3521
57.3505
57.3325
57.3346
57.3389
57.3321
57.3321
57.3282
57.315
57.3176
57.3312
57.3279
57.33
57.327
57.3161
57.3196
57.3348
57.3229
57.3282
57.3361
57.321
57.3257
57.3385
57.3381
57.3369
57.3205
57.3217
57.3378
57.3389
57.336
57.3213
57.3241
57.3362
57.3384
57.3356
57.3302
57.3291
57.3157
57.3209
57.3317
57.3289
57.3185
55.0256
56.0495
56.7842
57.1813
57.3226
57.3431
57.3526
57.3506
57.3482
57.3422
57.3453
57.3691
57.3645
57.3738
57.3843
57.384
57.3839
57.3693
57.3748
57.3821
57.3664
57.3713
57.3794
57.377
57.3768
57.3746
57.3717
57.3732
57.3745
57.3715
57.3698
57.3598
57.354
57.3475
57.3452
57.3447
57.3354
57.3395
57.3532
57.3399
57.3447
57.3519
57.3349
57.3384
57.3457
57.346
57.346
57.3427
57.3419
57.3311
57.3339
57.3352
57.3314
57.3315
57.3281
57.3149
57.3182
57.3255
57.3093
57.3077
57.3225
57.3287
57.3257
57.3161
57.3199
57.3225
57.3116
57.3095
57.3254
57.3349
57.3336
57.3329
57.3205
57.3246
57.3297
57.3284
57.3281
57.3157
57.3246
57.342
57.3414
57.3402
57.3245
57.3275
57.3354
57.3215
57.3271
57.3406
57.3383
57.3291
55.0255
56.047
56.7908
57.1798
57.3111
57.3246
57.316
57.3193
57.3543
57.3658
57.3558
57.3632
57.3699
57.3608
57.3649
57.366
57.3602
57.3643
57.3661
57.3564
57.362
57.3658
57.3585
57.3578
57.3575
57.3503
57.3452
57.3526
57.3588
57.3567
57.3566
57.3523
57.3429
57.3404
57.3384
57.3383
57.336
57.3325
57.332
57.3317
57.328
57.3237
57.3228
57.3137
57.3192
57.3302
57.3167
57.3147
57.3235
57.3251
57.3179
57.3235
57.3375
57.3373
57.336
57.319
57.3187
57.331
57.3338
57.3315
57.3287
57.3251
57.3106
57.3156
57.3265
57.3157
57.312
57.3241
57.331
57.3298
57.3295
57.3219
57.3211
57.314
57.3205
57.3386
57.3271
57.3341
57.343
57.342
57.3417
57.3324
57.3306
57.3197
57.3228
57.3344
57.3261
57.3255
57.3251
57.315
55.0272
56.0486
56.7838
57.1789
57.3158
57.3261
57.3357
57.3437
57.329
57.3302
57.3484
57.3614
57.3608
57.363
57.3593
57.3436
57.3463
57.3615
57.362
57.3614
57.3467
57.3478
57.3646
57.3683
57.3663
57.364
57.36
57.3449
57.3419
57.3527
57.3548
57.3518
57.3401
57.3448
57.3506
57.3331
57.3353
57.3439
57.3389
57.3391
57.3343
57.3222
57.3185
57.3247
57.3241
57.3208
57.331
57.3413
57.3388
57.3344
57.3279
57.3259
57.3238
57.3179
57.3199
57.3283
57.3281
57.3278
57.3169
57.3226
57.3357
57.3338
57.3311
57.3181
57.3205
57.3362
57.3485
57.3523
57.3484
57.3479
57.3459
57.3452
57.3324
57.3318
57.336
57.3251
57.3308
57.3432
57.3421
57.3421
57.3319
57.3363
57.3397
57.337
57.3338
57.321
57.3255
57.3316
57.3279
57.3147
55.0279
56.0465
56.7866
57.1764
57.3205
57.3457
57.3479
57.345
57.3419
57.3339
57.3408
57.3709
57.3647
57.3736
57.3835
57.3712
57.3776
57.3828
57.3746
57.3803
57.3832
57.3794
57.3663
57.3658