/*--------------------------------*- C++ -*----------------------------------*\
  =========                 |
  \\      /  F ield         | OpenFOAM: The Open Source CFD Toolbox
   \\    /   O peration     | Website:  https://openfoam.org
    \\  /    A nd           | Version:  11
     \\/     M anipulation  |
\*---------------------------------------------------------------------------*/
FoamFile
{
    format      ascii;
    class       volScalarField;
    location    "0.05";
    object      p;
}
// * * * * * * * * * * * * * * * * * * * * * * * * * * * * * * * * * * * * * //

dimensions      [0 2 -2 0 0 0 0];

internalField   nonuniform List<scalar> 
287084
(
1.73907
1.45643
1.39287
1.32555
1.25711
1.20533
1.15642
1.11116
1.0665
1.02317
0.982175
0.94072
0.897748
0.853452
0.808419
0.763216
0.717681
0.671843
0.625877
0.58003
0.534491
0.489604
0.445573
0.402792
0.361582
0.322182
0.285194
0.251169
0.221719
0.197023
0.175715
0.153874
0.1331
0.117075
0.104418
0.0947965
0.0879543
0.0835834
0.0813802
0.0810762
0.0823955
0.0850344
0.0887346
0.0932791
0.0984079
0.103914
0.109585
0.115256
0.120471
0.125081
0.128666
0.133759
0.141253
0.14628
0.150908
0.156388
0.159646
0.160666
0.160646
0.160823
0.160787
0.160382
0.159349
0.157866
0.155726
0.153503
0.150722
0.146853
0.141947
0.135802
0.12841
0.124943
0.123233
0.116719
0.111433
0.106999
0.101926
0.0975596
0.0908229
0.0819504
0.0731557
0.0627361
0.0525284
0.0452422
0.0394203
0.035308
0.0275465
0.0158142
0.00542381
0.00119282
1.60387
1.41385
1.36296
1.30617
1.246
1.19806
1.15163
1.10775
1.06468
1.02207
0.980234
0.93804
0.894763
0.850674
0.805984
0.760751
0.7151
0.669069
0.622893
0.576813
0.531051
0.485888
0.441753
0.398609
0.35692
0.318518
0.283173
0.249484
0.218452
0.191666
0.167584
0.145842
0.127082
0.111853
0.0996868
0.0904502
0.0839042
0.0798309
0.07791
0.0778885
0.079476
0.0823758
0.0863257
0.091111
0.0964659
0.102187
0.108091
0.113995
0.1197
0.125152
0.130406
0.135787
0.14121
0.145324
0.149438
0.154121
0.157104
0.158697
0.159737
0.160275
0.160272
0.160051
0.15905
0.157504
0.155954
0.153376
0.150037
0.146742
0.142276
0.137019
0.131674
0.127305
0.123302
0.117982
0.112266
0.106567
0.100979
0.0946908
0.0876997
0.0800375
0.0711789
0.0624917
0.0556315
0.0488992
0.04124
0.0339
0.0254372
0.0162215
0.00800914
0.00241387
1.57759
1.40686
1.35592
1.30012
1.24225
1.19449
1.14837
1.10449
1.06154
1.019
0.976766
0.934141
0.890758
0.846558
0.801635
0.75609
0.710025
0.663573
0.61694
0.570359
0.524121
0.47852
0.433909
0.390672
0.349119
0.309736
0.273109
0.239312
0.208407
0.180718
0.156842
0.135678
0.117359
0.102431
0.0906711
0.0818737
0.0758405
0.072272
0.0708927
0.0714047
0.0735176
0.076942
0.0814086
0.0866675
0.0924788
0.098638
0.104959
0.111274
0.117421
0.123357
0.128918
0.134257
0.139554
0.144316
0.148644
0.152505
0.155246
0.157317
0.158645
0.159431
0.159782
0.15944
0.158507
0.157102
0.155074
0.152855
0.150025
0.146281
0.142183
0.137634
0.132771
0.12815
0.123615
0.118206
0.112425
0.106748
0.100705
0.0942516
0.0872087
0.0793916
0.071675
0.0639495
0.0561179
0.0488754
0.0416445
0.0339163
0.0255173
0.016472
0.00758723
0.00202195
1.53094
1.37334
1.32809
1.27802
1.22604
1.18192
1.13861
1.09662
1.05491
1.01316
0.971057
0.928325
0.88477
0.840322
0.795094
0.749072
0.702463
0.65538
0.608052
0.560756
0.513758
0.467414
0.422098
0.378154
0.336036
0.296225
0.259059
0.224725
0.193656
0.165818
0.141375
0.120247
0.102475
0.0881505
0.0770565
0.0690219
0.0637453
0.0609976
0.0604365
0.0617734
0.0646876
0.068895
0.0741091
0.0800809
0.0865639
0.0933553
0.100268
0.107142
0.11385
0.120292
0.126398
0.132147
0.13757
0.142443
0.146734
0.150535
0.153643
0.155957
0.157544
0.158498
0.158831
0.158649
0.157904
0.156567
0.154859
0.152518
0.14942
0.145951
0.142068
0.137678
0.133068
0.128285
0.123362
0.118052
0.112417
0.10648
0.100229
0.0937416
0.0867856
0.0795503
0.0721209
0.0643852
0.0567747
0.0493219
0.0416278
0.0337774
0.0255203
0.0167976
0.00812126
0.00248587
1.50801
1.3583
1.31572
1.26728
1.21733
1.17406
1.1314
1.08975
1.04825
1.00652
0.964282
0.921272
0.877343
0.832444
0.786622
0.739926
0.692537
0.644561
0.596321
0.54801
0.50001
0.452664
0.406337
0.361501
0.318514
0.277921
0.240017
0.205166
0.17361
0.145548
0.121192
0.100425
0.0832208
0.0695633
0.059277
0.0521306
0.047855
0.0461358
0.0466407
0.0490439
0.05302
0.0582635
0.0644738
0.0713843
0.0787522
0.0863713
0.0940585
0.101648
0.109013
0.116065
0.122707
0.128907
0.134632
0.139805
0.144383
0.148314
0.151512
0.154033
0.155884
0.157098
0.157688
0.157641
0.156996
0.155819
0.154038
0.15174
0.149013
0.145736
0.141986
0.137784
0.133256
0.128445
0.123382
0.118015
0.112335
0.10636
0.100084
0.0934968
0.0866444
0.0795079
0.0721486
0.0646571
0.0570995
0.0494812
0.0417062
0.0337912
0.0254795
0.0167891
0.00808354
0.00242816
1.48437
1.33678
1.2961
1.25002
1.20275
1.16149
1.1205
1.08003
1.03928
0.997943
0.955741
0.912517
0.868215
0.822732
0.776226
0.728661
0.680286
0.631251
0.581807
0.532281
0.48299
0.434347
0.386789
0.340737
0.2967
0.255087
0.216384
0.180868
0.148928
0.120696
0.0963653
0.0759275
0.0593408
0.0465241
0.0372376
0.0312502
0.0282144
0.0278117
0.0296572
0.0334108
0.0387075
0.0452288
0.0526641
0.0607315
0.0691848
0.0778171
0.0864334
0.0948808
0.103038
0.110796
0.118083
0.124842
0.131033
0.136599
0.141502
0.145726
0.149261
0.152065
0.15414
0.155544
0.156309
0.156438
0.155963
0.154896
0.15326
0.151099
0.148405
0.145197
0.141559
0.137496
0.133076
0.128314
0.12325
0.11787
0.112173
0.106183
0.0999008
0.0933529
0.0865253
0.0794606
0.0722166
0.064793
0.0572607
0.0496347
0.0418357
0.0338927
0.0256371
0.0170011
0.00824067
0.00254077
1.46655
1.32125
1.28221
1.23731
1.19139
1.15099
1.11066
1.07058
1.03004
0.988658
0.946253
0.90263
0.857728
0.811515
0.764077
0.715454
0.665896
0.615502
0.564671
0.513621
0.462803
0.412627
0.363525
0.316066
0.270663
0.227907
0.188196
0.151959
0.119556
0.0911568
0.0669901
0.0470136
0.0311938
0.0193647
0.011282
0.00665264
0.00509025
0.00624193
0.00967386
0.0150109
0.0218719
0.0299076
0.0387917
0.0482276
0.0579593
0.0677728
0.077482
0.086933
0.0959946
0.104576
0.112595
0.120003
0.126748
0.132803
0.138141
0.142746
0.146595
0.149699
0.152075
0.153751
0.15474
0.155065
0.154764
0.153854
0.152361
0.150311
0.147742
0.14467
0.141135
0.137168
0.132811
0.128091
0.123043
0.117671
0.111988
0.106004
0.0997368
0.093202
0.0864181
0.0794111
0.0722157
0.0648372
0.0573253
0.0496927
0.0418786
0.0339175
0.0256406
0.0169908
0.00826334
0.00258852
1.45034
1.30557
1.2673
1.22351
1.17867
1.1392
1.09957
1.06002
1.01967
0.978289
0.935595
0.891474
0.845893
0.798772
0.750285
0.700417
0.649453
0.597556
0.545037
0.492273
0.439648
0.387655
0.3368
0.287633
0.240721
0.196585
0.155778
0.118714
0.0857893
0.0572505
0.0332661
0.0138464
-0.0011016
-0.0117594
-0.0184326
-0.0214756
-0.0213053
-0.0183496
-0.0130719
-0.00589243
0.00276792
0.0125401
0.0230782
0.0340692
0.045256
0.0564167
0.0673597
0.0779374
0.0880259
0.097528
0.106374
0.114511
0.121906
0.128527
0.134361
0.139397
0.143644
0.147105
0.149796
0.151746
0.152986
0.153533
0.153423
0.152687
0.151343
0.149435
0.146992
0.144034
0.140601
0.136726
0.132447
0.127786
0.122774
0.117433
0.111774
0.105814
0.0995693
0.0930606
0.0863105
0.0793468
0.0721887
0.0648546
0.0573709
0.0497408
0.0419271
0.0339635
0.0256389
0.0169735
0.00832575
0.00268086
1.43608
1.29189
1.25427
1.21112
1.16694
1.12796
1.08871
1.0493
1.00893
0.967289
0.92418
0.879415
0.832962
0.784814
0.735052
0.683759
0.631192
0.57751
0.523131
0.46836
0.413701
0.359672
0.306788
0.255736
0.207043
0.161403
0.119335
0.0813517
0.04791
0.019211
-0.00447817
-0.0232505
-0.0371558
-0.0464686
-0.0515386
-0.0527691
-0.0506548
-0.0456609
-0.0383119
-0.0290696
-0.0183861
-0.00667351
0.00570708
0.0184387
0.0312391
0.0438889
0.0561991
0.068018
0.0792317
0.0897474
0.0995014
0.108453
0.116563
0.123816
0.13021
0.135746
0.140428
0.144276
0.147311
0.14957
0.15108
0.151865
0.151967
0.151411
0.15024
0.14848
0.146167
0.143328
0.140005
0.136224
0.132019
0.127421
0.122459
0.117158
0.111529
0.105599
0.0993866
0.0929103
0.0861945
0.0792555
0.0721293
0.0648216
0.0573512
0.0497373
0.0419471
0.0339891
0.0257666
0.0171618
0.00830605
0.00255773
1.42308
1.2791
1.24185
1.19911
1.15533
1.1167
1.07761
1.03828
0.997736
0.955732
0.912039
0.866486
0.819059
0.769693
0.718542
0.66564
0.611276
0.55566
0.499156
0.442206
0.385268
0.328945
0.273841
0.220637
0.170039
0.122688
0.0792635
0.0403084
0.00626976
-0.0225187
-0.0459074
-0.0638937
-0.076636
-0.0844331
-0.0876836
-0.0868929
-0.0825901
-0.075337
-0.0656866
-0.0541718
-0.0412804
-0.0274404
-0.0130459
0.00156911
0.0161282
0.0303957
0.0441801
0.0573483
0.0697768
0.0813866
0.0921213
0.101937
0.11082
0.118756
0.125755
0.131823
0.136978
0.141249
0.144661
0.147247
0.149043
0.150083
0.150409
0.150058
0.149058
0.147452
0.145278
0.142564
0.139345
0.135659
0.131536
0.127008
0.122105
0.11685
0.111261
0.105369
0.0991912
0.0927492
0.0860662
0.0791621
0.0720615
0.0647841
0.0573372
0.0497301
0.0419369
0.0339982
0.025675
0.0170079
0.00833895
0.00268658
1.41117
1.26733
1.23028
1.1878
1.14423
1.10571
1.06664
1.02717
0.98634
0.943824
0.899423
0.852979
0.804406
0.753715
0.700979
0.646318
0.589985
0.532201
0.473419
0.41403
0.354618
0.295812
0.238251
0.182772
0.130023
0.080883
0.0359711
-0.00403854
-0.0386376
-0.0675393
-0.0904838
-0.107598
-0.119006
-0.125108
-0.126371
-0.123355
-0.116685
-0.106971
-0.0948444
-0.0808722
-0.06559
-0.0494695
-0.0329175
-0.0162826
0.000141724
0.0161281
0.031488
0.0460746
0.0597869
0.0725494
0.0843193
0.095061
0.104761
0.113428
0.121068
0.127704
0.133359
0.138071
0.141875
0.144805
0.146905
0.148212
0.148777
0.148632
0.14782
0.146375
0.144343
0.141753
0.138649
0.135061
0.131021
0.126567
0.121723
0.116519
0.110976
0.105127
0.0989824
0.0925718
0.0859231
0.0790468
0.0719733
0.0647171
0.0572845
0.0496995
0.0419217
0.0339756
0.0257035
0.0170637
0.00833241
0.00266421
1.40017
1.25637
1.21945
1.17706
1.13354
1.09501
1.05582
1.0161
0.974803
0.931678
0.886481
0.838981
0.789181
0.737007
0.682592
0.626017
0.567562
0.50749
0.446218
0.38427
0.32217
0.260689
0.200527
0.142539
0.0875784
0.0364665
-0.00997692
-0.0510762
-0.0862785
-0.115194
-0.137686
-0.153786
-0.163746
-0.167999
-0.167085
-0.161669
-0.152432
-0.140089
-0.125309
-0.108736
-0.0909404
-0.0724103
-0.0535947
-0.0348497
-0.0164674
0.00131327
0.0183064
0.0343846
0.049441
0.0634062
0.0762477
0.0879445
0.0984971
0.107911
0.116216
0.123439
0.12962
0.134792
0.138998
0.142288
0.144704
0.146287
0.147094
0.147163
0.146537
0.145259
0.143372
0.140915
0.137922
0.134432
0.130479
0.126095
0.121318
0.11617
0.110676
0.104866
0.0987602
0.0923914
0.0857725
0.0789273
0.0718745
0.0646369
0.0572352
0.0496536
0.041888
0.0339655
0.0256928
0.0170541
0.00832449
0.00266161
1.38999
1.2462
1.20927
1.16693
1.12337
1.08467
1.04525
1.00515
0.963337
0.919509
0.873365
0.824769
0.773602
0.719872
0.663638
0.605043
0.54433
0.481807
0.41794
0.353219
0.288341
0.224021
0.161103
0.100539
0.04319
-0.00991443
-0.0579783
-0.100182
-0.135934
-0.164871
-0.18676
-0.20177
-0.210127
-0.212386
-0.209164
-0.201203
-0.189285
-0.174182
-0.156642
-0.137353
-0.116933
-0.0959168
-0.0747584
-0.0538306
-0.0334336
-0.0138106
0.00486461
0.0224572
0.0388797
0.0540741
0.0680145
0.0806891
0.0921082
0.102298
0.111285
0.119112
0.125819
0.131459
0.136081
0.139732
0.142465
0.144328
0.145382
0.14567
0.145236
0.144124
0.142388
0.140057
0.137176
0.133788
0.129922
0.125618
0.120901
0.115811
0.110372
0.104604
0.0985389
0.0921964
0.0856089
0.0787958
0.0717734
0.0645588
0.0571661
0.0496128
0.0418631
0.033935
0.0256661
0.0170364
0.00832276
0.00268294
1.38056
1.23673
1.19977
1.15738
1.11366
1.07476
1.035
0.994502
0.952036
0.907401
0.86029
0.810465
0.757898
0.702502
0.644401
0.583682
0.520646
0.455585
0.388993
0.321459
0.253621
0.186408
0.120621
0.0573574
-0.00239646
-0.0575908
-0.107264
-0.15057
-0.186861
-0.215716
-0.236979
-0.250772
-0.257452
-0.25761
-0.251959
-0.24135
-0.226638
-0.208686
-0.188303
-0.16624
-0.14315
-0.119597
-0.0960604
-0.0729217
-0.0504931
-0.0290057
-0.00863678
0.0104899
0.0282923
0.044723
0.0597659
0.0734274
0.0857211
0.0966811
0.10635
0.114778
0.122021
0.128131
0.133159
0.137172
0.140223
0.142372
0.143675
0.144177
0.14393
0.142989
0.1414
0.139198
0.136431
0.13314
0.129359
0.125132
0.120485
0.11545
0.11006
0.104335
0.0983068
0.0920067
0.0854489
0.0786583
0.0716595
0.0644604
0.057084
0.0495367
0.0417978
0.0339013
0.0256216
0.0169923
0.00831733
0.00269269
1.37185
1.22799
1.19095
1.14846
1.10457
1.06535
1.02519
0.984143
0.941049
0.895564
0.847406
0.796346
0.742297
0.68521
0.625157
0.562283
0.496832
0.429184
0.359827
0.289362
0.218591
0.148358
0.0797012
0.0137149
-0.0484967
-0.105748
-0.157036
-0.201405
-0.238172
-0.266906
-0.287431
-0.299952
-0.304844
-0.302824
-0.294689
-0.281375
-0.263836
-0.243008
-0.219761
-0.194907
-0.169143
-0.143052
-0.117141
-0.0918061
-0.0673532
-0.0440185
-0.021967
-0.00132163
0.0178438
0.0354988
0.0516312
0.0662594
0.0794145
0.0911406
0.101484
0.110508
0.118273
0.124849
0.130288
0.134659
0.138029
0.140451
0.141991
0.142705
0.142649
0.14187
0.140423
0.138348
0.13569
0.132499
0.128806
0.124652
0.120066
0.115089
0.10975
0.104069
0.0980832
0.0918097
0.0852834
0.0785247
0.0715486
0.0643774
0.0570198
0.0494975
0.0417694
0.0338716
0.0256078
0.0169965
0.00831672
0.00268912
1.36385
1.21995
1.1828
1.14018
1.09602
1.05651
1.01587
0.974263
0.930504
0.88414
0.834905
0.782571
0.727035
0.668235
0.606244
0.541186
0.473353
0.403093
0.330955
0.257607
0.183817
0.110648
0.0390727
-0.029611
-0.0942436
-0.153527
-0.206365
-0.25175
-0.288927
-0.317462
-0.337202
-0.348378
-0.351467
-0.347245
-0.33661
-0.320592
-0.300234
-0.276547
-0.250475
-0.222874
-0.194475
-0.165901
-0.137667
-0.110175
-0.0837438
-0.0586022
-0.0349124
-0.0127889
0.00770446
0.0265471
0.0437436
0.0593159
0.0733085
0.0857756
0.0967785
0.106379
0.114653
0.121672
0.127503
0.13222
0.135889
0.13858
0.140362
0.141283
0.141404
0.140788
0.139479
0.137525
0.134978
0.131877
0.128265
0.124188
0.119667
0.11474
0.109443
0.103804
0.0978574
0.0916194
0.0851197
0.0783843
0.0714314
0.0642714
0.0569283
0.0494117
0.0417
0.033818
0.0255704
0.0169696
0.00830238
0.00269745
1.35655
1.21262
1.17537
1.13256
1.08819
1.04831
1.00722
0.965001
0.920543
0.873273
0.822988
0.769383
0.712383
0.651877
0.587965
0.520765
0.45055
0.377743
0.30287
0.226653
0.149977
0.073859
-0.000500558
-0.0718294
-0.13879
-0.200018
-0.254331
-0.300627
-0.338152
-0.366415
-0.385324
-0.395135
-0.3964
-0.389989
-0.376893
-0.358234
-0.335135
-0.308683
-0.279878
-0.249623
-0.218694
-0.187727
-0.157261
-0.127708
-0.0993816
-0.0725151
-0.0472613
-0.0237226
-0.00196243
0.0180146
0.0362232
0.0526941
0.0674812
0.0806613
0.0922856
0.10244
0.111202
0.118645
0.124853
0.129903
0.133864
0.13681
0.138812
0.139928
0.140222
0.139755
0.138578
0.136742
0.134298
0.131286
0.127752
0.12374
0.119277
0.114405
0.109154
0.103558
0.0976482
0.0914403
0.0849692
0.078255
0.0713213
0.0641907
0.0568665
0.0493783
0.0416645
0.0337905
0.0255048
0.016906
0.00832222
0.002727
1.35
1.206
1.16863
1.12567
1.08101
1.04082
0.999159
0.956436
0.911331
0.863168
0.811807
0.756988
0.698543
0.63643
0.570657
0.501399
0.428925
0.353642
0.276152
0.197197
0.117705
0.0388316
-0.0382532
-0.112046
-0.181232
-0.244268
-0.299931
-0.347059
-0.384826
-0.412787
-0.430821
-0.439286
-0.438781
-0.430268
-0.414818
-0.393637
-0.367934
-0.338856
-0.307463
-0.274708
-0.24139
-0.208175
-0.175612
-0.144119
-0.114014
-0.0855268
-0.058804
-0.0339457
-0.0109955
0.0100452
0.0292003
0.0465152
0.0620558
0.0758884
0.0880958
0.0987659
0.107978
0.11582
0.122378
0.127734
0.131966
0.13515
0.137361
0.138661
0.139117
0.138796
0.137739
0.136011
0.133664
0.130738
0.127274
0.123322
0.118915
0.114089
0.108885
0.103323
0.0974415
0.0912614
0.0848142
0.0781226
0.0712082
0.0640928
0.056778
0.0492948
0.0415956
0.0337473
0.0254969
0.0169504
0.00830611
0.00266402
1.34421
1.20013
1.16262
1.11951
1.07461
1.03405
0.99206
0.948702
0.902798
0.85388
0.801568
0.745588
0.68582
0.622146
0.554647
0.48344
0.408818
0.331248
0.251286
0.169771
0.0876848
0.00618149
-0.0733579
-0.149492
-0.220671
-0.285369
-0.342236
-0.390046
-0.428011
-0.455593
-0.472793
-0.479944
-0.477759
-0.467257
-0.449607
-0.426089
-0.397978
-0.366484
-0.332718
-0.297666
-0.262158
-0.226882
-0.192395
-0.159128
-0.127393
-0.0974207
-0.0693593
-0.0432862
-0.0192492
0.00276148
0.0227803
0.040864
0.0570809
0.0715271
0.0842686
0.0954076
0.105036
0.113242
0.120122
0.125759
0.130242
0.133642
0.136042
0.13751
0.138111
0.137914
0.136974
0.135343
0.133081
0.130231
0.126836
0.12294
0.118584
0.113803
0.108634
0.103109
0.0972594
0.0911087
0.0846867
0.0780126
0.071117
0.0640231
0.0567254
0.0492673
0.041578
0.0337278
0.0254955
0.0168923
0.00827328
0.00268936
1.33915
1.19505
1.15743
1.11413
1.06898
1.0281
0.985711
0.941813
0.895336
0.845642
0.792424
0.73539
0.674388
0.609334
0.540246
0.467277
0.390735
0.31103
0.22886
0.145001
0.0605391
-0.0232849
-0.105112
-0.183269
-0.256287
-0.322408
-0.380315
-0.42872
-0.466766
-0.493994
-0.510366
-0.516308
-0.512589
-0.500295
-0.480664
-0.455043
-0.424774
-0.391111
-0.355219
-0.318109
-0.280642
-0.243526
-0.207329
-0.172478
-0.139294
-0.108003
-0.0787412
-0.0515964
-0.0265911
-0.00370861
0.0170899
0.0358586
0.0526806
0.0676499
0.0808646
0.0924203
0.102417
0.110948
0.118111
0.124
0.128702
0.132296
0.134866
0.136482
0.137215
0.137134
0.136291
0.134752
0.132565
0.12978
0.126441
0.122595
0.118288
0.113546
0.108414
0.102915
0.097089
0.0909595
0.0845557
0.0779026
0.0710207
0.0639344
0.0566474
0.04919
0.0415176
0.0336807
0.0254601
0.0168845
0.00825756
0.00268797
1.33493
1.19074
1.15299
1.10958
1.0642
1.02303
0.980193
0.93595
0.88897
0.838583
0.784547
0.726584
0.664513
0.598207
0.527738
0.453214
0.374949
0.293432
0.209299
0.123415
0.0368981
-0.049002
-0.132745
-0.212713
-0.287259
-0.354609
-0.41337
-0.462214
-0.500332
-0.52717
-0.542806
-0.547674
-0.542591
-0.528727
-0.507371
-0.479927
-0.447794
-0.412272
-0.374552
-0.335679
-0.296529
-0.257836
-0.220163
-0.183955
-0.149525
-0.117095
-0.086811
-0.0587388
-0.0329039
-0.00928128
0.0121715
0.0315322
0.0488826
0.0643194
0.0779389
0.0898554
0.100167
0.108978
0.116388
0.122492
0.127386
0.131143
0.133861
0.135605
0.136449
0.136464
0.135708
0.134241
0.132126
0.129398
0.126109
0.122307
0.118034
0.113327
0.108219
0.102753
0.0969528
0.0908449
0.0844599
0.0778181
0.0709533
0.063881
0.056608
0.0491751
0.0414982
0.0336689
0.0254533
0.0168728
0.00826012
0.00268763
1.33149
1.18728
1.14943
1.10589
1.06033
1.01889
0.975794
0.931142
0.883687
0.83273
0.778062
0.719316
0.656345
0.58903
0.517396
0.441584
0.361924
0.27884
0.193093
0.105495
0.017262
-0.0703143
-0.155698
-0.237087
-0.312956
-0.381223
-0.440647
-0.489866
-0.527975
-0.554495
-0.569487
-0.573435
-0.567236
-0.55207
-0.529295
-0.500357
-0.466693
-0.429633
-0.39041
-0.350085
-0.30956
-0.269568
-0.230689
-0.193363
-0.15791
-0.124552
-0.0934177
-0.0645891
-0.0380715
-0.013841
0.00815896
0.0280068
0.0457857
0.0615901
0.0755453
0.0877541
0.0983284
0.107368
0.114979
0.121259
0.126302
0.130198
0.133032
0.134881
0.135814
0.135909
0.135225
0.133822
0.131754
0.129076
0.12583
0.122064
0.117826
0.113144
0.108063
0.102612
0.0968276
0.0907368
0.0843628
0.0777389
0.0708813
0.0638144
0.0565536
0.0491153
0.0414525
0.0336234
0.0254103
0.0168391
0.00824829
0.00270072
1.3289
1.18466
1.14673
1.10311
1.05738
1.01577
0.972356
0.927483
0.879705
0.828305
0.77308
0.713747
0.650075
0.581946
0.509417
0.432607
0.351826
0.267586
0.180573
0.091679
0.00213197
-0.0867583
-0.17338
-0.255887
-0.332811
-0.401713
-0.461581
-0.511051
-0.549183
-0.575413
-0.589902
-0.593157
-0.586068
-0.569903
-0.546034
-0.51595
-0.481114
-0.44289
-0.402519
-0.36109
-0.319512
-0.278533
-0.238732
-0.200555
-0.16432
-0.130251
-0.0984781
-0.0690657
-0.0420274
-0.0173297
0.00508308
0.0253022
0.0434078
0.0595045
0.0737114
0.0861472
0.0969154
0.10613
0.113897
0.120311
0.125476
0.129475
0.132402
0.134327
0.135333
0.13549
0.13486
0.133501
0.131478
0.128835
0.125618
0.121882
0.117662
0.113003
0.107939
0.102507
0.0967367
0.090659
0.0843021
0.0776856
0.0708425
0.0637834
0.0565294
0.0491067
0.0414453
0.0336302
0.025415
0.0168288
0.00824282
0.00270183
1.32718
1.18289
1.14491
1.10122
1.0554
1.01365
0.970109
0.924998
0.876946
0.825258
0.769717
0.709962
0.645818
0.577174
0.504022
0.426528
0.345015
0.259946
0.17207
0.0822804
-0.00818555
-0.0979326
-0.185452
-0.268662
-0.346359
-0.415726
-0.475659
-0.525335
-0.563515
-0.589564
-0.603709
-0.606466
-0.598796
-0.581949
-0.557342
-0.526481
-0.490855
-0.45184
-0.410695
-0.36852
-0.326233
-0.284585
-0.244161
-0.205409
-0.168647
-0.134097
-0.10189
-0.0720865
-0.044695
-0.0196878
0.0030051
0.0234687
0.041794
0.0580867
0.0724719
0.0850601
0.0959681
0.1053
0.113172
0.119675
0.124918
0.12899
0.131978
0.133959
0.135007
0.135202
0.134606
0.133285
0.131286
0.128664
0.125472
0.121752
0.117552
0.112908
0.107857
0.102433
0.0966722
0.0906076
0.0842509
0.0776432
0.0708052
0.0637496
0.0564988
0.0490726
0.0414258
0.0336089
0.0254534
0.016913
0.00821193
0.0026208
1.3263
1.18201
1.14401
1.10029
1.05441
1.01261
0.969011
0.923753
0.875534
0.823746
0.768008
0.708051
0.643668
0.574723
0.501271
0.423431
0.341526
0.25607
0.167762
0.0775338
-0.0133819
-0.103594
-0.19151
-0.275182
-0.353179
-0.422936
-0.482762
-0.532442
-0.570739
-0.596664
-0.610642
-0.613168
-0.605189
-0.588002
-0.563023
-0.531775
-0.495752
-0.456342
-0.414812
-0.372264
-0.329615
-0.287631
-0.246894
-0.207851
-0.170825
-0.136036
-0.103609
-0.0736088
-0.0460412
-0.0208669
0.00196886
0.0225556
0.0409881
0.057379
0.0718494
0.0845119
0.0954833
0.104877
0.112802
0.119353
0.124636
0.128739
0.131757
0.133762
0.134839
0.135056
0.134481
0.133172
0.131192
0.128584
0.125398
0.12169
0.117493
0.112856
0.10781
0.102395
0.0966395
0.0905737
0.0842273
0.0776242
0.0707941
0.0637443
0.0564949
0.0490749
0.0414197
0.0336067
0.0254144
0.0168297
0.00822577
0.00267942
1.3263
1.18201
1.14401
1.10029
1.05442
1.01261
0.969011
0.923744
0.875529
0.823733
0.768002
0.708055
0.643661
0.574742
0.50128
0.423444
0.341548
0.256074
0.167771
0.0775388
-0.013379
-0.103586
-0.191509
-0.275165
-0.353163
-0.422912
-0.482737
-0.532423
-0.570713
-0.596647
-0.610619
-0.613141
-0.605166
-0.587979
-0.563002
-0.531749
-0.495728
-0.45632
-0.414795
-0.372248
-0.329602
-0.287619
-0.246882
-0.207844
-0.170818
-0.136028
-0.103602
-0.0736
-0.0460345
-0.0208687
0.00196309
0.0225482
0.0409842
0.0573742
0.0718469
0.0845089
0.095484
0.10488
0.112803
0.119351
0.124637
0.128745
0.131761
0.133768
0.13484
0.135056
0.134474
0.133167
0.131185
0.128577
0.125394
0.121684
0.117493
0.112853
0.107809
0.102391
0.0966338
0.0905702
0.084221
0.0776206
0.0707849
0.0637341
0.0564892
0.049061
0.0414101
0.0335915
0.0253914
0.0168321
0.00823995
0.00268804
1.32717
1.1829
1.14491
1.10124
1.05542
1.01368
0.970173
0.924994
0.876896
0.825245
0.769712
0.70995
0.645821
0.577154
0.504012
0.42653
0.345001
0.25996
0.172083
0.082318
-0.00814704
-0.0978925
-0.185392
-0.268617
-0.346311
-0.415687
-0.475574
-0.525253
-0.563437
-0.589485
-0.603631
-0.606396
-0.598727
-0.581884
-0.557278
-0.526419
-0.490796
-0.451789
-0.410651
-0.368482
-0.326199
-0.28455
-0.244131
-0.205383
-0.168626
-0.134081
-0.101873
-0.0720722
-0.0446847
-0.0196745
0.00302214
0.0234888
0.0418095
0.0580948
0.0724751
0.0850588
0.0959623
0.105294
0.113165
0.11967
0.124913
0.128983
0.131967
0.133946
0.134999
0.135194
0.1346
0.133272
0.131276
0.128656
0.12546
0.121743
0.117538
0.112894
0.107842
0.102419
0.0966611
0.0905896
0.0842397
0.0776331
0.0707985
0.0637471
0.0564959
0.049077
0.0414211
0.0336076
0.025412
0.0168224
0.008219
0.0026793
1.3289
1.18465
1.14674
1.10311
1.05739
1.01578
0.972469
0.92747
0.879593
0.828258
0.773062
0.713742
0.650065
0.581963
0.509433
0.432624
0.351863
0.267609
0.180608
0.0917192
0.00217007
-0.0866956
-0.173328
-0.2558
-0.332725
-0.401603
-0.461464
-0.510944
-0.549054
-0.5753
-0.589775
-0.593034
-0.585948
-0.569789
-0.545928
-0.515848
-0.48102
-0.442804
-0.402443
-0.361021
-0.31945
-0.278478
-0.238682
-0.200512
-0.164282
-0.130218
-0.0984509
-0.0690435
-0.0420099
-0.0173181
0.00509151
0.0253058
0.0434071
0.0594982
0.0737074
0.0861416
0.0969127
0.106128
0.113894
0.120307
0.125471
0.129472
0.132395
0.134321
0.135327
0.13548
0.134845
0.133487
0.131458
0.128813
0.1256
0.121861
0.117643
0.112981
0.107918
0.102482
0.0967114
0.090637
0.0842778
0.0776661
0.0708251
0.0637636
0.0565125
0.0490805
0.041436
0.0336155
0.0254472
0.0168975
0.00821984
0.00264838
1.33148
1.18728
1.14943
1.1059
1.06034
1.01892
0.975853
0.93113
0.883628
0.832705
0.77805
0.719305
0.656349
0.589034
0.517401
0.441607
0.361925
0.278888
0.193129
0.105561
0.0173367
-0.0702341
-0.155587
-0.236994
-0.312813
-0.381108
-0.440498
-0.489709
-0.527811
-0.554331
-0.569323
-0.573275
-0.567081
-0.551919
-0.52915
-0.500221
-0.466561
-0.429519
-0.390305
-0.349987
-0.309474
-0.26949
-0.230622
-0.193304
-0.157861
-0.124511
-0.0933819
-0.0645594
-0.038047
-0.0138214
0.00817146
0.0280183
0.0457923
0.0615916
0.0755429
0.0877497
0.0983216
0.107361
0.114972
0.121249
0.126291
0.130189
0.133022
0.134867
0.135801
0.135891
0.13521
0.133801
0.131732
0.129053
0.125804
0.122039
0.117792
0.113111
0.108033
0.102585
0.0967992
0.0907059
0.0843369
0.0777123
0.0708613
0.0637976
0.0565386
0.0491093
0.041444
0.0336316
0.0254264
0.0168441
0.00822718
0.00267843
1.33491
1.19074
1.153
1.10957
1.06421
1.02303
0.980298
0.935936
0.888869
0.838537
0.784529
0.726578
0.664508
0.598224
0.52776
0.453242
0.375005
0.293472
0.209359
0.12348
0.0369729
-0.0488879
-0.132642
-0.212568
-0.287113
-0.354444
-0.413179
-0.462035
-0.500114
-0.526977
-0.542592
-0.547471
-0.542391
-0.528536
-0.507193
-0.479762
-0.447639
-0.412129
-0.37442
-0.335559
-0.296421
-0.257741
-0.220079
-0.18388
-0.149461
-0.117042
-0.0867649
-0.0587016
-0.0328729
-0.00925751
0.012191
0.0315444
0.0488849
0.0643111
0.0779307
0.0898466
0.100158
0.108971
0.116385
0.122489
0.127375
0.131134
0.133846
0.135591
0.136436
0.136445
0.135686
0.134218
0.132093
0.129365
0.126078
0.122275
0.117998
0.113288
0.108182
0.102708
0.0969038
0.0907968
0.0844128
0.0777788
0.0709146
0.0638404
0.0565736
0.0491328
0.0414727
0.0336433
0.0254549
0.0168979
0.00823663
0.00265163
1.33914
1.19504
1.15741
1.11413
1.06897
1.02811
0.985726
0.941813
0.895291
0.845617
0.792419
0.735386
0.674402
0.609352
0.540268
0.467315
0.39076
0.311092
0.228922
0.145086
0.0606522
-0.0231847
-0.104954
-0.183145
-0.256092
-0.322234
-0.3801
-0.428499
-0.466541
-0.493758
-0.510136
-0.51607
-0.512365
-0.500074
-0.480454
-0.454846
-0.424582
-0.390938
-0.355059
-0.317962
-0.280514
-0.243412
-0.20723
-0.172391
-0.13922
-0.107939
-0.0786895
-0.0515564
-0.0265595
-0.0036888
0.0170952
0.0358641
0.0526851
0.0676497
0.0808591
0.0924144
0.10241
0.110942
0.118108
0.123993
0.12869
0.132282
0.134851
0.136463
0.137195
0.137108
0.136268
0.134723
0.132532
0.129745
0.126404
0.122557
0.118239
0.113498
0.108364
0.10287
0.0970414
0.0909119
0.0845085
0.0778557
0.0709789
0.0638985
0.0566163
0.0491662
0.0414829
0.0336498
0.0254093
0.0168223
0.00826423
0.0027153
1.34418
1.20012
1.1626
1.1195
1.07459
1.03403
0.99204
0.94867
0.90282
0.853882
0.80156
0.745594
0.685824
0.622171
0.554685
0.483479
0.408889
0.331304
0.251377
0.169874
0.0877886
0.00632832
-0.0732244
-0.149309
-0.220488
-0.28516
-0.341997
-0.389818
-0.427743
-0.455342
-0.472521
-0.479676
-0.4775
-0.467011
-0.449378
-0.425875
-0.397777
-0.366298
-0.332546
-0.297509
-0.262011
-0.226757
-0.192285
-0.159028
-0.127306
-0.0973463
-0.0692974
-0.0432405
-0.0192108
0.00279731
0.0228089
0.040884
0.0570962
0.0715243
0.0842582
0.0953929
0.105016
0.113229
0.12011
0.125747
0.130224
0.133624
0.136021
0.137487
0.138092
0.137891
0.136944
0.135314
0.133044
0.130187
0.126788
0.12289
0.118529
0.113746
0.108577
0.103045
0.0971918
0.0910383
0.0846167
0.0779481
0.0710548
0.0639582
0.0566673
0.049206
0.0415171
0.0336764
0.0254234
0.0168265
0.00826574
0.00272233
1.35001
1.20598
1.16857
1.12568
1.08101
1.04081
0.999247
0.956438
0.911232
0.863124
0.811809
0.756985
0.698568
0.636449
0.570695
0.501443
0.428975
0.353706
0.276238
0.197284
0.117843
0.0389441
-0.0380693
-0.111892
-0.18101
-0.244059
-0.299682
-0.346794
-0.38456
-0.4125
-0.430549
-0.439001
-0.438515
-0.43
-0.414561
-0.393397
-0.367702
-0.338643
-0.307273
-0.274531
-0.24123
-0.208032
-0.175486
-0.144007
-0.11392
-0.085442
-0.0587361
-0.0338921
-0.0109509
0.0100779
0.0292198
0.0465251
0.0620572
0.0758854
0.0880899
0.0987573
0.107966
0.115807
0.122365
0.127717
0.131949
0.13513
0.13734
0.138636
0.139092
0.138764
0.137708
0.135974
0.133622
0.130691
0.127222
0.123265
0.118849
0.114022
0.108813
0.103252
0.097365
0.091186
0.0847397
0.078055
0.0711426
0.0640298
0.0567232
0.0492499
0.0415577
0.0337054
0.0254993
0.0169394
0.00826684
0.00265824
1.35653
1.2126
1.17534
1.13256
1.08816
1.0483
1.00718
0.964985
0.920539
0.873289
0.822972
0.7694
0.712384
0.651903
0.588009
0.52081
0.450628
0.377821
0.302964
0.226775
0.150097
0.0740163
-0.000331569
-0.0716408
-0.13857
-0.199796
-0.254071
-0.300368
-0.337865
-0.366127
-0.385029
-0.394834
-0.396114
-0.389712
-0.376629
-0.357982
-0.334901
-0.308468
-0.27968
-0.249444
-0.218526
-0.187585
-0.157133
-0.127593
-0.0992787
-0.0724248
-0.0471872
-0.0236617
-0.00191074
0.0180563
0.0362522
0.0527141
0.0674912
0.080658
0.0922791
0.10243
0.111183
0.118625
0.124833
0.129883
0.133841
0.136785
0.13879
0.139903
0.140196
0.139727
0.138545
0.136705
0.134253
0.131233
0.127693
0.123675
0.119204
0.114326
0.109067
0.103466
0.0975506
0.0913431
0.0848732
0.0781604
0.0712303
0.0641024
0.0567813
0.0492961
0.0415913
0.033729
0.025488
0.0168662
0.00826651
0.00270667
1.36383
1.21993
1.18278
1.14016
1.09602
1.0565
1.01584
0.974242
0.930492
0.884131
0.834906
0.782581
0.727054
0.668269
0.606282
0.541245
0.47341
0.403161
0.33106
0.257688
0.183976
0.110767
0.0392633
-0.0294345
-0.0940176
-0.153302
-0.206104
-0.251471
-0.288641
-0.317157
-0.336906
-0.348075
-0.35118
-0.346954
-0.336333
-0.320331
-0.299988
-0.276321
-0.250269
-0.222684
-0.194302
-0.165745
-0.137527
-0.110045
-0.0836312
-0.0585037
-0.0348327
-0.0127256
0.00775902
0.0265874
0.0437701
0.0593294
0.0733125
0.0857753
0.0967707
0.106367
0.114639
0.121653
0.127481
0.132195
0.135865
0.138555
0.140333
0.141254
0.141376
0.140752
0.139441
0.137482