/*--------------------------------*- C++ -*----------------------------------*\
  =========                 |
  \\      /  F ield         | OpenFOAM: The Open Source CFD Toolbox
   \\    /   O peration     | Website:  https://openfoam.org
    \\  /    A nd           | Version:  11
     \\/     M anipulation  |
\*---------------------------------------------------------------------------*/
FoamFile
{
    format      ascii;
    class       volScalarField;
    location    "0.004";
    object      p;
}
// * * * * * * * * * * * * * * * * * * * * * * * * * * * * * * * * * * * * * //

dimensions      [0 2 -2 0 0 0 0];

internalField   nonuniform List<scalar> 
287084
(
9.15825
8.97016
8.84856
8.75412
8.67025
8.58762
8.50274
8.41335
8.31739
8.21529
8.10578
7.98715
7.85922
7.72092
7.57057
7.41043
7.2387
7.055
6.85906
6.65107
6.43208
6.20134
5.95927
5.7054
5.44121
5.17071
4.89834
4.62398
4.3486
4.07375
3.80196
3.53522
3.2759
3.02525
2.78422
2.55398
2.33626
2.132
1.94012
1.76192
1.59699
1.44506
1.30585
1.17889
1.06361
0.959415
0.865658
0.781589
0.706388
0.639397
0.579872
0.526901
0.479213
0.437107
0.403086
0.374801
0.347298
0.321278
0.298073
0.278826
0.264069
0.249923
0.235654
0.222859
0.211559
0.201215
0.191659
0.182817
0.1746
0.166765
0.159227
0.152033
0.145022
0.138138
0.131281
0.124506
0.11763
0.110667
0.103574
0.0960168
0.0879045
0.0796537
0.0718481
0.0641608
0.0575072
0.0508901
0.0409811
0.0296471
0.0176328
0.00552547
9.06117
8.93206
8.83248
8.74733
8.66787
8.58769
8.50421
8.41546
8.32043
8.21925
8.10976
7.99122
7.86303
7.72491
7.57558
7.41463
7.24308
7.05885
6.86232
6.65416
6.43417
6.20306
5.96033
5.70519
5.4415
5.17003
4.89627
4.62065
4.34436
4.06879
3.79591
3.52837
3.26841
3.01683
2.77558
2.54511
2.32733
2.1227
1.93121
1.75306
1.58827
1.43654
1.29766
1.1711
1.05624
0.952503
0.859168
0.775458
0.700731
0.634204
0.575162
0.522772
0.47636
0.435648
0.400593
0.37021
0.342901
0.31825
0.296442
0.277588
0.261416
0.246915
0.233483
0.221266
0.210197
0.200043
0.190672
0.181967
0.173813
0.166074
0.158674
0.151543
0.144566
0.137745
0.130959
0.124226
0.117444
0.110512
0.103525
0.0961789
0.0885142
0.0805941
0.0727078
0.0651099
0.0576215
0.050241
0.04138
0.0303326
0.0183576
0.00659922
9.01961
8.90713
8.81891
8.74145
8.6664
8.58918
8.50748
8.42027
8.32736
8.22674
8.11766
7.99944
7.87149
7.73314
7.58409
7.42357
7.25095
7.06643
6.86985
6.66022
6.43837
6.20564
5.96146
5.70552
5.44052
5.16929
4.89369
4.61507
4.33622
4.05841
3.78369
3.51483
3.25319
3.00052
2.75829
2.5275
2.30932
2.10441
1.91306
1.73523
1.57079
1.41967
1.28144
1.15558
1.0415
0.938623
0.846164
0.763374
0.689472
0.623808
0.565651
0.51417
0.468766
0.42894
0.39419
0.363771
0.336899
0.313112
0.292085
0.273649
0.257527
0.243182
0.230188
0.218405
0.207701
0.197808
0.188718
0.180285
0.172332
0.164799
0.157576
0.150542
0.143695
0.136959
0.130321
0.123698
0.117047
0.110245
0.103296
0.0961529
0.0887761
0.0810463
0.0731055
0.065154
0.0577351
0.0504793
0.041265
0.0301602
0.0182869
0.00641837
8.99678
8.89081
8.81009
8.73877
8.66748
8.59287
8.51351
8.42911
8.33738
8.23768
8.12876
8.01127
7.88424
7.74668
7.59759
7.43624
7.26329
7.07763
6.88022
6.66939
6.446
6.21127
5.96502
5.70723
5.4397
5.16597
4.88739
4.60592
4.32407
4.043
3.76578
3.4942
3.23032
2.97595
2.73246
2.50104
2.28255
2.07719
1.88571
1.70817
1.54445
1.39423
1.25705
1.1324
1.01966
0.918019
0.826798
0.745366
0.672797
0.608382
0.551457
0.501166
0.456974
0.418185
0.384313
0.354612
0.328555
0.305628
0.28545
0.267627
0.251959
0.238114
0.225611
0.21432
0.204106
0.194653
0.185911
0.177823
0.170162
0.162854
0.155862
0.149084
0.142402
0.135879
0.129385
0.122869
0.116345
0.109711
0.102898
0.0959037
0.0886772
0.0810718
0.0731022
0.0650853
0.0576175
0.0503307
0.0410233
0.0299026
0.018095
0.00627102
8.98621
8.88325
8.80736
8.73989
8.67155
8.59969
8.52361
8.44094
8.35012
8.25172
8.14494
8.02849
7.90164
7.76377
7.61429
7.45332
7.28001
7.09344
6.89422
6.68184
6.45671
6.21874
5.96921
5.70863
5.43871
5.16177
4.879
4.59348
4.30764
4.02267
3.7416
3.46684
3.2003
2.94382
2.69831
2.4655
2.24607
2.04045
1.84891
1.67198
1.50917
1.36015
1.22451
1.10154
0.99055
0.890791
0.8014
0.721669
0.650844
0.588096
0.532796
0.484072
0.441335
0.403952
0.371258
0.342707
0.317731
0.295823
0.276631
0.259732
0.24482
0.231617
0.219778
0.209124
0.199458
0.190533
0.182293
0.174566
0.167312
0.160347
0.153629
0.147148
0.140731
0.1344
0.128121
0.121818
0.115426
0.108939
0.102331
0.0954768
0.0883048
0.0807774
0.0728788
0.0647852
0.0572674
0.0500202
0.0406533
0.0295624
0.0179231
0.00625335
8.98432
8.88321
8.81014
8.74544
8.67952
8.61063
8.53645
8.45534
8.36731
8.27013
8.16385
8.04888
7.92292
7.78546
7.63605
7.47429
7.30029
7.11345
6.9123
6.6975
6.46918
6.22895
5.97568
5.71103
5.43699
5.15532
4.86774
4.57736
4.28638
3.99663
3.71149
3.4329
3.16259
2.90339
2.6557
2.4212
2.20023
1.99425
1.80306
1.6268
1.46519
1.31779
1.18404
1.0632
0.954458
0.857025
0.770008
0.692618
0.623959
0.563272
0.509892
0.463113
0.42217
0.38645
0.355316
0.328182
0.304552
0.28392
0.26588
0.250072
0.236109
0.223771
0.212756
0.202839
0.193833
0.185552
0.177873
0.170661
0.1638
0.157249
0.150931
0.14478
0.138699
0.1326
0.126577
0.120462
0.114303
0.10802
0.101538
0.094811
0.0877869
0.0803101
0.0725077
0.0645676
0.0565193
0.0489582
0.040283
0.0293684
0.0176424
0.00614045
8.98855
8.88913
8.81838
8.75495
8.69178
8.62511
8.55269
8.4744
8.38716
8.29186
8.18703
8.07273
7.94783
7.811
7.66158
7.50013
7.3245
7.13606
6.93314
6.71632
6.48493
6.24039
5.98263
5.71341
5.43434
5.14711
4.85427
4.55781
4.26091
3.96564
3.67555
3.3922
3.11729
2.85435
2.60441
2.36746
2.14536
1.93893
1.74816
1.57287
1.41283
1.26738
1.13595
1.0177
0.911734
0.817156
0.732953
0.65832
0.592378
0.534242
0.483203
0.438607
0.399778
0.366022
0.33671
0.311255
0.28921
0.270046
0.253381
0.238801
0.225987
0.214684
0.204622
0.195572
0.187299
0.179741
0.172732
0.166065
0.159778
0.153677
0.147773
0.142026
0.136299
0.130499
0.12475
0.118894
0.112924
0.106854
0.100596
0.0940286
0.087084
0.0797347
0.0720333
0.0640168
0.0562019
0.0486757
0.0395331
0.0287437
0.0173028
0.00595919
8.99879
8.90026
8.83044
8.76881
8.70776
8.64278
8.57272
8.4955
8.41073
8.31681
8.21356
8.10024
7.97581
7.83914
7.69076
7.5287
7.35239
7.16234
6.95716
6.73698
6.50184
6.2532
5.99089
5.71589
5.43078
5.13737
4.83797
4.53461
4.23107
3.9295
3.63299
3.344
3.06466
2.79749
2.54392
2.30497
2.08154
1.87492
1.68461
1.51059
1.35236
1.20931
1.08071
0.965584
0.862825
0.771516
0.690666
0.619245
0.556456
0.501322
0.453023
0.410999
0.374549
0.342985
0.315702
0.292231
0.271984
0.25448
0.239289
0.226111
0.214586
0.204501
0.195486
0.187343
0.179996
0.173231
0.166928
0.160944
0.155212
0.149692
0.144274
0.138883
0.133536
0.128079
0.122641
0.117109
0.111435
0.105587
0.0994568
0.0930306
0.0862401
0.078965
0.0714618
0.0637993
0.0557473
0.0474734
0.0385405
0.0285308
0.0171519
0.00577939
9.01334
8.91577
8.84649
8.78664
8.72685
8.66374
8.59527
8.52005
8.43679
8.34482
8.24296
8.13052
8.00685
7.87126
7.72219
7.56027
7.38302
7.19086
6.98342
6.75956
6.52063
6.2666
5.99852
5.71787
5.42618
5.12534
4.81827
4.50772
4.19669
3.88772
3.58431
3.28931
3.00472
2.73341
2.47592
2.23481
2.01046
1.80349
1.61379
1.44112
1.28499
1.14464
1.0191
0.907311
0.808233
0.720789
0.643704
0.575933
0.516657
0.464905
0.419779
0.380651
0.346817
0.317716
0.292743
0.271367
0.253086
0.237367
0.223894
0.212255
0.202125
0.193312
0.185469
0.17841
0.171991
0.16607
0.160568
0.155315
0.150254
0.145281
0.140352
0.135469
0.130519
0.125463
0.120373
0.115146
0.109735
0.104075
0.0981935
0.0919391
0.0851072
0.0775183
0.0703201
0.0633242
0.0552344
0.0472813
0.0386239
0.0280982
0.0167962
0.00576613
9.03172
8.93453
8.86601
8.80702
8.74889
8.68757
8.62069
8.54683
8.46576
8.37544
8.27459
8.1633
8.04062
7.90542
7.7566
7.59373
7.4155
7.221
7.01059
6.78314
6.53997
6.28049
6.00625
5.71876
5.41983
5.11124
4.79556
4.47673
4.1578
3.84146
3.53016
3.22823
2.93848
2.66255
2.4017
2.15833
1.93286
1.7256
1.53669
1.36568
1.21187
1.07442
0.952224
0.84415
0.748984
0.665558
0.592595
0.528965
0.473596
0.425511
0.383863
0.347936
0.317042
0.290625
0.268127
0.249009
0.232835
0.219108
0.207396
0.197412
0.188801
0.181312
0.174712
0.168799
0.163458
0.158467
0.153767
0.149276
0.144924
0.140562
0.136179
0.131754
0.127294
0.122654
0.117938
0.113014
0.10788
0.102476
0.0968182
0.0907928
0.0842945
0.0772179
0.0698686
0.0622389
0.0544245
0.0466338
0.037672
0.0274066
0.016443
0.00558918
9.05286
8.95543
8.88791
8.83038
8.77345
8.71321
8.64792
8.57609
8.49668
8.40786
8.30849
8.1984
8.07636
7.94138
7.79227
7.62892
7.44875
7.25257
7.03913
6.80755
6.55937
6.2942
6.01354
5.7183
5.41105
5.09386
4.77007
4.44269
4.11519
3.79004
3.47133
3.16266
2.8669
2.58599
2.32192
2.07616
1.84956
1.64238
1.45448
1.28536
1.1342
0.999879
0.88134
0.777184
0.686136
0.606963
0.538286
0.478968
0.42784
0.383699
0.345819
0.313421
0.285708
0.262108
0.242185
0.225508
0.211563
0.199882
0.19007
0.181823
0.174804
0.168732
0.16344
0.158734
0.154462
0.150462
0.14666
0.142944
0.139281
0.135596
0.131782
0.127886
0.12386
0.11969
0.115365
0.110774
0.105914
0.100804
0.0953677
0.0895379
0.0832691
0.076415
0.069112
0.0614657
0.0534991
0.0455715
0.0369684
0.0270302
0.0162747
0.00555187
9.07611
8.97889
8.91159
8.85497
8.79971
8.74128
8.67728
8.60687
8.52819
8.44064
8.34342
8.23473
8.11332
7.97889
7.82958
7.66476
7.48371
7.28481
7.06744
6.83176
6.57863
6.30719
6.01917
5.71602
5.40055
5.07462
4.74161
4.40528
4.06862
3.73483
3.40822
3.09266
2.79092
2.50541
2.23768
1.98954
1.76213
1.55524
1.36855
1.20154
1.0532
0.922252
0.80756
0.707543
0.620772
0.546003
0.481815
0.426958
0.380122
0.340189
0.306251
0.277489
0.253106
0.232631
0.215483
0.201284
0.189619
0.180041
0.172175
0.165695
0.160293
0.155763
0.151846
0.148361
0.145158
0.142204
0.139296
0.136399
0.133495
0.130457
0.127235
0.123918
0.120384
0.116587
0.112677
0.108426
0.103876
0.0990332
0.0938369
0.0881852
0.0820595
0.0754285
0.0682514
0.0604378
0.0528205
0.0451967
0.0362526
0.0265502
0.0159635
0.00530565
9.1007
9.00354
8.93703
8.88142
8.82679
8.76953
8.70705
8.63847
8.56124
8.47518
8.37921
8.27142
8.15086
8.01649
7.86684
7.70136
7.51837
7.31662
7.09571
6.8556
6.59649
6.31887
6.02371
5.71225
5.38746
5.05261
4.71069
4.36523
4.01884
3.67686
3.34238
3.01924
2.7116
2.42094
2.15025
1.90031
1.67205
1.46555
1.28034
1.11563
0.970245
0.84293
0.732148
0.636363
0.554099
0.483841
0.424177
0.373738
0.331296
0.2957
0.265788
0.240736
0.219845
0.202528
0.188272
0.176667
0.167345
0.159912
0.154062
0.149397
0.145656
0.14258
0.140042
0.137804
0.135752
0.133823
0.131836
0.129789
0.127605
0.125215
0.122646
0.119836
0.11682
0.113507
0.109899
0.105983
0.101767
0.0971618
0.0922464
0.08686
0.0808996
0.0743835
0.0673869
0.05992
0.0519909
0.0439833
0.0356732
0.0262827
0.0156856
0.00523913
9.12591
9.02908
8.96317
8.90819
8.85475
8.79838
8.73731
8.67015
8.59463
8.51009
8.41491
8.30805
8.18838
8.05344
7.90397
7.73731
7.55217
7.3478
7.12307
6.87826
6.61338
6.32903
6.02626
5.7064
5.37256
5.02896
4.67829
4.32276
3.9673
3.61604
3.27353
2.94367
2.63005
2.33512
2.06139
1.80962
1.58084
1.37494
1.19133
1.02905
0.886801
0.76313
0.656415
0.564962
0.487202
0.421498
0.366378
0.320375
0.282275
0.250863
0.225055
0.203886
0.186524
0.172373
0.161041
0.152036
0.145087
0.139812
0.135934
0.133085
0.130978
0.129427
0.128271
0.127267
0.12636
0.125431
0.124403
0.123149
0.12172
0.120027
0.118051
0.115805
0.113216
0.110341
0.107136
0.103568
0.0996603
0.0953274
0.0906173
0.0854258
0.0796109
0.0731443
0.0664221
0.0593887
0.0514924
0.0434859
0.0350688
0.0255811
0.0153368
0.00519777
9.15054
9.05425
8.98928
8.93523
8.88281
8.82771
8.76776
8.70166
8.62735
8.5442
8.45065
8.34405
8.22447
8.09014
7.94012
7.7723
7.58464
7.37707
7.14857
6.89939
6.62868
6.33742
6.02681
5.69833
5.35606
5.00381
4.64365
4.27885
3.91432
3.55424
3.20372
2.86758
2.54829
2.24899
1.97236
1.71916
1.49007
1.28499
1.10309
0.943354
0.804288
0.684328
0.581694
0.494557
0.421245
0.360029
0.309387
0.267799
0.233967
0.206628
0.184763
0.167381
0.153559
0.142615
0.134206
0.127819
0.123151
0.12009
0.118138
0.117051
0.116598
0.116523
0.116678
0.11692
0.117079
0.117192
0.117079
0.116634
0.115954
0.114931
0.113512
0.111782
0.109692
0.10724
0.104426
0.101155
0.0975408
0.0935398
0.0890772
0.0840254
0.078387
0.0721368
0.0656024
0.0585412
0.0507131
0.0428116
0.0344953
0.0250915
0.0149888
0.00509141
9.17439
9.07958
9.01526
8.96168
8.91019
8.85605
8.79709
8.73235
8.65898
8.57689
8.48413
8.37894
8.25996
8.12566
7.97464
7.80512
7.6156
7.40477
7.17262
6.91824
6.64185
6.3436
6.02512
5.68889
5.33875
4.97754
4.60833
4.23408
3.86075
3.49249
3.1344
2.79137
2.46714
2.1645
1.88523
1.63066
1.40148
1.1973
1.01724
0.860118
0.724215
0.60794
0.509261
0.426314
0.35736
0.300528
0.254173
0.216865
0.187125
0.16377
0.145683
0.131944
0.121557
0.113733
0.108133
0.104357
0.102044
0.100949
0.100883
0.101556
0.102696
0.104063
0.105493
0.106901
0.108181
0.109254
0.109999
0.110348
0.110366
0.109966
0.109136
0.10788
0.106253
0.104241
0.101801
0.0988464
0.0955164
0.0917766
0.0875368
0.0827066
0.0773147
0.0713647
0.0647433
0.0576595
0.0500148
0.0418236
0.0335614
0.024764
0.01467
0.00489868
9.19811
9.10381
9.03981
8.98689
8.93592
8.8831
8.82554
8.76113
8.68938
8.60853
8.51671
8.41212
8.29272
8.15836
8.00696
7.83561
7.6436
7.43024
7.19437
6.93505
6.65275
6.34776
6.02218
5.67837
5.31989
4.9506
4.57263
4.18967
3.80732
3.43156
3.06694
2.71816
2.38885
2.08268
1.80135
1.5458
1.31665
1.11352
0.93537
0.780803
0.648044
0.535205
0.440369
0.361476
0.296635
0.24394
0.201722
0.168402
0.142571
0.122963
0.108498
0.0981286
0.0910094
0.0862301
0.0833537
0.0820401
0.081941
0.0828318
0.0845552
0.0868345
0.0894686
0.0921563
0.0948912
0.0974291
0.0997093
0.101671
0.103246
0.104386
0.105076
0.105237
0.104963
0.104242
0.103065
0.101375
0.0992585
0.0966395
0.0935872
0.0900485
0.0859901
0.0814163
0.0762194
0.0703155
0.0637369
0.0567553
0.0494648
0.041441
0.0325813
0.023976
0.0151832
0.00545726
9.22057
9.12656
9.06288
9.0104
8.95997
8.9082
8.85111
8.78833
8.71784
8.63797
8.54689
8.44214
8.3236
8.18855
8.03602
7.86303
7.66946
7.45325
7.21294
6.94937
6.662
6.35029
6.01781
5.66709
5.30091
4.92381
4.53767
4.14635
3.75612
3.37299
3.00212
2.64833
2.31524
2.00559
1.72219
1.4661
1.23723
1.03525
0.858928
0.706765
0.576953
0.467482
0.376199
0.301052
0.240041
0.191249
0.152823
0.123286
0.101073
0.0849603
0.0738259
0.0665887
0.0624404
0.0605348
0.0602176
0.0611717
0.0631825
0.0659304
0.0693207
0.0731637
0.077164
0.0811324
0.0849813
0.0885817
0.091856
0.09468
0.0970225
0.0988317
0.100108
0.10087
0.101105
0.100808
0.0999978
0.0987
0.0969025
0.0945816
0.0917726
0.0884555
0.0846015
0.0801411
0.0750054
0.0690541
0.0621855
0.0557001
0.0492251
0.0410464
0.0325763
0.0240357
0.0147074
0.00519598
9.24103
9.14697
9.08367
9.03177
8.98206
8.93058
8.875
8.81346
8.74336
8.6644
8.57362
8.46954
8.35106
8.21556
8.06205
7.88794
7.6924
7.47294
7.22937
6.96117
6.66855
6.3515
6.01238
5.65525
5.28278
4.89789
4.50403
4.10531
3.7077
3.31845
2.94203
2.58349
2.24708
1.93494
1.64992
1.39327
1.16476
0.963816
0.789227
0.639365
0.512278
0.405778
0.317804
0.246109
0.188591
0.143269
0.108339
0.082151
0.063268
0.0503444
0.042186
0.0378004
0.0364139
0.0370272
0.0390783
0.042192
0.0461065
0.050585
0.0554463
0.0606696
0.0659684
0.0711201
0.0760213
0.0805614
0.084661
0.0882756
0.0913356
0.0937946
0.0956048
0.0968667
0.0975679
0.0976984
0.0972461
0.0962779
0.0947611
0.0926972
0.0901103
0.0869879
0.0833112
0.079023
0.0740792
0.0684635
0.0620944
0.0552964
0.0482727
0.0406694
0.0324235
0.0234533
0.0138145
0.00468206
9.25908
9.16505
9.10208
9.05018
9.00174
8.95119
8.89607
8.83505
8.76585
8.68698
8.59716
8.49324
8.37479
8.23935
8.08523
7.90972
7.71187
7.49001
7.24296
6.97081
6.67349
6.35088
6.00628
5.64354
5.2653
4.87346
4.47267
4.06743
3.66387
3.2689
2.88781
2.52523
2.18591
1.87161
1.58564
1.32861
1.10044
0.900469
0.727488
0.579659
0.454986
0.351214
0.266093
0.197392
0.142966
0.100745
0.0689454
0.0457642
0.0297894
0.0196467
0.0141669
0.0123175
0.0132873
0.0161841
0.0202916
0.0253229
0.0309643
0.0369449
0.0431713
0.0496481
0.0560644
0.0622929
0.0681094
0.0734521
0.0783371
0.0826019
0.0862823
0.0892871
0.0916375
0.0933867
0.0944372
0.094911
0.0948017
0.0941187
0.0928018
0.0910026
0.0886347
0.0856413
0.0821252
0.0779995
0.07322
0.067742
0.0614698
0.0545503
0.0475554
0.0402067
0.0319362
0.0229018
0.0133989
0.00448939
9.27424
9.1798
9.11745
9.06651
9.01785
8.96848
8.91388
8.85285
8.78507
8.70665
8.61685
8.5135
8.39511
8.25939
8.10379
7.92719
7.72796
7.50374
7.25381
6.97796
6.67665
6.34979
6.00044
5.63256
5.2493
4.85155
4.44487
4.03366
3.6256
3.22596
2.84032
2.47486
2.13289
1.81744
1.53043
1.27311
1.04531
0.846271
0.674649
0.528571
0.40595
0.304521
0.221905
0.155762
0.103959
0.064411
0.0352114
0.0146222
0.00111543
-0.00665246
-0.00985458
-0.00947774
-0.00654119
-0.00171782
0.00422289
0.0108567
0.0179568
0.0253069
0.0327118
0.0402172
0.0476084
0.0547
0.0613453
0.0674142
0.0729235
0.077809
0.0819819
0.0854758
0.088266
0.0903486
0.0917693
0.0925561
0.0927178
0.0922666
0.0911583
0.0895154
0.0873031
0.0845115
0.0811242
0.0770959
0.0724069
0.0670495
0.0608997
0.0539635
0.046964
0.0396455
0.0315045
0.0225517
0.0131027
0.0043314
9.28628
9.1919
9.12962
9.07945
9.03088
8.98141
8.92783
8.8681
8.79991
8.72208
8.6325
8.52969
8.41135
8.27515
8.11932
7.9414
7.74015
7.51422
7.2619
6.98342
6.67872
6.3482
5.99528
5.62366
5.23587
4.83241
4.42033
4.00533
3.59296
3.18993
2.80138
2.43297
2.0895
1.77285
1.48519
1.22766
1.00022
0.80199
0.631496
0.486888
0.36596
0.266367
0.185776
0.121755
0.0720963
0.0347694
0.00766235
-0.0108398
-0.0223112
-0.0280914
-0.0294515
-0.0273519
-0.022721
-0.0162963
-0.00888727
-0.00093042
0.00739348
0.0158112
0.0241944
0.0325373
0.0407202
0.0485122
0.0558418
0.0625036
0.0685639
0.0739281
0.0785134
0.0823741
0.0854982
0.0879048
0.0896127
0.0906413
0.0909904
0.0907074
0.089825
0.0883415
0.0862029
0.083503
0.0802149
0.0762958
0.0716896
0.0664146
0.0604467
0.053773
0.0466134
0.0389681
0.0309295
0.0222355
0.0128428
0.0041666
9.29498
9.20071
9.1385
9.08872
9.04043
8.99119
8.93798
8.87807
8.81093
8.7336
8.64433
8.54126
8.42276
8.28655
8.12996
7.95121
7.74944
7.52166
7.26778
6.98756
6.68012
6.34664
5.99143
5.61677
5.22332
4.81638
4.40146
3.983
3.56774
3.16176
2.77121
2.40115
2.05617
1.73851
1.45044
1.19294
0.965817
0.768232
0.598614
0.455115
0.335501
0.23736
0.158273
0.0959027
0.0478752
0.0121462
-0.0132787
-0.0301799
-0.0401366
-0.0444165
-0.0443483
-0.0409072
-0.0350189
-0.0273928
-0.018836
-0.00987633
-0.000620608
0.00861086
0.0177868
0.0267938
0.035514
0.0438548
0.051661
0.0588209
0.0652968
0.070992
0.0759112
0.0800653
0.0834515
0.0860842
0.0879867
0.0891754
0.0897194
0.0895439
0.0887664
0.0873747
0.0853702
0.0827607
0.0794755
0.0756176
0.0710619
0.0657593
0.0598205
0.0532552
0.0461927
0.0387671
0.0308635
0.0221127
0.012654
0.00403988
9.29992
9.20613
9.14347
9.09415
9.04649
8.99719
8.94372
8.88423
8.81747
8.74013
8.65147
8.54902
8.43034
8.29368
8.13633
7.95763
7.75469
7.52583
7.27101
6.98908
6.67992
6.34478
5.98767
5.61094
5.2155
4.80604
4.38831
3.96789
3.55034
3.14293
2.75044
2.37948
2.03363
1.71513
1.42694
1.16947
0.942555
0.745376
0.576437
0.433723
0.314979
0.217825
0.13976
0.0784649
0.0315787
-0.00300482
-0.0273844
-0.0431806
-0.0520666
-0.0553677
-0.054327
-0.0499842
-0.043199
-0.0347756
-0.0254714
-0.0157893
-0.0059555
0.00384291
0.0135368
0.023004
0.0321314
0.0408345
0.0489689
0.0564286
0.063116
0.0690762
0.0741956
0.0785609
0.0821338
0.0848959
0.0869003
0.0882264
0.0888533
0.0887922
0.0881013
0.0867215
0.0847626
0.082176
0.0789809
0.0750932
0.0704284
0.0649873
0.058754
0.0523249
0.0458278
0.0388704
0.0311223
0.0222371
0.0126245
0.00403359
9.30149
9.20776
9.14501
9.09591
9.04848
8.9992
8.94571
8.88635
8.8198
8.74243
8.65394
8.55143
8.43284
8.29578
8.13901
7.95962
7.75648
7.52767
7.27214
6.9893
6.67952
6.3435
5.98532
5.60827
5.21219
4.79934
4.3799
3.95921
3.54111
3.13253
2.73951
2.36849
2.02204
1.70334
1.41499
1.15749
0.930744
0.733895
0.565255
0.422898
0.304622
0.207943
0.130495
0.0697302
0.0233718
-0.010621
-0.0343716
-0.0495875
-0.0579433
-0.0607865
-0.0592421
-0.0543975
-0.0471574
-0.0383286
-0.0286945
-0.0186512
-0.00847608
0.00161758
0.011529
0.0212404
0.0305735
0.0394351
0.047739
0.0553073
0.0621573
0.0682206
0.0734823
0.0779195
0.0815407
0.0843424
0.0864431
0.0877974
0.0884591
0.0884349
0.0877258
0.0864175
0.0844085
0.0818147
0.078623
0.0747615
0.0701842
0.0649401
0.0589573
0.0524069
0.0454118
0.0380777
0.030274
0.0217331
0.0124302
0.00394841
9.29899
9.20528
9.14254
9.09346
9.04607
8.99683
8.94318
8.88431
8.81744
8.74049
8.65184
8.54931
8.43074
8.29383
8.13718
7.95769
7.75454
7.52583
7.27037
6.98756
6.6778
6.34188
5.98376
5.60678
5.21089
4.79826
4.37897
3.95832
3.54025
3.13153
2.73902
2.368
2.02156
1.70287
1.41463
1.15716
0.930482
0.733637
0.565074
0.422827
0.304612
0.207959
0.130518
0.0698251
0.023534
-0.0104625
-0.0341669
-0.0493553
-0.0576699
-0.0604793
-0.0589017
-0.0540352
-0.0467786
-0.0379389
-0.0282995
-0.0182512
-0.00807088
0.00202219
0.0119858
0.0216199
0.0309479
0.0398165
0.0480313
0.0556226
0.0624978
0.0685226
0.0737255
0.0781574
0.0817534
0.0845559
0.0866168
0.0878881
0.0885344
0.0885258
0.0877466
0.0863538
0.0843062
0.081662
0.078448
0.0745671
0.0699731
0.0647426
0.0587903
0.052201
0.0450984
0.0377262
0.0298249
0.0213883
0.0124533
0.00402004
9.29235
9.19861
9.13596
9.08671
9.03915
8.99
8.93669
8.8774
8.81076
8.73345
8.64492
8.54257
8.42373
8.28745
8.13093
7.95173
7.74916
7.5211
7.26639
6.98454
6.6754
6.34082
5.98366
5.60708
5.21219
4.80323
4.38587
3.96563
3.5482
3.14068
2.74859
2.37835
2.0324
1.71398
1.42592
1.16855
0.941882
0.744879
0.576032
0.433464
0.314829
0.217823
0.139916
0.078687
0.0319078
-0.00260943
-0.0268025
-0.0425294
-0.0513268
-0.0545684
-0.0534586
-0.0490481
-0.0422124
-0.0337618
-0.0244451
-0.01475
-0.0049104
0.00488342
0.0145947
0.0239949
0.0331049
0.0417768
0.0498628
0.0572883
0.0639262
0.0698415
0.0749299
0.0792098
0.0826729
0.0853497
0.087329
0.0885433
0.0890711
0.0889669
0.0881085
0.0866335
0.084503
0.0817877
0.0785089
0.0745661
0.0699153
0.0646353
0.0586367
0.0520868
0.0450474
0.0376566
0.0298525
0.0213211
0.0120924
0.00373013
9.28215
9.18831
9.12601
9.07631
9.02814
8.97904
8.92603
8.86646
8.79913
8.72227
8.63376
8.53073
8.4124
8.27647
8.12019
7.94173
7.74011
7.51333
7.2604
6.97995
6.67256
6.33989
5.98442
5.61008
5.21833
4.81256
4.39808
3.97952
3.56425
3.15896
2.76844
2.39899
2.054
1.73648
1.44875
1.19151
0.964682
0.767334
0.597955
0.454705
0.335327
0.237389
0.158487
0.096273
0.0484635
0.012852
-0.0124242
-0.02912
-0.0388754
-0.0431109
-0.0429384
-0.039385
-0.0333954
-0.0257185
-0.0171609
-0.00818172
0.00107586
0.0102904
0.0194559
0.0284233
0.0371003
0.0454109
0.0531692
0.0602452
0.066583
0.0721862
0.077044
0.081114
0.0843353
0.0868846
0.0886493
0.0896857
0.0900512
0.089764
0.0888379
0.0872589
0.0849841
0.0821488
0.0787627
0.0747202
0.0699667
0.064565
0.0583526
0.0514333
0.0439588
0.0368264
0.029985
0.02195
0.0127041
0.00403648
9.26867
9.17432
9.1121
9.06207
9.01366
8.96436
8.91112
8.85179
8.78379
8.70638
8.61728
8.51482
8.39668
8.26129
8.10533
7.92789
7.72791
7.50282
7.25161
6.97353
6.66924
6.33925
5.98639
5.61482
5.22741
4.82609
4.4155
4.00048
3.58827
3.18574
2.79747
2.4298
2.08638
1.77005
1.48283
1.22569
0.998668
0.800769
0.63058
0.486306
0.365701
0.266437
0.18609
0.122333
0.0729143
0.0357455
0.0089265
-0.00932941
-0.0206144
-0.0262488
-0.0274197
-0.0251962
-0.0204506
-0.0139856
-0.00655308
0.00142694
0.00974808
0.01814
0.0265125
0.0348209
0.0429025
0.0506571
0.0578772
0.0644971
0.0704132
0.0756068
0.0800925
0.0838262
0.0867872
0.0890104
0.0905181
0.0913377
0.091482
0.0909935
0.089872
0.0881307
0.0857179
0.082743
0.0792117
0.0750375
0.0701318
0.0645348
0.0581861
0.0511885
0.0441215
0.0370612
0.0293587
0.0212443
0.0127913
0.00431744
9.25167
9.15722
9.09501
9.04422
8.99569
8.94608
8.89227
8.83243
8.76434
8.68644
8.59732
8.49451
8.3767
8.24151
8.08677
7.91067
7.71166
7.48867
7.24046
6.96564
6.6647
6.33858
5.98962
5.62228
5.23966
4.84337
4.43741
4.02685
3.61924
3.22045
2.83577
2.47055
2.12885
1.81397
1.52753
1.27061
1.0433
0.844767
0.673486
0.527842
0.405654
0.3046
0.222338
0.156527
0.105033
0.0657752
0.0368739
0.0165679
0.0033073
-0.00418907
-0.0072277
-0.00675262
-0.00363807
0.00130914
0.00725278
0.0138963
0.0210066
0.0282858
0.0357239
0.0431385
0.0504237
0.0574305
0.0639665
0.0699426
0.0753357
0.0800079
0.0839837
0.0873112
0.0898763
0.0917447
0.0929292
0.0934576
0.0933575
0.0926251
0.0912199
0.0892561
0.0867352
0.0835768
0.0798699
0.0755334
0.0705257
0.0648467
0.0585124
0.0516687
0.0443733
0.0371094
0.0297443
0.0213809
0.0124647
0.00407809
9.23165
9.13716
9.07465
9.02342
8.97511
8.92477
8.87004
8.80952
8.74054
8.66263
8.57301
8.46993
8.35246
8.21767
8.06391
7.88958
7.69255
7.47197
7.22657
6.95513
6.65863
6.33765
5.99338
5.63138
5.25422
4.86338
4.46322
4.05879
3.6566
3.26239
2.88197
2.51989
2.18094
1.86766
1.58224
1.32564
1.09803
0.898626
0.726122
0.578839
0.454625
0.35134
0.266697
0.198437
0.144348
0.102488
0.0710395
0.0482125
0.0324973
0.0226446
0.0174269
0.0157676
0.0168307
0.0198278
0.0240212
0.0290542
0.0346868
0.0406297
0.0468721
0.0532272
0.0595082
0.0655857
0.0713466
0.0765784
0.0812418
0.0852866
0.0887099
0.0914953
0.0936356
0.0951056
0.095859
0.0960276
0.095629
0.0945823
0.0929291
0.090725
0.0879328
0.0845952
0.0806685
0.0761782
0.0711302
0.0654003
0.0591513
0.0523412
0.0451069
0.0374983
0.0294881
0.0209892
0.0119756
0.0037345
9.20892
9.11481
9.05167
8.99985
8.95083
8.89949
8.84437
8.78324
8.71422
8.63569
8.54512
8.44188
8.32433
8.1904
8.03744
7.86483
7.67031
7.45212
7.20972
6.94304
6.65109
6.33528
5.99709
5.64079
5.27005
4.88625
4.4928
4.09534
3.69937
3.31076
2.93514
2.57711
2.24092
1.9299
1.64606
1.3899
1.16199
0.961657
0.787678
0.638432
0.511931
0.406029
0.318568
0.247341
0.19027
0.145397
0.110892
0.0851264
0.0665989
0.0539673
0.0460611
0.0419347
0.0406278
0.0413762
0.0434826
0.0466221
0.0505333
0.0549647
0.0598026
0.0648757
0.0700517
0.0751242
0.0798592
0.084203
0.0880737
0.0914443
0.0942352
0.096419
0.097942
0.0989272
0.0992681
0.0990472
0.0982497
0.0968434
0.0948805
0.092399
0.0893798
0.0857617
0.0816618
0.077015
0.071782
0.0659871
0.0595948
0.0526788
0.0452682
0.0375226
0.0293623
0.0209148
0.0122005
0.00395234
9.18385
9.08967
9.0262
8.97402
8.92396
8.87261
8.81653
8.75418
8.6842
8.60487
8.5137
8.41054
8.29286
8.15948
8.00767
7.83645
7.64413
7.42939
7.19099
6.92836
6.64169
6.33228
6.00053
5.65035
5.28655
4.9104
4.52459
4.135
3.74614
3.36426
2.99423
2.64108
2.30825
1.99999
1.71768
1.46222
1.23409
1.03279
0.8572
0.705778
0.576637
0.467823
0.37719
0.302619
0.242117
0.193787
0.155867
0.126735
0.104956
0.0891705
0.0783335
0.0713784
0.0674074
0.0655749
0.0653258
0.0663473
0.0683226
0.0710217
0.0742998
0.0779789
0.0818669
0.0857844
0.0894256
0.0928041
0.0958004
0.0983522
0.100385
0.10187
0.102811
0.103242
0.103071
0.102422
0.101219
0.0994051
0.0971063
0.0942997
0.0909832
0.0871652
0.082832
0.0779574
0.0725193
0.0665043
0.0599051
0.052814
0.045196
0.0375823
0.029797
0.0211785
0.0123785
0.00409925
9.15691
9.06271
8.99884
8.94605
8.89541
8.84275
8.78622
8.72298
8.65173
8.57135
8.48015
8.37591
8.25849
8.12562
7.97439
7.80487
7.61538
7.404
7.16907
6.91115
6.63075
6.32733
6.00255
5.65997
5.30311
4.9356
4.55856
4.17693
3.79614
3.42125
3.05794
2.71004
2.38156
2.0761
1.79575
1.54128
1.31306
1.11078
0.933489
0.779699
0.647763
0.535717
0.441578
0.363344
0.299071
0.246952
0.205229
0.172399
0.14707
0.127845
0.113705
0.1036
0.0966228
0.0919721
0.0891989
0.0878987
0.0877735
0.0886053
0.090228
0.0923797
0.0948565
0.0974335
0.0999143
0.10219
0.104186
0.105878
0.107079
0.107845
0.108128
0.107956
0.10728
0.106087
0.104422
0.1022
0.0995414
0.0964026
0.092799
0.0887302
0.0841153
0.0790029
0.0734507
0.0673292
0.0606173
0.0533893
0.0457734
0.0379103
0.0294694
0.0207723
0.0123104
0.00413473
9.12869
9.03416
8.97005
8.91663
8.86507
8.81164
8.75357
8.68964
8.61745
8.53572
8.44374
8.33969
8.22204
8.08909
7.93919
7.77123
7.58368
7.37528
7.14448
6.89189
6.61733
6.32046
6.00363
5.66916
5.31978
4.96053
4.59275
4.2202
3.84752
3.48063
3.12473
2.7827
2.45892
2.15721
1.87895
1.62563
1.39744
1.19428
1.01526
0.859012
0.724067
0.608575
0.510706
0.428507
0.3602
0.304019
0.258264
0.221387
0.192148
0.169271
0.151552
0.138081
0.127839
0.120231
0.114725
0.110968
0.108596
0.107448
0.107276
0.107768
0.108714
0.10987
0.111112
0.112225
0.113192
0.113892
0.114244
0.114243
0.113859
0.112992
0.111719
0.11002
0.107863
0.10524
0.102177
0.0987156
0.0947948
0.0903785
0.0855428
0.0802217
0.0744327
0.0681824
0.0613999
0.0541492
0.0465469
0.0385776
0.0301192
0.0211808
0.0118927
0.00363668
9.09986
9.00482
8.94009
8.88619
8.83391
8.77927
8.72018
8.65447
8.58146
8.49844
8.40555
8.30095
8.1837
8.05099
7.90144
7.73512
7.54985
7.34436
7.11852
6.87041
6.60167
6.31211
6.00245
5.67644
5.33604
4.98484
4.62615
4.26322
3.89995
3.54176
3.1932
2.85738
2.53888
2.24124
1.96559
1.7136
1.48568
1.2817
1.10096
0.94228
0.804177
0.685126
0.583385
0.497078
0.424508
0.363997
0.313951
0.272934
0.239597
0.212795
0.191324
0.174223
0.160526
0.149767
0.141502
0.13515
0.130462
0.127203
0.125134
0.123929
0.123287
0.122961
0.122837
0.122771
0.122643
0.122333
0.121781
0.120974
0.119842
0.118318
0.116398
0.114136
0.111507
0.108422
0.104988
0.101155
0.0968431
0.0921734
0.0870388
0.0814899
0.0755064
0.0690209
0.0620986
0.0547593
0.0470593
0.0389884
0.0304794
0.0214459
0.012004
0.00364059
9.07195
8.97543
8.90978
8.85501
8.80145
8.74585
8.68604
8.61887
8.54451
8.46072
8.36717
8.26152
8.14313
8.01087
7.86201
7.69738
7.5143
7.31199
7.08981
6.84699
6.58409
6.30153
6.00031
5.68225
5.35068
5.00833
4.65864
4.30559
3.95208
3.60259
3.26143
2.93267
2.62005
2.32654
2.05376
1.80354
1.57609
1.37143
1.18907
1.02794
0.88678
0.764125
0.658346
0.56779
0.490896
0.425973
0.371475
0.326082
0.288546
0.257636
0.232189
0.21132
0.194209
0.180257
0.169036
0.160041
0.153021
0.147664
0.143651
0.140598
0.138247
0.136444
0.134987
0.133653
0.132384
0.13106
0.129554
0.127908
0.126012
0.123775
0.121249
0.118437
0.115255
0.111703
0.107899
0.103673
0.0990094
0.0940344
0.088669
0.0828349
0.0765778
0.0699093
0.0627636
0.055205
0.0472714
0.0391822
0.0307705
0.0217912
0.0123212
0.00378812
9.043
8.94595