/*--------------------------------*- C++ -*----------------------------------*\
  =========                 |
  \\      /  F ield         | OpenFOAM: The Open Source CFD Toolbox
   \\    /   O peration     | Website:  https://openfoam.org
    \\  /    A nd           | Version:  11
     \\/     M anipulation  |
\*---------------------------------------------------------------------------*/
FoamFile
{
    format      ascii;
    class       volScalarField;
    location    "0.022";
    object      k;
}
// * * * * * * * * * * * * * * * * * * * * * * * * * * * * * * * * * * * * * //

dimensions      [0 2 -2 0 0 0 0];

internalField   nonuniform List<scalar> 
287084
(
0.382975
0.391166
0.393777
0.394097
0.394109
0.394108
0.393918
0.393987
0.39416
0.39418
0.394133
0.39402
0.393947
0.394059
0.394286
0.394157
0.394244
0.394331
0.394287
0.394331
0.394287
0.394237
0.394249
0.394193
0.394008
0.394055
0.394187
0.394178
0.394176
0.393946
0.39403
0.394117
0.393876
0.393972
0.39409
0.394037
0.393958
0.394024
0.394123
0.393934
0.394026
0.394073
0.393864
0.393962
0.394067
0.393834
0.393932
0.394046
0.394041
0.394041
0.394001
0.393914
0.393959
0.394084
0.393917
0.393998
0.394031
0.394007
0.393943
0.394034
0.394146
0.393942
0.394034
0.394128
0.394018
0.394007
0.39396
0.394058
0.394092
0.394054
0.393971
0.394038
0.394176
0.394154
0.394121
0.394127
0.394144
0.394014
0.394078
0.394094
0.394064
0.394057
0.393861
0.393919
0.394058
0.393863
0.393963
0.394038
0.394006
0.393916
0.382983
0.391067
0.393818
0.394253
0.394223
0.394251
0.394242
0.394262
0.394171
0.39413
0.394122
0.393958
0.39401
0.394081
0.393846
0.393947
0.394082
0.393872
0.39385
0.394185
0.394357
0.394314
0.394281
0.394287
0.394311
0.394183
0.394237
0.39425
0.394098
0.394129
0.394142
0.393941
0.394038
0.394145
0.393921
0.394008
0.394186
0.394133
0.394161
0.394146
0.394094
0.393903
0.393982
0.394109
0.394104
0.3941
0.393843
0.393915
0.394003
0.393767
0.393854
0.394043
0.39397
0.393968
0.393906
0.394021
0.394082
0.393947
0.394036
0.394081
0.393961
0.393921
0.394029
0.39409
0.394032
0.394042
0.394057
0.39408
0.393964
0.394082
0.394195
0.394107
0.394101
0.393996
0.394081
0.394182
0.394098
0.394102
0.394096
0.393965
0.393939
0.393969
0.393917
0.393947
0.393946
0.393957
0.393828
0.393927
0.394042
0.393801
0.382982
0.391061
0.393812
0.394249
0.39415
0.394233
0.394268
0.394181
0.394221
0.394302
0.394284
0.39422
0.394008
0.39399
0.394125
0.394201
0.394161
0.394049
0.393976
0.394101
0.394288
0.394286
0.394329
0.394275
0.394241
0.39421
0.394147
0.394195
0.394236
0.394072
0.394191
0.394276
0.394079
0.394201
0.394302
0.394128
0.394254
0.394337
0.394222
0.394253
0.394199
0.394162
0.394143
0.394151
0.394177
0.394144
0.394152
0.39417
0.394113
0.393936
0.39392
0.394007
0.394035
0.39402
0.39406
0.394104
0.393891
0.393987
0.394067
0.394012
0.393967
0.394057
0.394216
0.394094
0.394131
0.394137
0.394103
0.393994
0.394077
0.394117
0.393981
0.394003
0.393953
0.394002
0.394027
0.393895
0.394021
0.394174
0.394119
0.39415
0.39414
0.394171
0.394124
0.393968
0.394025
0.394073
0.393883
0.393957
0.393987
0.393791
0.38298
0.391065
0.393769
0.394341
0.394303
0.394378
0.394393
0.394325
0.39432
0.394294
0.394305
0.394292
0.394212
0.394219
0.394243
0.394224
0.394221
0.394034
0.394142
0.394262
0.394134
0.394154
0.394094
0.394055
0.394044
0.394052
0.393958
0.394067
0.394226
0.394191
0.394147
0.393942
0.394047
0.394157
0.393944
0.394034
0.394193
0.394049
0.394131
0.394222
0.394165
0.39417
0.394189
0.394206
0.394176
0.394111
0.393901
0.393974
0.394094
0.394009
0.393991
0.393951
0.393958
0.393898
0.394032
0.394107
0.393955
0.394045
0.394091
0.394059
0.393972
0.393965
0.394183
0.394199
0.39416
0.394162
0.394144
0.394111
0.394105
0.393973
0.393976
0.39409
0.39411
0.394062
0.394114
0.394162
0.394154
0.394153
0.394073
0.394063
0.39394
0.394035
0.394089
0.394035
0.394029
0.393907
0.39398
0.39401
0.393968
0.393851
0.38298
0.391062
0.393777
0.394303
0.394261
0.394258
0.394219
0.394287
0.394322
0.394248
0.394281
0.394243
0.394136
0.394114
0.394131
0.394164
0.394168
0.393967
0.394017
0.394234
0.394161
0.394273
0.39432
0.394231
0.394264
0.394217
0.394064
0.394152
0.394234
0.39401
0.394083
0.394264
0.394157
0.394234
0.394316
0.394249
0.394254
0.394257
0.394223
0.394173
0.394045
0.394091
0.394137
0.394091
0.394012
0.393945
0.394047
0.394072
0.39398
0.394062
0.39411
0.393881
0.393969
0.394112
0.393966
0.394046
0.39415
0.394099
0.394112
0.394102
0.393954
0.394039
0.394141
0.393936
0.394033
0.394102
0.393909
0.393991
0.394128
0.393973
0.394058
0.39416
0.394084
0.394095
0.394045
0.394095
0.394128
0.394035
0.394032
0.394031
0.393927
0.394033
0.394116
0.394003
0.394076
0.394094
0.393995
0.394071
0.394095
0.393844
0.382977
0.391087
0.393638
0.393972
0.39395
0.393849
0.393955
0.394089
0.394031
0.394024
0.393887
0.394035
0.394238
0.394103
0.394197
0.394247
0.39415
0.394152
0.394136
0.394146
0.394137
0.393995
0.394064
0.394143
0.393918
0.394011
0.394192
0.39412
0.394111
0.394044
0.394172
0.394292
0.394213
0.394244
0.394193
0.39399
0.394054
0.394126
0.393897
0.394004
0.394133
0.393932
0.394051
0.39417
0.393983
0.394106
0.394213
0.394116
0.394148
0.394101
0.393965
0.39404
0.394086
0.394088
0.394088
0.393839
0.393907
0.394094
0.394059
0.394015
0.393817
0.393897
0.394089
0.394107
0.39406
0.393974
0.393905
0.393968
0.39421
0.394135
0.394192
0.394208
0.394138
0.394151
0.394157
0.394015
0.394096
0.39415
0.393984
0.394058
0.394134
0.394089
0.394114
0.394125
0.394108
0.394113
0.3941
0.394077
0.394016
0.393816
0.38296
0.391143
0.393637
0.393981
0.394001
0.393919
0.393987
0.39402
0.393876
0.393905
0.394253
0.394566
0.394638
0.39461
0.394573
0.394586
0.394551
0.394462
0.394419
0.394382
0.394375
0.394352
0.39431
0.394352
0.394362
0.394312
0.394143
0.394204
0.394276
0.39425
0.394179
0.394226
0.394282
0.39408
0.3942
0.394297
0.39412
0.39422
0.394304
0.394229
0.394237
0.394176
0.394243
0.394274
0.394195
0.394179
0.394141
0.394143
0.394154
0.394149
0.394081
0.394086
0.394089
0.39389
0.393969
0.394078
0.394073
0.39407
0.393831
0.393904
0.394044
0.393888
0.393983
0.394026
0.393985
0.393868
0.393915
0.394051
0.393902
0.393973
0.394006
0.393849
0.393938
0.394071
0.394051
0.394048
0.393877
0.394015
0.394142
0.3941
0.394127
0.394107
0.394009
0.394047
0.394109
0.394065
0.394026
0.394053
0.394078
0.393835
0.382979
0.391065
0.393748
0.394437
0.394585
0.394614
0.39462
0.394624
0.394627
0.394632
0.394638
0.394643
0.394653
0.394614
0.394574
0.394587
0.394553
0.394466
0.394422
0.394385
0.394373
0.394348
0.39431
0.394343
0.394365
0.39433
0.394143
0.39418
0.394248
0.394076
0.394197
0.394287
0.394089
0.39421
0.394307
0.39413
0.394197
0.394387
0.394395
0.394431
0.394391
0.394302
0.394375
0.3944
0.394332
0.394335
0.394346
0.394348
0.394314
0.394241
0.394218
0.394143
0.394117
0.394092
0.394111
0.394096
0.394059
0.394029
0.393906
0.393974
0.394177
0.394155
0.394144
0.394113
0.39411
0.393969
0.394061
0.394108
0.393976
0.394
0.393951
0.393912
0.393817
0.393917
0.39406
0.394067
0.394067
0.393832
0.393874
0.394126
0.394172
0.394135
0.394103
0.39408
0.39385
0.393841
0.39404
0.394087
0.394031
0.393828
0.382972
0.391118
0.393658
0.394041
0.394042
0.394056
0.394008
0.393883
0.393891
0.394227
0.394555
0.394631
0.394604
0.394569
0.394582
0.394544
0.394511
0.394462
0.394428
0.394375
0.394384
0.394406
0.394383
0.394345
0.394311
0.394304
0.394139
0.394181
0.394253
0.394081
0.394203
0.39429
0.394091
0.394211
0.394307
0.394129
0.394193
0.394384
0.394397
0.394416
0.394315
0.394313
0.394325
0.394239
0.394234
0.394224
0.394207
0.393992
0.394033
0.394072
0.393871
0.393954
0.394001
0.393803
0.393888
0.394091
0.394057
0.394013
0.393815
0.393894
0.394089
0.394055
0.394012
0.393814
0.393862
0.394118
0.394156
0.394118
0.394092
0.394094
0.394004
0.393875
0.394026
0.394181
0.39417
0.39417
0.394131
0.394068
0.394054
0.394139
0.394099
0.394117
0.394143
0.394181
0.394173
0.394128
0.393925
0.393967
0.394048
0.393803
0.382953
0.391165
0.393599
0.393788
0.393949
0.394048
0.39383
0.393919
0.394148
0.394177
0.394131
0.393898
0.39398
0.394184
0.394208
0.394163
0.393931
0.394017
0.394176
0.39409
0.394127
0.394138
0.39403
0.394077
0.394237
0.394219
0.394162
0.394224
0.394271
0.394051
0.394165
0.394283
0.39418
0.394129
0.394157
0.394172
0.39413
0.394019
0.394055
0.39408
0.393852
0.393948
0.394058
0.393841
0.393937
0.394019
0.393805
0.393897
0.394052
0.39394
0.393966
0.39391
0.393869
0.393774
0.393892
0.393994
0.393774
0.393861
0.394007
0.393957
0.39395
0.393778
0.393875
0.394041
0.39391
0.393881
0.393991
0.394031
0.393973
0.394012
0.393965
0.393821
0.393909
0.394005
0.393785
0.393872
0.39402
0.393999
0.393995
0.393798
0.393888
0.394025
0.393974
0.393966
0.393794
0.393782
0.39404
0.394122
0.394068
0.393893
0.382964
0.391115
0.393719
0.39409
0.394087
0.394086
0.393919
0.394
0.394299
0.394268
0.394279
0.39424
0.394294
0.394324
0.394235
0.394268
0.394347
0.394337
0.394274
0.394067
0.394055
0.394194
0.394268
0.394227
0.393992
0.394075
0.394224
0.394136
0.394164
0.394097
0.394195
0.394305
0.394215
0.394212
0.394201
0.394009
0.394058
0.394118
0.393886
0.393991
0.394117
0.393915
0.394035
0.394151
0.393964
0.39407
0.394173
0.394146
0.39414
0.393945
0.394022
0.39407
0.393876
0.393954
0.394076
0.394032
0.393881
0.393894
0.393988
0.393955
0.393949
0.393778
0.393889
0.394021
0.393924
0.393919
0.393813
0.393933
0.39421
0.394166
0.39421
0.394162
0.394166
0.394176
0.394069
0.39414
0.394198
0.394176
0.394191
0.39416
0.394139
0.394156
0.394157
0.393948
0.394025
0.394103
0.393955
0.393948
0.393947
0.393832
0.382963
0.391126
0.393689
0.394126
0.394171
0.39414
0.394132
0.394013
0.393957
0.394213
0.394555
0.394631
0.394654
0.394617
0.394581
0.394595
0.394562
0.394475
0.394435
0.394452
0.394452
0.394467
0.394449
0.394427
0.394362
0.39414
0.394185
0.394261
0.394035
0.394123
0.394182
0.393956
0.394058
0.39416
0.393933
0.394039
0.394161
0.393955
0.394072
0.394184
0.393992
0.394112
0.394215
0.394116
0.394147
0.3941
0.39396
0.394033
0.394073
0.394047
0.39404
0.393882
0.39383
0.393962
0.394023
0.394007
0.39403
0.393997
0.393882
0.39393
0.394034
0.394014
0.394012
0.393921
0.393878
0.393885
0.393849
0.394006
0.394105
0.394059
0.394049
0.393847
0.393939
0.39404
0.393936
0.393929
0.393822
0.39398
0.394134
0.394026
0.394052
0.394
0.394022
0.394031
0.394011
0.394006
0.393977
0.394036
0.394052
0.393833
0.382979
0.391064
0.393747
0.394435
0.394584
0.394612
0.394619
0.394623
0.394626
0.394633
0.39464
0.394645
0.394656
0.394619
0.394583
0.394598
0.394563
0.394481
0.394436
0.394444
0.394452
0.394434
0.394346
0.394335
0.394357
0.39433
0.394169
0.394221
0.394285
0.394105
0.394222
0.394303
0.3941
0.394144
0.394372
0.394377
0.394355
0.394343
0.394254
0.394304
0.394364
0.394323
0.39431
0.394272
0.394289
0.394305
0.39424
0.394155
0.394166
0.394184
0.394156
0.394148
0.393974
0.394057
0.394143
0.394053
0.394052
0.393969
0.394102
0.394189
0.394082
0.394079
0.394009
0.394117
0.394168
0.393983
0.394068
0.394115
0.393978
0.394
0.39395
0.39391
0.393815
0.393915
0.394059
0.394066
0.394066
0.393831
0.393905
0.3941
0.394066
0.394023
0.393826
0.393873
0.394127
0.39418
0.394143
0.394106
0.394074
0.393837
0.382954
0.391154
0.393654
0.393944
0.393931
0.393883
0.394017
0.394151
0.394035
0.394026
0.394025
0.39393
0.394005
0.394146
0.394127
0.394126
0.394052
0.393998
0.394119
0.394348
0.394221
0.394296
0.394388
0.39433
0.394331
0.394325
0.394226
0.394176
0.394158
0.394078
0.394219
0.394305
0.394103
0.39414
0.394367
0.394381
0.394361
0.39436
0.394376
0.394337
0.394319
0.394329
0.394302
0.39428
0.394256
0.394219
0.394154
0.393943
0.393987
0.394142
0.394026
0.394085
0.394105
0.394053
0.393896
0.393863
0.393999
0.39408
0.394044
0.393996
0.393894
0.393996
0.394125
0.393979
0.393964
0.393954
0.394028
0.39404
0.39402
0.394037
0.393922
0.394007
0.394197
0.394058
0.394135
0.394244
0.394226
0.394246
0.394235
0.394179
0.394016
0.393951
0.393985
0.393966
0.394078
0.394184
0.394135
0.394143
0.39409
0.393874
0.382979
0.391064
0.393748
0.394436
0.394584
0.394613
0.394619
0.394623
0.394627
0.394634
0.39464
0.394646
0.394657
0.394621
0.394586
0.394601
0.394568
0.394487
0.394465
0.394485
0.394471
0.394486
0.394461
0.394405
0.394343
0.394144
0.394209
0.394287
0.394161
0.394151
0.394148
0.394036
0.394105
0.394169
0.393934
0.394037
0.394156
0.393948
0.394062
0.394171
0.393979
0.3941
0.394198
0.394062
0.394075
0.394032
0.394088
0.394171
0.394164
0.394163
0.39408
0.394011
0.39399
0.393973
0.393925
0.393836
0.393901
0.394239
0.394293
0.394274
0.394249
0.394218
0.394218
0.394218
0.394204
0.394005
0.39406
0.394107
0.393974
0.393998
0.393949
0.393909
0.393815
0.393914
0.394058
0.394065
0.394066
0.393831
0.393905
0.3941
0.394066
0.394023
0.393825
0.393908
0.394053
0.393996
0.393982
0.393954
0.39395
0.393782
0.382996
0.391009
0.39376
0.394223
0.394221
0.394206
0.394234
0.394265
0.394199
0.394192
0.394147
0.39399
0.393989
0.39417
0.394217
0.394162
0.393958
0.394036
0.3942
0.394184
0.394163
0.394163
0.394188
0.394188
0.394129
0.394167
0.394248
0.394018
0.394102
0.39428
0.394265
0.394231
0.394268
0.39429
0.394153
0.394176
0.394108
0.394077
0.394061
0.393911
0.393976
0.39405
0.393822
0.393914
0.394086
0.393905
0.393997
0.394083
0.394081
0.394081
0.394043
0.393938
0.393901
0.394225
0.394488
0.39449
0.394454
0.394461
0.394426
0.394392
0.394324
0.394294
0.394276
0.394239
0.394238
0.394239
0.394198
0.394074
0.394129
0.394161
0.393959
0.394049
0.394103
0.394073
0.394071
0.394016
0.394007
0.393981
0.39392
0.394022
0.394126
0.394109
0.394107
0.39396
0.394053
0.3941
0.394004
0.394004
0.393998
0.393838
0.382995
0.391019
0.393709
0.394419
0.39458
0.394612
0.39462
0.394624
0.394628
0.394634
0.394641
0.394649
0.39466
0.394624
0.394593
0.394555
0.394526
0.394529
0.394502
0.39448
0.394352
0.394373
0.394401
0.394305
0.394281
0.394309
0.394315
0.394092
0.394159
0.394235
0.394207
0.394197
0.393974
0.394046
0.394086
0.394067
0.39406
0.393845
0.393944
0.394054
0.393831
0.393936
0.394067
0.393983
0.393972
0.393827
0.393938
0.39409
0.394064
0.394071
0.394005
0.39388
0.393888
0.394277
0.39441
0.394399
0.394411
0.394374
0.39432
0.394292
0.394275
0.394239
0.394242
0.394244
0.394204
0.394196
0.394188
0.394017
0.39406
0.394087
0.393996
0.394002
0.393931
0.39391
0.393802
0.393897
0.394103
0.394068
0.394025
0.393978
0.39391
0.394014
0.394142
0.394124
0.394155
0.394098
0.394061
0.394092
0.394095
0.393853
0.38298
0.391064
0.393748
0.394437
0.394586
0.394614
0.39462
0.394624
0.394629
0.394636
0.394644
0.39465
0.394659
0.394671
0.394636
0.394606
0.39457
0.394542
0.394546
0.394522
0.394454
0.394425
0.394414
0.394433
0.39441
0.394195
0.394232
0.394309
0.394123
0.394198
0.394221
0.394016
0.394102
0.39417
0.393932
0.394033
0.394146
0.393936
0.39405
0.394158
0.393965
0.394074
0.394206
0.39414
0.394165
0.394151
0.394172
0.394112
0.394068
0.394059
0.393939
0.393961
0.394316
0.394415
0.394399
0.394414
0.394379
0.394326
0.394297
0.394277
0.394298
0.394227
0.394197
0.394196
0.394121
0.394141
0.394146
0.394115
0.394137
0.394105
0.394103
0.394053
0.393859
0.393917
0.394051
0.394063
0.394065
0.39383
0.393908
0.394051
0.394013
0.394009
0.394004
0.394
0.393804
0.393841
0.394063
0.39409
0.394033
0.393829
0.382995
0.391019
0.393708
0.39442
0.39458
0.394612
0.394619
0.394624
0.39463
0.394636
0.394643
0.394654
0.394617
0.394586
0.394548
0.394521
0.394524
0.394496
0.394474
0.394348
0.39438
0.394414
0.394303
0.394298
0.394293
0.394137
0.394192
0.394266
0.394035
0.394141
0.394266
0.39406
0.39412
0.39421
0.394205
0.3942
0.394063
0.393975
0.394007
0.394028
0.393899
0.393988
0.394038
0.393806
0.393897
0.393978
0.393766
0.393873
0.393995
0.393896
0.39389
0.393785
0.393865
0.39428
0.394445
0.394437
0.394449
0.394428
0.394394
0.394329
0.394298
0.394279
0.394299
0.394234
0.394209
0.394184
0.394198
0.3942
0.394151
0.394118
0.394118
0.394131
0.394071
0.393981
0.393934
0.393878
0.394014
0.394109
0.394082
0.394077
0.393885
0.393977
0.394046
0.393947
0.39398
0.393989
0.393875
0.393952
0.394044
0.3938
0.382995
0.391019
0.393711
0.394401
0.394409
0.394383
0.394346
0.394352
0.394359
0.394328
0.394311
0.394181
0.394208
0.394292
0.394261
0.39424
0.39405
0.394052
0.394222
0.394143
0.394257
0.394375
0.394383
0.394385
0.394145
0.394205
0.394279
0.394051
0.394144
0.394216
0.39399
0.394092
0.394185
0.393951
0.394051
0.394165
0.394035
0.394035
0.394032
0.393911
0.393976
0.394036
0.393948
0.393949
0.393901
0.393898
0.39387
0.393821
0.393904
0.394317
0.394485
0.394518
0.394527
0.394529
0.394531
0.394533
0.394535
0.394537
0.394539
0.394544
0.3945
0.394464
0.39447
0.394442
0.394413
0.394338
0.394307
0.394321
0.394288
0.3943
0.394284
0.394202
0.394205
0.394209
0.394163
0.394034
0.394082
0.394121
0.393984
0.394005
0.393956
0.393931
0.393944
0.393893
0.393957
0.394064
0.394017
0.39403
0.394015
0.393844
0.382974
0.391086
0.393672
0.394036
0.393945
0.393939
0.393878
0.393981
0.394063
0.393842
0.393939
0.39413
0.393949
0.394044
0.394112
0.394037
0.393999
0.394102
0.394389
0.394312
0.394409
0.394457
0.394354
0.394348
0.394343
0.39419
0.394255
0.394326
0.394098
0.39419
0.394311
0.394111
0.394215
0.394313
0.394132
0.394232
0.394279
0.394208
0.394208
0.394134
0.394184
0.394196
0.394136
0.394139
0.394112
0.393898
0.393863
0.393942
0.393911
0.393921
0.393923
0.393828
0.393885
0.394014
0.393907
0.393898
0.39385
0.393854
0.393763
0.393875
0.39398
0.393762
0.393864
0.393974
0.393757
0.393794
0.393991
0.393929
0.394047
0.394113
0.393995
0.394007
0.393999
0.394003
0.393852
0.39392
0.394058
0.394065
0.394065
0.393831
0.393908
0.394051
0.393965
0.393971
0.393972
0.393871
0.393928
0.394055
0.394026
0.393938
0.38298
0.391064
0.393748
0.394438
0.394587
0.394614
0.394619
0.394624
0.394632
0.394593
0.39456
0.39452
0.39449
0.394492
0.394465
0.394399
0.394373
0.394362
0.394376
0.394398
0.394411
0.394352
0.394125
0.394164
0.394295
0.394248
0.39424
0.394078
0.394195
0.394272
0.394239
0.394146
0.394161
0.394183
0.394126
0.394123
0.394022
0.394046
0.39405
0.393999
0.394009
0.393992
0.393816
0.393893
0.394063
0.393999
0.394012
0.394015
0.393984
0.39393
0.394139
0.39445
0.394512
0.394524
0.394528
0.394531
0.394533
0.394534
0.394537
0.394539
0.394542
0.394544
0.394541
0.394497
0.394476
0.39448
0.394468
0.394443
0.39441
0.394346
0.394316
0.394288
0.394302
0.394283
0.394252
0.394169
0.39413
0.394124
0.39401
0.394052
0.394126
0.393952
0.394056
0.39412
0.39398
0.393985
0.393935
0.393982
0.393991
0.393817
0.38298
0.391064
0.393748
0.394437
0.394586
0.394614
0.39462
0.394624
0.39463
0.394636
0.394644
0.394653
0.394666
0.394632
0.394602
0.394566
0.394541
0.394545
0.394522
0.394469
0.394445
0.394428
0.394442
0.394456
0.394441
0.394232
0.394268
0.394344
0.394161
0.394242
0.39427
0.394111
0.394232
0.394318
0.394133
0.394213
0.394334
0.394278
0.394305
0.3943
0.394298
0.394259
0.394233
0.394233
0.39421
0.39416
0.394128
0.394075
0.393894
0.393878
0.394165
0.394457
0.394512
0.394523
0.394527
0.39453
0.394532
0.394535
0.394537
0.39454
0.394542
0.394543
0.394545
0.394547
0.394553
0.394507
0.394481
0.394486
0.394436
0.3944
0.39438
0.394396
0.394332
0.394301
0.394288
0.394309
0.394255
0.394225
0.394223
0.394239
0.39419
0.394028
0.394095
0.39414
0.393954
0.39404
0.394085
0.394071
0.394068
0.393846
0.382967
0.391116
0.393687
0.394027
0.393968
0.394094
0.394128
0.393908
0.393994
0.394069
0.393849
0.393829
0.394125
0.394553
0.394623
0.394612
0.394581
0.394556
0.39456
0.394539
0.394461
0.394466
0.39447
0.394285
0.394339
0.394387
0.394239
0.394232
0.394204
0.394206
0.394066
0.394141
0.394197
0.393954
0.394052
0.394159
0.393946
0.393978
0.394253
0.394258
0.394245
0.394212
0.394215
0.394231
0.394193
0.394165
0.394097
0.394057
0.393988
0.393956
0.393949
0.393971
0.393975
0.39388
0.393919
0.394276
0.3943
0.394284
0.394263
0.394224
0.394237
0.394188
0.394192
0.394198
0.394212
0.394172
0.394136
0.394126
0.394106
0.394069
0.394036
0.393912
0.393984
0.394221
0.394214
0.394224
0.394147
0.394191
0.394201
0.394016
0.39408
0.394114
0.393941
0.393988
0.394004
0.393963
0.393851
0.393941
0.394044
0.393801
0.382979
0.391064
0.393748
0.394437
0.394589
0.394569
0.394534
0.39454
0.394492
0.39446
0.394461
0.394433
0.39435
0.394307
0.394307
0.394283
0.394241
0.394254
0.394276
0.394275
0.394095
0.394162
0.394277
0.394251
0.394225
0.394267
0.394305
0.394053
0.394134
0.394225
0.394189
0.394085
0.394106
0.394129
0.394049
0.39403
0.393816
0.393913
0.394041
0.393824
0.393917
0.39399
0.393772
0.393872
0.393959
0.393734
0.393824
0.393997
0.393825
0.393872
0.393949
0.393941
0.39394
0.393791
0.393868
0.394009
0.393943
0.393914
0.393977
0.394009
0.393972
0.393867
0.393907
0.393987
0.393767
0.393872
0.394012
0.39379
0.393887
0.393989
0.393891
0.393834
0.39396
0.394058
0.393925
0.39391
0.393907
0.393909
0.393784
0.393877
0.394021
0.393991
0.393986
0.393799
0.393903
0.393999
0.393779
0.393883
0.393996
0.393768
0.382979
0.391064
0.393748
0.394437
0.394586
0.394614
0.39462
0.394625
0.39463
0.394638
0.394648
0.394612
0.39458
0.394542
0.394515
0.394519
0.394493
0.394466
0.394436
0.394418
0.394399
0.394347
0.394318
0.39431
0.394151
0.39421
0.394291
0.394063
0.394156
0.39423
0.393989
0.394072
0.394143
0.393889
0.393962
0.394121
0.394124
0.394119
0.393868
0.393945
0.394031
0.393919
0.393906
0.393795
0.393919
0.394088
0.393962
0.394038
0.394073
0.394021
0.393864
0.393915
0.393967
0.393738
0.393829
0.394009
0.393863
0.393935
0.393968
0.393806
0.393892
0.394073
0.394092
0.394044
0.393809
0.393906
0.394023
0.393795
0.393887
0.393995
0.393777
0.393883
0.394022
0.394014
0.394012
0.393808
0.393901
0.394
0.393811
0.393903
0.394034
0.393885
0.39396
0.393995
0.393956
0.393848
0.393931
0.394041
0.394018
0.393956
0.382979
0.391064
0.393748
0.394437
0.394585
0.394614
0.394619
0.394625
0.39463
0.394636
0.394644
0.394654
0.394664
0.394678
0.394645
0.394616
0.394583
0.394557
0.394561
0.394538
0.39449
0.394466
0.394488
0.394507
0.394478
0.394421
0.394245
0.39428
0.39436
0.394322
0.394315
0.394164
0.394264
0.394325
0.394136
0.394232
0.394277
0.39418
0.394189
0.394128
0.394147
0.39422
0.394184
0.394138
0.394019
0.394036
0.394048
0.393967
0.393887
0.393954
0.394349
0.39449
0.394518
0.394523
0.394526
0.394529
0.394532
0.394534
0.394536
0.394539
0.394541
0.394543
0.394546
0.394529
0.394488
0.394464
0.394433
0.394397
0.394383
0.394398
0.394339
0.394311
0.394287
0.394302
0.394284
0.394202
0.394206
0.394209
0.394163
0.394036
0.394081
0.394116
0.394082
0.394079
0.394025
0.394011
0.393827
0.393924
0.394039
0.393799
0.38298
0.391064
0.393748
0.394437
0.394587
0.394614
0.39462
0.394625
0.39463
0.394637
0.394645
0.394654
0.394667
0.394633
0.394602
0.394567
0.39454
0.394545
0.39452
0.394501
0.394376
0.394385
0.394472
0.39443
0.394386
0.394205
0.394275
0.394339
0.394125
0.394221
0.394324
0.394121
0.394229
0.394318
0.394134
0.394213
0.394334
0.394278
0.394305
0.394301
0.394299
0.39426
0.394233
0.394233
0.394211
0.394161
0.394128
0.394076
0.393895
0.393879
0.394165
0.394457
0.394513
0.394524
0.394527
0.394529
0.394532
0.394534
0.394537
0.394543
0.394498
0.394475
0.394484
0.394425
0.394391
0.394368
0.39438
0.394331
0.39431
0.394312
0.394335
0.394298
0.39424
0.394066
0.39411
0.394166
0.394008
0.394094
0.394195
0.394105
0.394102
0.394105
0.394083
0.394093
0.394033
0.394001
0.393895
0.393972
0.394015
0.393792
0.38298
0.391064
0.393748
0.394437
0.394586
0.394614
0.394619
0.394625
0.394633
0.394593
0.394559
0.39452
0.39449
0.394491
0.394459
0.394431
0.394385
0.394351
0.394328
0.394248
0.394204
0.3942
0.394079
0.39416
0.3943
0.394286
0.394262
0.394302
0.394334
0.394241
0.394228
0.394158
0.394149
0.394151
0.394141
0.393959
0.394023
0.394087
0.394027
0.394021
0.394008
0.393996
0.3938
0.39389
0.394063
0.393966
0.394007
0.394021
0.393964
0.393939
0.394145
0.394451
0.394512
0.394524
0.394528
0.394531
0.394533
0.394534
0.394538
0.394522
0.394481
0.394457
0.394426
0.39439
0.394381
0.394344
0.39436
0.394389
0.394356
0.394377
0.394331
0.394276
0.394243
0.394125
0.394198
0.394259
0.394184
0.394193
0.394114
0.394088
0.394085
0.393986
0.394062
0.394109
0.393916
0.394017
0.39408
0.394041
0.394032
0.393814
0.382974
0.391086
0.393671
0.394039
0.393949
0.393945
0.393884
0.393916
0.394093
0.394169
0.394117
0.393914
0.393993
0.394155
0.39413
0.394128
0.394024
0.393976
0.394141
0.394382
0.394257
0.394359
0.394407
0.394282
0.394351
0.394368
0.394206
0.394272
0.394352
0.394238
0.39423
0.39415
0.394253
0.394322
0.394135
0.394214
0.394339
0.394336
0.394335
0.394304
0.394303
0.394264
0.394266
0.394248
0.394204
0.394131
0.393896
0.393862
0.393944
0.393848
0.393839
0.393832
0.393844
0.393754
0.393866
0.393969
0.393751
0.39382
0.394008
0.393993
0.393989
0.393805
0.393883
0.394077
0.394098
0.394051
0.393965
0.393898
0.393946
0.394219
0.39419
0.394274
0.394296
0.394231
0.394237
0.394223
0.394233
0.394184
0.394012
0.394065
0.39418
0.394027
0.394076
0.394199
0.394192
0.394177
0.39397
0.393995
0.394018
0.393793
0.382996
0.391009
0.39376
0.394223
0.394151
0.394131
0.394226
0.394256
0.394154
0.394146
0.394141
0.393991
0.394049
0.394146
0.394144
0.394145
0.393933
0.394064
0.394239
0.394229
0.394252
0.394217
0.394197
0.394202
0.394142
0.394191
0.394272
0.394041
0.394141
0.394274
0.394062
0.394149
0.394304
0.394239
0.394231
0.394156
0.394199
0.394215
0.394165
0.393951
0.393985
0.394037
0.393948
0.393948
0.3939
0.393902
0.393875
0.39382
0.393965
0.39413
0.393959
0.394061
0.394123
0.393947
0.393984
0.394304
0.394374
0.394318
0.394309
0.394318
0.39434
0.394284
0.394296
0.394252
0.394173
0.394145
0.394103
0.394107
0.394135
0.394105
0.394102
0.394052
0.39386
0.393918
0.394051
0.394063
0.394064
0.393829
0.393906
0.394051
0.393903
0.39394
0.393948
0.39392
0.393889
0.393891
0.393952
0.393915
0.393872
0.393762
0.382996
0.391009
0.393759
0.394222
0.394188
0.394162
0.394221
0.394264
0.394157
0.394147
0.394142
0.393991
0.394048
0.394145
0.394118
0.394115
0.393923
0.394055
0.394281
0.394303
0.394258
0.394026
0.394124
0.394219
0.393999
0.394111
0.394252
0.394032
0.394135
0.39427
0.394071
0.394169
0.394225
0.394163
0.394153
0.394013
0.39408
0.394158
0.394104
0.393932
0.393968
0.394034
0.393809
0.393902
0.393985
0.393971
0.393971
0.393867
0.394082
0.394439
0.39447
0.39444
0.394414
0.394377
0.394373
0.39433
0.39429
0.394372
0.394395
0.394368
0.394375
0.394325
0.394295
0.394281
0.394301
0.394288
0.394201
0.394197
0.394199
0.394153
0.394026
0.394072
0.394108
0.394075
0.394072
0.39402
0.394006
0.393822
0.393905
0.394057
0.393906
0.393889
0.393881
0.393889
0.393797
0.393908
0.394009
0.393948
0.393937
0.393752
0.38298
0.391064
0.393748
0.394437
0.394585
0.394614
0.39462
0.394624
0.394628
0.394635
0.394641
0.394651
0.394659
0.394672
0.394637
0.394607
0.39457
0.394542
0.394546
0.394522
0.394455
0.394427
0.394415
0.394433
0.394412
0.394206
0.394254
0.394319
0.3941
0.394214
0.394322
0.394124
0.39418
0.394341
0.394324
0.394248
0.3943
0.394353
0.394215
0.394297
0.394377
0.394352
0.394337
0.394302
0.394252
0.394167
0.39411
0.394074
0.394076
0.394076
0.39392
0.39394
0.394267
0.394407
0.394354
0.394357
0.394361
0.394335
0.394301
0.394279
0.394299
0.394228
0.394197
0.394197
0.394121
0.394131
0.394134
0.394113
0.394137
0.394105
0.394103
0.394053
0.39386
0.393917
0.394051
0.394064
0.394065
0.39383
0.393872
0.394125
0.39417
0.394132
0.394102
0.394078
0.393849
0.393839
0.394038
0.394087
0.394031
0.393829
0.382995
0.391018
0.393709
0.394421
0.394582
0.394613
0.39462
0.394623
0.394629
0.394635
0.394642
0.394649
0.394658
0.39467
0.394635
0.394604
0.394566
0.394538
0.394542
0.394515
0.394485
0.394451
0.394432
0.394406
0.394406
0.394355
0.394258
0.394277
0.394232
0.394107
0.394234
0.394313
0.394108
0.394134
0.394351
0.394364
0.39433
0.394322
0.394232
0.394291
0.394357
0.394269
0.394292
0.394282
0.394297
0.394224
0.394188
0.394207
0.394225
0.394194
0.39414
0.393968
0.394016
0.394265
0.394229
0.394267
0.394274
0.394166
0.394214
0.394408
0.394432
0.394402
0.39438
0.394395
0.394333
0.394239
0.394228
0.39429
0.394259
0.394234
0.394255
0.394226
0.394184
0.394106
0.394084
0.394002
0.394043
0.394084
0.39406
0.394057
0.393896
0.394003
0.394082
0.393898
0.394001
0.394067
0.393861
0.393953
0.394047
0.393802
0.382995
0.391019
0.393711
0.394402
0.394413
0.394386
0.394391
0.394275
0.394323
0.39435
0.394265
0.394284
0.394256
0.394154
0.394162
0.394167
0.393997
0.394042
0.394245
0.394272
0.394216
0.394011
0.394101
0.394193
0.393974
0.394089
0.394233
0.394021
0.394121
0.394203
0.394175
0.394099
0.394138
0.394215
0.394212
0.394207
0.393939
0.394008
0.394084
0.393854
0.393958
0.394086
0.393913
0.39399
0.394019
0.393992
0.393931
0.394008
0.394093
0.393977
0.393966
0.393898
0.393984
0.394353
0.394385
0.394363
0.394389
0.394358
0.394339
0.394242
0.394279
0.39436
0.394337
0.394329
0.39431
0.394282
0.394261
0.394232
0.394121
0.394196
0.394256
0.39421
0.394246
0.394188
0.394166
0.39412
0.394123
0.39401
0.394075
0.394116
0.393962
0.393935
0.394015
0.394028
0.393895
0.394004
0.394083
0.394055
0.394048
0.393809
0.382979
0.391064
0.393748
0.394436
0.394584
0.394613
0.394619
0.394623
0.394627
0.394634
0.39464
0.394647
0.394655
0.394667
0.394631
0.394599
0.39456
0.394531
0.394534
0.394509
0.394424
0.394384
0.39438
0.394234
0.394281
0.394333
0.394173
0.394245
0.394287
0.394235
0.394079
0.394127
0.394188
0.393951
0.394054
0.394172
0.393963
0.394078
0.394185
0.393992
0.394111
0.394207
0.394033
0.39414
0.394209
0.39412
0.394156
0.394226
0.394213
0.394183
0.394197
0.394146
0.393975
0.394053
0.394234
0.39415
0.394146
0.394105
0.394165
0.394261
0.394229
0.394107
0.394162
0.394208
0.394087
0.394141
0.394157
0.39411
0.394159
0.394182
0.394121
0.394096
0.393879
0.393913
0.394049
0.394056
0.394057
0.39383
0.393905
0.3941
0.394066
0.394023
0.393825
0.393908
0.394053
0.393995
0.393982
0.393953
0.393949
0.393781
0.382966
0.391138
0.393635
0.393991
0.393928
0.39393
0.393846
0.39389
0.394011
0.393932
0.393939
0.393883
0.39398
0.394421
0.394544
0.394525
0.394539
0.394484
0.39446
0.394477
0.394466
0.39448
0.394451
0.394387
0.394328
0.394142
0.394212
0.394292
0.394077
0.394193
0.394306
0.394112
0.394158
0.394345
0.394327
0.394377
0.394385
0.394257
0.394331
0.394362
0.394261
0.394281
0.394281
0.394255
0.394213
0.394201
0.394005
0.394037
0.39407
0.393898
0.393971
0.394078
0.394
0.393998
0.393992
0.393877
0.393818
0.393938
0.393998
0.393953
0.393815