/*--------------------------------*- C++ -*----------------------------------*\
  =========                 |
  \\      /  F ield         | OpenFOAM: The Open Source CFD Toolbox
   \\    /   O peration     | Website:  https://openfoam.org
    \\  /    A nd           | Version:  11
     \\/     M anipulation  |
\*---------------------------------------------------------------------------*/
FoamFile
{
    format      ascii;
    class       volScalarField;
    location    "0.022";
    object      nut;
}
// * * * * * * * * * * * * * * * * * * * * * * * * * * * * * * * * * * * * * //

dimensions      [0 2 -1 0 0 0 0];

internalField   nonuniform List<scalar> 
287084
(
0.000839817
0.000858479
0.000864883
0.000865983
0.000866144
0.000866219
0.000865828
0.000865975
0.000866342
0.000866361
0.000866221
0.000865927
0.000865715
0.000865906
0.00086635
0.000866006
0.000866139
0.000866271
0.000866122
0.000866163
0.000866018
0.000865864
0.000865858
0.000865711
0.000865283
0.000865383
0.000865665
0.000865631
0.000865644
0.000865195
0.00086546
0.000865721
0.000865265
0.000865555
0.0008659
0.000865875
0.000865792
0.000866028
0.000866339
0.000866012
0.000866299
0.000866484
0.0008661
0.000866389
0.000866684
0.00086623
0.000866499
0.000866797
0.000866825
0.00086686
0.000866801
0.000866633
0.000866743
0.000867018
0.000866641
0.000866799
0.000866887
0.000866851
0.000866704
0.000866893
0.000867118
0.000866673
0.000866884
0.000867073
0.000866837
0.000866819
0.000866693
0.000866915
0.000866996
0.000866906
0.000866719
0.000866863
0.000867169
0.000867109
0.000867027
0.000867032
0.000867081
0.000866805
0.000866923
0.000866968
0.000866907
0.00086688
0.000866452
0.000866583
0.000866884
0.000866451
0.000866671
0.000866838
0.000866758
0.00086653
0.00118687
0.00121231
0.00122104
0.00122255
0.00122246
0.00122256
0.00122253
0.00122257
0.00122225
0.00122207
0.00122199
0.00122141
0.0012215
0.00122164
0.00122083
0.00122106
0.0012214
0.00122066
0.00122052
0.00122148
0.00122194
0.00122175
0.0012216
0.00122158
0.00122163
0.00122123
0.0012214
0.00122145
0.00122103
0.00122119
0.0012213
0.00122077
0.00122116
0.00122161
0.00122103
0.00122143
0.00122211
0.00122208
0.0012223
0.00122238
0.00122234
0.00122186
0.00122222
0.00122271
0.00122278
0.00122286
0.00122213
0.00122242
0.00122275
0.00122207
0.00122238
0.001223
0.00122281
0.00122283
0.00122265
0.00122301
0.0012232
0.00122279
0.00122308
0.0012232
0.00122283
0.00122269
0.00122303
0.00122323
0.00122303
0.00122306
0.00122311
0.00122316
0.0012228
0.00122316
0.00122351
0.00122322
0.0012232
0.00122287
0.00122312
0.00122344
0.00122317
0.00122318
0.00122316
0.00122274
0.00122266
0.00122274
0.00122258
0.00122267
0.00122266
0.00122269
0.00122228
0.00122259
0.00122294
0.00122219
0.00118695
0.00121243
0.00122113
0.00122261
0.0012223
0.00122255
0.00122264
0.00122234
0.00122242
0.00122261
0.00122249
0.00122223
0.00122149
0.00122136
0.00122169
0.00122184
0.00122163
0.0012212
0.00122089
0.0012212
0.00122171
0.00122164
0.00122172
0.00122152
0.00122138
0.00122128
0.00122109
0.00122127
0.00122144
0.001221
0.00122143
0.00122179
0.00122128
0.00122177
0.00122221
0.0012218
0.00122233
0.00122272
0.00122249
0.00122272
0.00122268
0.00122268
0.00122273
0.00122285
0.00122303
0.00122301
0.00122311
0.00122323
0.00122311
0.00122261
0.0012226
0.0012229
0.00122302
0.001223
0.00122314
0.0012233
0.00122265
0.00122295
0.0012232
0.00122303
0.00122289
0.00122317
0.00122366
0.00122327
0.00122338
0.00122339
0.00122328
0.00122293
0.00122318
0.0012233
0.00122287
0.00122293
0.00122276
0.00122291
0.00122298
0.00122256
0.00122294
0.00122341
0.00122323
0.00122332
0.00122328
0.00122338
0.00122322
0.00122274
0.00122291
0.00122305
0.00122246
0.00122269
0.00122277
0.00122215
0.00118697
0.00121257
0.00122114
0.00122301
0.00122286
0.00122306
0.00122307
0.00122281
0.00122274
0.0012226
0.00122257
0.00122245
0.00122212
0.00122205
0.00122204
0.0012219
0.0012218
0.00122113
0.00122138
0.00122168
0.0012212
0.0012212
0.00122096
0.0012208
0.00122074
0.00122076
0.00122047
0.00122084
0.00122138
0.00122133
0.00122127
0.00122073
0.00122117
0.00122163
0.0012211
0.00122151
0.00122214
0.00122184
0.00122223
0.00122264
0.00122259
0.00122273
0.0012229
0.00122305
0.00122305
0.00122293
0.00122235
0.00122264
0.00122307
0.00122286
0.00122284
0.00122275
0.0012228
0.00122264
0.00122307
0.00122332
0.00122286
0.00122314
0.00122329
0.00122319
0.00122292
0.00122289
0.00122356
0.00122361
0.00122348
0.00122348
0.00122341
0.0012233
0.00122327
0.00122285
0.00122285
0.0012232
0.00122325
0.00122309
0.00122325
0.00122339
0.00122336
0.00122335
0.00122309
0.00122305
0.00122267
0.00122296
0.00122312
0.00122295
0.00122292
0.00122254
0.00122276
0.00122285
0.00122272
0.00122234
0.00118698
0.00121261
0.00122124
0.00122295
0.00122278
0.00122273
0.00122256
0.00122271
0.00122277
0.00122247
0.00122249
0.0012223
0.00122188
0.00122172
0.00122169
0.00122169
0.00122162
0.0012209
0.00122097
0.00122155
0.00122125
0.00122153
0.00122162
0.0012213
0.00122138
0.00122122
0.00122076
0.00122106
0.00122136
0.00122074
0.00122105
0.00122172
0.00122149
0.00122186
0.00122226
0.00122219
0.00122235
0.0012225
0.00122254
0.00122252
0.00122225
0.00122252
0.00122277
0.00122273
0.00122257
0.00122245
0.00122284
0.00122298
0.00122275
0.00122305
0.00122324
0.00122256
0.00122286
0.00122332
0.00122289
0.00122315
0.00122348
0.00122332
0.00122336
0.00122333
0.00122287
0.00122313
0.00122344
0.0012228
0.00122309
0.0012233
0.00122269
0.00122293
0.00122335
0.00122286
0.00122311
0.00122342
0.00122317
0.0012232
0.00122303
0.00122318
0.00122328
0.00122298
0.00122296
0.00122295
0.00122263
0.00122295
0.0012232
0.00122285
0.00122307
0.00122312
0.00122281
0.00122304
0.00122311
0.00122232
0.00118697
0.00121272
0.00122085
0.00122197
0.00122186
0.00122149
0.00122177
0.00122212
0.00122187
0.00122178
0.00122128
0.00122165
0.00122219
0.00122168
0.00122188
0.00122193
0.00122153
0.00122144
0.0012213
0.00122124
0.00122114
0.00122062
0.00122078
0.00122097
0.00122025
0.00122053
0.0012211
0.00122091
0.00122094
0.0012208
0.00122129
0.00122177
0.00122165
0.00122189
0.00122187
0.00122139
0.00122175
0.00122212
0.00122155
0.00122203
0.00122256
0.00122206
0.00122255
0.00122302
0.00122253
0.00122299
0.0012234
0.00122316
0.00122331
0.00122321
0.00122282
0.00122308
0.00122325
0.00122328
0.00122329
0.00122253
0.00122274
0.00122333
0.00122322
0.00122308
0.00122246
0.0012227
0.00122329
0.00122334
0.00122318
0.0012229
0.00122268
0.00122287
0.00122361
0.00122336
0.00122353
0.00122357
0.00122335
0.00122338
0.00122338
0.00122294
0.00122318
0.00122334
0.00122282
0.00122304
0.00122327
0.00122312
0.0012232
0.00122323
0.00122317
0.00122318
0.00122313
0.00122306
0.00122286
0.00122223
0.00118692
0.00121291
0.00122087
0.00122203
0.00122204
0.00122174
0.00122189
0.00122192
0.00122141
0.00122141
0.00122241
0.00122329
0.00122342
0.00122323
0.00122302
0.00122296
0.00122275
0.00122237
0.00122213
0.00122192
0.00122182
0.00122167
0.00122148
0.00122156
0.00122156
0.0012214
0.00122088
0.00122111
0.00122139
0.00122139
0.00122127
0.00122153
0.00122185
0.00122137
0.00122189
0.00122236
0.00122197
0.00122244
0.00122285
0.00122277
0.00122293
0.00122287
0.00122319
0.00122339
0.00122324
0.00122327
0.00122322
0.00122329
0.00122337
0.0012234
0.00122322
0.00122326
0.00122329
0.00122269
0.00122295
0.00122329
0.00122328
0.00122327
0.00122253
0.00122275
0.00122318
0.00122269
0.00122297
0.0012231
0.00122296
0.00122259
0.00122272
0.00122313
0.00122266
0.00122287
0.00122296
0.00122246
0.00122273
0.00122313
0.00122306
0.00122304
0.0012225
0.00122292
0.00122331
0.00122317
0.00122325
0.00122318
0.00122287
0.00122299
0.00122317
0.00122303
0.0012229
0.00122299
0.00122306
0.00122229
0.00118698
0.00121268
0.00122124
0.00122346
0.00122388
0.00122391
0.00122386
0.0012238
0.00122374
0.00122367
0.0012236
0.00122352
0.00122345
0.00122323
0.001223
0.00122293
0.00122271
0.00122233
0.00122209
0.00122188
0.00122175
0.00122159
0.0012214
0.00122146
0.00122149
0.00122137
0.00122081
0.00122097
0.00122124
0.0012208
0.00122128
0.00122169
0.00122123
0.00122176
0.00122223
0.00122185
0.00122223
0.00122299
0.00122317
0.00122344
0.00122346
0.00122331
0.00122366
0.00122384
0.00122372
0.00122381
0.00122391
0.00122398
0.00122392
0.00122373
0.00122369
0.00122348
0.00122342
0.00122336
0.00122342
0.00122338
0.00122327
0.00122317
0.00122278
0.00122299
0.00122361
0.00122353
0.00122349
0.00122338
0.00122336
0.00122291
0.00122318
0.00122332
0.00122289
0.00122296
0.00122279
0.00122266
0.00122236
0.00122266
0.00122309
0.0012231
0.00122309
0.00122236
0.00122248
0.00122326
0.00122339
0.00122327
0.00122317
0.00122309
0.00122237
0.00122234
0.00122295
0.0012231
0.00122292
0.00122227
0.00118696
0.00121285
0.00122097
0.00122224
0.00122221
0.00122219
0.00122197
0.00122152
0.00122146
0.00122241
0.00122334
0.00122347
0.00122328
0.00122306
0.00122299
0.00122276
0.00122254
0.00122227
0.00122205
0.00122178
0.00122171
0.0012217
0.00122155
0.00122138
0.00122124
0.00122121
0.00122071
0.00122089
0.00122118
0.00122075
0.00122124
0.00122166
0.0012212
0.00122175
0.00122223
0.00122187
0.00122225
0.00122302
0.00122323
0.00122345
0.00122328
0.00122341
0.00122357
0.00122341
0.00122348
0.00122353
0.00122355
0.00122293
0.0012231
0.00122326
0.00122266
0.00122294
0.0012231
0.0012225
0.00122276
0.0012234
0.00122329
0.00122315
0.00122252
0.00122276
0.00122335
0.00122324
0.00122309
0.00122246
0.0012226
0.00122338
0.00122349
0.00122336
0.00122326
0.00122326
0.00122296
0.00122255
0.00122301
0.00122348
0.00122344
0.00122343
0.0012233
0.00122309
0.00122304
0.0012233
0.00122317
0.00122322
0.00122329
0.0012234
0.00122337
0.00122322
0.00122258
0.00122271
0.00122296
0.00122218
0.0011869
0.001213
0.00122079
0.00122147
0.00122193
0.00122218
0.00122143
0.00122163
0.00122225
0.00122225
0.00122202
0.00122119
0.00122133
0.00122184
0.0012218
0.00122154
0.00122069
0.00122084
0.00122121
0.00122083
0.00122084
0.00122078
0.00122037
0.00122045
0.00122091
0.00122085
0.00122069
0.00122093
0.00122116
0.00122058
0.00122107
0.0012216
0.00122145
0.00122148
0.00122177
0.00122201
0.00122208
0.00122193
0.00122222
0.00122247
0.00122192
0.00122235
0.00122282
0.00122225
0.00122264
0.00122297
0.00122236
0.0012227
0.00122323
0.00122291
0.00122301
0.00122286
0.00122274
0.00122245
0.00122281
0.00122313
0.00122244
0.0012227
0.00122314
0.00122298
0.00122294
0.0012224
0.00122268
0.00122318
0.00122276
0.00122266
0.00122299
0.00122309
0.0012229
0.00122301
0.00122285
0.00122239
0.00122265
0.00122294
0.00122224
0.0012225
0.00122295
0.00122288
0.00122286
0.00122224
0.00122251
0.00122293
0.00122277
0.00122274
0.0012222
0.00122216
0.00122295
0.00122321
0.00122304
0.00122247
0.00118694
0.00121284
0.00122117
0.00122241
0.00122236
0.0012223
0.00122171
0.00122188
0.00122272
0.00122253
0.00122246
0.00122223
0.00122228
0.00122226
0.00122185
0.00122182
0.00122194
0.00122177
0.00122145
0.00122068
0.00122053
0.00122086
0.001221
0.00122082
0.00122005
0.0012203
0.00122078
0.00122056
0.00122074
0.00122065
0.00122111
0.00122162
0.00122153
0.00122174
0.00122191
0.00122153
0.0012219
0.00122229
0.00122176
0.00122226
0.00122281
0.00122233
0.00122282
0.00122329
0.0012228
0.0012232
0.00122358
0.00122355
0.00122357
0.00122299
0.00122325
0.00122341
0.00122281
0.00122305
0.00122343
0.00122328
0.00122281
0.00122283
0.00122311
0.001223
0.00122296
0.00122241
0.00122274
0.00122314
0.00122282
0.00122279
0.00122244
0.0012228
0.00122365
0.00122349
0.00122362
0.00122345
0.00122345
0.00122347
0.00122313
0.00122334
0.00122351
0.00122343
0.00122347
0.00122337
0.00122329
0.00122334
0.00122334
0.00122268
0.00122292
0.00122316
0.00122269
0.00122267
0.00122266
0.00122228
0.00118693
0.00121288
0.00122108
0.00122253
0.00122262
0.00122247
0.00122237
0.00122192
0.00122166
0.00122235
0.0012233
0.00122342
0.00122337
0.00122313
0.00122288
0.00122279
0.00122255
0.00122213
0.00122187
0.00122179
0.00122167
0.00122161
0.00122146
0.00122133
0.00122108
0.00122039
0.00122055
0.00122085
0.00122025
0.00122066
0.001221
0.00122049
0.00122102
0.00122156
0.00122109
0.00122166
0.00122226
0.00122184
0.0012224
0.00122293
0.0012225
0.00122302
0.00122346
0.00122326
0.00122345
0.00122338
0.001223
0.00122327
0.00122343
0.00122337
0.00122336
0.00122288
0.00122272
0.00122312
0.00122331
0.00122325
0.0012233
0.00122319
0.00122281
0.00122294
0.00122325
0.00122317
0.00122314
0.00122284
0.00122269
0.00122269
0.00122257
0.00122304
0.00122333
0.00122317
0.00122313
0.00122248
0.00122276
0.00122306
0.00122272
0.00122269
0.00122235
0.00122283
0.0012233
0.00122296
0.00122303
0.00122286
0.00122292
0.00122294
0.00122287
0.00122285
0.00122275
0.00122294
0.00122298
0.00122228
0.00118698
0.00121269
0.00122126
0.00122349
0.00122391
0.00122393
0.00122388
0.00122381
0.00122373
0.00122364
0.00122355
0.00122345
0.00122335
0.0012231
0.00122285
0.00122274
0.00122249
0.00122208
0.0012218
0.00122168
0.00122158
0.0012214
0.00122103
0.00122093
0.00122095
0.00122086
0.00122039
0.00122062
0.00122093
0.00122052
0.00122107
0.00122153
0.00122113
0.00122151
0.00122247
0.00122274
0.00122291
0.0012231
0.00122304
0.00122339
0.00122374
0.00122376
0.00122385
0.00122384
0.00122398
0.0012241
0.00122395
0.00122373
0.00122379
0.00122386
0.00122378
0.00122376
0.00122322
0.00122347
0.00122372
0.00122343
0.00122341
0.00122313
0.00122352
0.00122377
0.00122342
0.00122339
0.00122315
0.00122347
0.00122361
0.00122301
0.00122326
0.00122339
0.00122294
0.00122299
0.00122282
0.00122269
0.00122238
0.00122267
0.00122311
0.00122312
0.00122311
0.00122237
0.00122259
0.00122319
0.00122307
0.00122293
0.00122231
0.00122245
0.00122324
0.0012234
0.00122328
0.00122316
0.00122305
0.0012223
0.00118691
0.00121297
0.00122097
0.00122197
0.00122188
0.00122167
0.00122201
0.00122234
0.00122188
0.00122174
0.00122163
0.0012212
0.0012213
0.0012216
0.00122139
0.00122123
0.00122084
0.00122052
0.00122073
0.0012213
0.00122076
0.00122087
0.00122104
0.00122079
0.00122075
0.00122072
0.00122045
0.00122038
0.00122045
0.00122036
0.00122099
0.00122149
0.00122112
0.0012215
0.00122247
0.00122279
0.00122298
0.00122322
0.00122349
0.00122357
0.00122369
0.00122387
0.00122392
0.00122395
0.00122397
0.00122392
0.00122377
0.00122315
0.00122331
0.0012238
0.00122344
0.00122363
0.00122368
0.0012235
0.001223
0.00122288
0.00122328
0.00122351
0.00122337
0.0012232
0.00122286
0.00122315
0.00122353
0.00122306
0.00122299
0.00122294
0.00122315
0.00122316
0.00122308
0.00122312
0.00122275
0.00122299
0.00122357
0.00122312
0.00122335
0.00122367
0.00122361
0.00122366
0.00122362
0.00122343
0.00122292
0.00122271
0.00122281
0.00122274
0.00122309
0.00122341
0.00122325
0.00122328
0.00122311
0.00122242
0.00118699
0.00121269
0.00122126
0.00122349
0.00122391
0.00122393
0.00122387
0.00122379
0.00122371
0.00122362
0.00122352
0.0012234
0.0012233
0.00122303
0.00122276
0.00122265
0.00122238
0.00122196
0.00122172
0.00122162
0.00122143
0.00122134
0.00122115
0.0012209
0.00122066
0.00122004
0.00122028
0.00122061
0.00122036
0.0012205
0.00122071
0.00122062
0.0012211
0.00122159
0.00122115
0.00122176
0.0012224
0.00122201
0.0012226
0.00122314
0.00122273
0.00122326
0.00122369
0.00122337
0.00122349
0.00122342
0.00122364
0.00122393
0.00122393
0.00122393
0.00122367
0.00122345
0.00122337
0.0012233
0.00122313
0.00122283
0.00122301
0.00122403
0.00122417
0.00122409
0.00122399
0.00122386
0.00122384
0.00122382
0.00122375
0.00122311
0.00122326
0.00122338
0.00122295
0.001223
0.00122284
0.0012227
0.00122239
0.00122268
0.00122312
0.00122312
0.00122311
0.00122237
0.00122259
0.00122319
0.00122308
0.00122294
0.00122231
0.00122257
0.00122301
0.00122283
0.00122278
0.00122269
0.00122267
0.00122213
0.00118704
0.00121252
0.0012213
0.00122283
0.00122278
0.00122266
0.00122267
0.00122268
0.00122237
0.00122224
0.00122196
0.00122134
0.00122119
0.00122159
0.00122158
0.00122123
0.00122042
0.00122049
0.00122082
0.0012206
0.00122037
0.00122023
0.0012202
0.00122011
0.00121987
0.00121999
0.00122029
0.00121967
0.00122008
0.00122083
0.00122102
0.00122119
0.0012216
0.00122197
0.00122186
0.00122223
0.00122231
0.00122248
0.00122267
0.00122242
0.00122281
0.00122319
0.00122261
0.001223
0.00122362
0.00122311
0.00122344
0.00122373
0.00122374
0.00122374
0.00122362
0.00122328
0.00122315
0.00122413
0.00122492
0.0012249
0.00122476
0.00122476
0.00122462
0.00122448
0.00122424
0.00122412
0.00122404
0.0012239
0.00122387
0.00122385
0.0012237
0.00122329
0.00122344
0.00122352
0.00122287
0.00122314
0.00122329
0.00122318
0.00122316
0.00122298
0.00122294
0.00122284
0.00122264
0.00122295
0.00122327
0.00122321
0.00122319
0.00122273
0.00122301
0.00122316
0.00122285
0.00122285
0.00122282
0.00122231
0.00118703
0.00121255
0.00122114
0.00122344
0.00122389
0.00122392
0.00122386
0.00122378
0.00122369
0.00122359
0.00122348
0.00122336
0.00122324
0.00122297
0.00122269
0.0012224
0.00122212
0.00122194
0.00122167
0.00122142
0.00122086
0.00122077
0.00122074
0.00122035
0.00122022
0.00122031
0.00122038
0.0012198
0.00122017
0.00122061
0.00122078
0.00122104
0.00122067
0.00122122
0.00122167
0.00122194
0.00122222
0.00122183
0.00122239
0.00122295
0.00122244
0.00122293
0.00122346
0.0012233
0.00122335
0.00122295
0.00122334
0.00122383
0.00122376
0.00122378
0.00122356
0.00122316
0.00122316
0.00122434
0.00122472
0.00122466
0.00122466
0.00122451
0.00122432
0.0012242
0.00122411
0.00122397
0.00122395
0.00122393
0.00122378
0.00122372
0.00122367
0.00122312
0.00122323
0.0012233
0.00122299
0.001223
0.00122276
0.00122268
0.00122233
0.00122261
0.00122324
0.00122312
0.00122297
0.00122282
0.0012226
0.00122291
0.0012233
0.00122324
0.00122333
0.00122315
0.00122303
0.00122312
0.00122312
0.00122236
0.00118699
0.00121269
0.00122126
0.00122349
0.0012239
0.00122392
0.00122386
0.00122378
0.00122368
0.00122358
0.00122347
0.00122334
0.00122321
0.00122308
0.00122279
0.00122251
0.00122219
0.00122191
0.00122173
0.00122146
0.00122107
0.00122083
0.00122067
0.00122063
0.00122051
0.00121985
0.00122002
0.00122037
0.00121998
0.00122043
0.00122078
0.00122045
0.00122106
0.00122162
0.00122123
0.00122187
0.00122254
0.00122218
0.00122279
0.00122335
0.00122294
0.00122344
0.00122398
0.00122387
0.00122403
0.00122404
0.00122413
0.00122397
0.00122383
0.0012238
0.00122341
0.00122346
0.00122453
0.00122481
0.00122473
0.00122474
0.00122459
0.00122439
0.00122427
0.00122417
0.0012242
0.00122395
0.00122382
0.00122379
0.00122353
0.00122357
0.00122355
0.00122343
0.00122348
0.00122336
0.00122333
0.00122316
0.00122254
0.0012227
0.00122311
0.00122313
0.00122312
0.00122238
0.00122261
0.00122305
0.00122292
0.0012229
0.00122288
0.00122285
0.00122223
0.00122234
0.00122303
0.00122311
0.00122292
0.00122228
0.00118703
0.00121255
0.00122114
0.00122343
0.00122388
0.00122391
0.00122385
0.00122376
0.00122367
0.00122356
0.00122345
0.00122333
0.00122305
0.00122278
0.00122247
0.00122219
0.00122199
0.0012217
0.00122143
0.00122084
0.00122075
0.00122069
0.00122022
0.0012201
0.00122004
0.00121956
0.0012198
0.00122015
0.00121963
0.0012202
0.00122088
0.00122057
0.00122111
0.00122175
0.0012221
0.00122244
0.00122233
0.00122236
0.00122273
0.00122302
0.00122282
0.00122325
0.00122354
0.00122291
0.00122327
0.00122357
0.00122294
0.00122329
0.00122367
0.00122335
0.00122331
0.00122296
0.00122317
0.00122443
0.00122491
0.00122484
0.00122484
0.00122474
0.00122459
0.00122435
0.00122422
0.00122413
0.00122416
0.00122392
0.00122382
0.00122371
0.00122372
0.00122371
0.00122353
0.00122341
0.00122338
0.00122341
0.0012232
0.00122291
0.00122275
0.00122256
0.00122297
0.00122325
0.00122316
0.00122313
0.00122252
0.0012228
0.00122301
0.0012227
0.00122279
0.00122281
0.00122246
0.00122269
0.00122297
0.0012222
0.00118703
0.00121255
0.00122115
0.00122338
0.00122335
0.0012232
0.001223
0.00122291
0.00122282
0.0012226
0.0012224
0.00122184
0.00122175
0.00122183
0.00122154
0.00122127
0.00122047
0.00122027
0.00122058
0.00122013
0.00122029
0.00122049
0.00122037
0.00122028
0.00121949
0.00121968
0.00121998
0.00121941
0.0012199
0.00122038
0.00121999
0.00122065
0.00122131
0.00122096
0.00122165
0.00122236
0.0012223
0.00122261
0.00122287
0.00122273
0.00122313
0.00122347
0.00122333
0.00122343
0.00122335
0.00122339
0.00122333
0.00122318
0.00122344
0.00122471
0.0012252
0.00122528
0.00122527
0.00122524
0.0012252
0.00122517
0.00122513
0.0012251
0.00122506
0.00122504
0.00122487
0.00122472
0.0012247
0.00122458
0.00122446
0.0012242
0.00122407
0.00122409
0.00122396
0.00122398
0.00122391
0.00122363
0.00122362
0.00122362
0.00122346
0.00122304
0.00122318
0.00122329
0.00122285
0.00122291
0.00122274
0.00122266
0.00122269
0.00122253
0.00122272
0.00122305
0.0012229
0.00122293
0.00122288
0.00122233
0.00118697
0.00121276
0.00122102
0.00122224
0.00122191
0.00122181
0.00122154
0.00122176
0.00122189
0.00122108
0.00122123
0.00122166
0.00122093
0.00122103
0.00122105
0.00122061
0.00122027
0.00122037
0.00122104
0.00122059
0.00122069
0.00122066
0.00122019
0.00122008
0.00122001
0.00121955
0.00121982
0.0012202
0.00121969
0.00122025
0.00122095
0.00122069
0.0012214
0.00122209
0.00122192
0.0012226
0.0012231
0.00122319
0.00122347
0.00122348
0.00122383
0.00122403
0.00122397
0.00122408
0.00122406
0.00122344
0.00122335
0.00122361
0.0012235
0.00122352
0.0012235
0.00122317
0.00122331
0.00122367
0.00122329
0.00122322
0.00122303
0.001223
0.00122267
0.00122298
0.00122326
0.00122255
0.00122283
0.00122314
0.00122243
0.00122251
0.0012231
0.00122288
0.00122322
0.0012234
0.00122301
0.00122303
0.00122299
0.00122298
0.0012225
0.00122269
0.00122311
0.00122312
0.00122311
0.00122237
0.0012226
0.00122303
0.00122276
0.00122277
0.00122277
0.00122245
0.00122262
0.00122301
0.00122292
0.00122262
0.00118699
0.00121269
0.00122126
0.00122349
0.00122389
0.0012239
0.00122383
0.00122374
0.00122365
0.0012234
0.00122315
0.00122286
0.00122258
0.0012224
0.00122211
0.00122169
0.00122139
0.00122113
0.00122095
0.0012208
0.00122063
0.00122027
0.00121942
0.00121944
0.00121979
0.00121967
0.00121972
0.00121937
0.00121995
0.00122047
0.0012207
0.00122079
0.00122123
0.0012217
0.00122192
0.0012223
0.00122234
0.00122273
0.00122302
0.00122311
0.00122334
0.00122345
0.00122303
0.00122336
0.00122396
0.0012238
0.00122386
0.00122388
0.00122377
0.00122358
0.0012242
0.00122513
0.00122528
0.00122528
0.00122524
0.00122521
0.00122517
0.00122513
0.00122509
0.00122505
0.00122502
0.00122499
0.00122494
0.00122477
0.00122467
0.00122465
0.00122458
0.00122448
0.00122435
0.00122413
0.00122401
0.00122391
0.00122393
0.00122385
0.00122374
0.00122347
0.00122333
0.0012233
0.00122294
0.00122306
0.00122328
0.00122273
0.00122304
0.00122324
0.00122279
0.00122281
0.00122264
0.00122279
0.00122281
0.00122225
0.00118699
0.00121269
0.00122126
0.00122348
0.00122389
0.0012239
0.00122383
0.00122374
0.00122364
0.00122353
0.0012234
0.00122327
0.00122312
0.00122282
0.00122252
0.00122219
0.00122188
0.00122167
0.00122136
0.00122097
0.00122069
0.00122045
0.00122035
0.00122029
0.0012202
0.00121957
0.00121976
0.00122015
0.00121981
0.00122035
0.00122078
0.00122067
0.00122145
0.00122213
0.00122196
0.0012226
0.00122333
0.00122348
0.00122385
0.00122408
0.00122427
0.00122432
0.00122436
0.00122446
0.00122445
0.00122434
0.00122425
0.00122409
0.00122352
0.00122345
0.0012243
0.00122518
0.0012253
0.00122529
0.00122526
0.00122522
0.00122518
0.00122514
0.0012251
0.00122506
0.00122503
0.00122499
0.00122496
0.00122493
0.00122492
0.00122474
0.00122463
0.00122462
0.00122443
0.0012243
0.00122422
0.00122425
0.00122403
0.00122391
0.00122385
0.0012239
0.00122372
0.00122362
0.0012236
0.00122364
0.00122347
0.00122297
0.00122317
0.0012233
0.00122272
0.00122298
0.00122311
0.00122307
0.00122305
0.00122234
0.00118695
0.00121285
0.00122107
0.00122221
0.00122197
0.00122229
0.00122231
0.00122152
0.00122166
0.00122176
0.00122092
0.00122069
0.00122143
0.00122256
0.00122257
0.00122231
0.00122199
0.00122168
0.00122145
0.00122116
0.0012207
0.00122053
0.00122039
0.00121972
0.00121985
0.00122001
0.00121964
0.00121977
0.00121992
0.00122022
0.00122014
0.00122076
0.00122134
0.00122101
0.00122172
0.00122245
0.00122215
0.00122257
0.00122371
0.00122397
0.00122414
0.0012242
0.00122433
0.00122447
0.00122442
0.00122437
0.00122418
0.00122406
0.00122383
0.00122371
0.00122365
0.00122368
0.00122365
0.00122331
0.00122338
0.00122444
0.00122447
0.00122437
0.00122426
0.00122409
0.00122409
0.0012239
0.00122387
0.00122385
0.00122386
0.0012237
0.00122356
0.0012235
0.00122341
0.00122327
0.00122315
0.00122274
0.00122295
0.00122366
0.00122363
0.00122364
0.00122339
0.00122351
0.00122353
0.00122295
0.00122314
0.00122323
0.00122269
0.00122282
0.00122287
0.00122273
0.00122237
0.00122265
0.00122297
0.0012222
0.00118699
0.00121269
0.00122126
0.00122348
0.0012239
0.00122376
0.00122357
0.00122347
0.00122321
0.00122297
0.00122282
0.00122256
0.00122213
0.00122179
0.00122158
0.00122128
0.00122092
0.00122072
0.00122056
0.00122033
0.00121956
0.00121958
0.00121979
0.0012196
0.00121947
0.00121963
0.00121983
0.00121921
0.00121969
0.00122028
0.00122051
0.00122058
0.00122106
0.00122155
0.00122172
0.00122205
0.00122175
0.00122238
0.00122307
0.00122264
0.00122313
0.00122352
0.00122297
0.00122337
0.00122371
0.00122305
0.00122334
0.00122388
0.00122333
0.00122345
0.00122366
0.0012236
0.00122355
0.00122304
0.00122323
0.00122362
0.00122336
0.00122322
0.00122337
0.00122343
0.00122327
0.0012229
0.00122299
0.0012232
0.00122248
0.00122277
0.00122318
0.00122246
0.00122273
0.00122303
0.0012227
0.0012225
0.00122287
0.00122316
0.00122273
0.00122267
0.00122264
0.00122264
0.00122224
0.00122251
0.00122295
0.00122285
0.00122283
0.00122224
0.00122256
0.00122285
0.00122216
0.00122248
0.00122282
0.0012221
0.00118699
0.00121269
0.00122126
0.00122348
0.00122389
0.0012239
0.00122383
0.00122374
0.00122363
0.00122352
0.0012234
0.00122312
0.00122284
0.00122252
0.00122223
0.00122201
0.0012217
0.00122138
0.00122106
0.00122077
0.0012205
0.00122015
0.00121991
0.00121978
0.00121925
0.00121945
0.00121978
0.00121924
0.00121976
0.00122029
0.00121989
0.00122054
0.00122117
0.00122081
0.00122145
0.00122234
0.00122271
0.00122302
0.00122253
0.00122301
0.00122348
0.0012233
0.00122339
0.00122313
0.00122358
0.00122415
0.00122377
0.00122401
0.0012241
0.00122392
0.0012234
0.00122351
0.00122363
0.00122287
0.00122311
0.00122362
0.00122311
0.00122329
0.00122335
0.00122279
0.00122302
0.00122354
0.00122356
0.00122338
0.00122261
0.00122288
0.00122321
0.00122247
0.00122273
0.00122304
0.00122235
0.00122265
0.00122307
0.00122302
0.001223
0.00122235
0.00122262
0.00122292
0.00122232
0.0012226
0.00122299
0.00122252
0.00122275
0.00122285
0.00122272
0.00122238
0.00122263
0.00122297
0.00122289
0.00122268
0.00118699
0.00121269
0.00122126
0.00122348
0.00122389
0.0012239
0.00122383
0.00122374
0.00122364
0.00122352
0.00122339
0.00122325
0.0012231
0.00122295
0.00122263
0.00122233
0.00122199
0.00122168
0.00122146
0.00122116
0.0012208
0.00122053
0.00122045
0.00122041
0.00122028
0.00122012
0.00121966
0.00121992
0.00122041
0.00122058
0.00122091
0.00122083
0.00122155
0.00122216
0.00122198
0.00122267
0.00122317
0.0012232
0.00122351
0.00122357
0.00122383
0.00122422
0.00122424
0.00122419
0.00122388
0.00122397
0.00122403
0.00122378
0.00122352
0.0012237
0.00122489
0.00122529
0.00122533
0.00122531
0.00122527
0.00122523
0.00122519
0.00122515
0.0012251
0.00122507
0.00122503
0.001225
0.00122497
0.00122488
0.00122472
0.00122461
0.00122448
0.00122434
0.00122427
0.0012243
0.00122409
0.00122398
0.00122389
0.00122391
0.00122384
0.00122357
0.00122357
0.00122357
0.00122341
0.00122301
0.00122314
0.00122324
0.00122312
0.00122311
0.00122294
0.00122289
0.00122231
0.00122261
0.00122296
0.0012222
0.00118699
0.00121269
0.00122126
0.00122348
0.00122389
0.00122391
0.00122383
0.00122375
0.00122364
0.00122353
0.0012234
0.00122327
0.00122312
0.00122282
0.00122252
0.00122219
0.00122188
0.00122166
0.00122135
0.00122107
0.00122048
0.00122032
0.00122044
0.00122021
0.00122002
0.00121948
0.00121978
0.00122014
0.0012197
0.00122028
0.00122095
0.0012207
0.00122144
0.00122213
0.00122196
0.0012226
0.00122333
0.00122348
0.00122385
0.00122408
0.00122428
0.00122432
0.00122436
0.00122446
0.00122445
0.00122434
0.00122426
0.00122409
0.00122352
0.00122345
0.0012243
0.00122518
0.00122531
0.0012253
0.00122526
0.00122522
0.00122518
0.00122514
0.0012251
0.00122507
0.00122489
0.00122478
0.00122477
0.00122455
0.00122441
0.00122431
0.00122432
0.00122414
0.00122404
0.00122403
0.00122408
0.00122394
0.00122374
0.00122318
0.0012233
0.00122346
0.00122295
0.00122321
0.00122351
0.00122322
0.0012232
0.0012232
0.00122313
0.00122315
0.00122296
0.00122285
0.00122251
0.00122275
0.00122288
0.00122217
0.00118699
0.00121269
0.00122126
0.00122348
0.00122389
0.00122391
0.00122383
0.00122375
0.00122365
0.0012234
0.00122315
0.00122286
0.00122259
0.0012224
0.0012221
0.0012218
0.00122143
0.0012211
0.0012208
0.00122033
0.00121999
0.0012198
0.00121928
0.00121943
0.00121981
0.00121978
0.00121979
0.00122006
0.00122038
0.00122038
0.00122067
0.00122083
0.00122119
0.0012216
0.00122197
0.00122179
0.00122234
0.00122286
0.00122295
0.00122318
0.00122333
0.00122346
0.00122298
0.00122335
0.00122396
0.0012237
0.00122385
0.00122389
0.00122371
0.00122361
0.00122422
0.00122513
0.00122528
0.00122528
0.00122524
0.00122521
0.00122517
0.00122513
0.00122509
0.001225
0.00122483
0.00122472
0.00122458
0.00122444
0.00122438
0.00122423
0.00122425
0.00122431
0.00122418
0.00122422
0.00122406
0.00122387
0.00122375
0.00122336
0.00122357
0.00122375
0.0012235
0.00122352
0.00122326
0.00122317
0.00122315
0.00122283
0.00122306
0.0012232
0.00122259
0.0012229
0.00122309
0.00122297
0.00122293
0.00122224
0.00118697
0.00121276
0.00122102
0.00122225
0.00122192
0.00122183
0.00122156
0.00122155
0.00122199
0.00122209
0.00122178
0.001221
0.00122106
0.00122138
0.00122111
0.00122089
0.00122035
0.00121998
0.00122027
0.0012208
0.00122021
0.00122036
0.00122036
0.00121987
0.00122004
0.0012201
0.00121968
0.00122003
0.00122049
0.0012204
0.0012207
0.00122081
0.00122151
0.00122212
0.00122193
0.00122255
0.00122328
0.00122359
0.00122386
0.00122401
0.0012242
0.00122424
0.00122437
0.00122442
0.00122435
0.00122416
0.00122346
0.00122336
0.00122361
0.00122329
0.00122323
0.00122318
0.00122318
0.00122286
0.00122316
0.00122344
0.00122272
0.00122289
0.00122343
0.00122334
0.00122329
0.00122268
0.00122289
0.00122346
0.00122349
0.00122331
0.00122302
0.00122278
0.00122291
0.00122373
0.00122362
0.00122386
0.00122391