/*--------------------------------*- C++ -*----------------------------------*\
  =========                 |
  \\      /  F ield         | OpenFOAM: The Open Source CFD Toolbox
   \\    /   O peration     | Website:  https://openfoam.org
    \\  /    A nd           | Version:  11
     \\/     M anipulation  |
\*---------------------------------------------------------------------------*/
FoamFile
{
    format      ascii;
    class       volScalarField;
    location    "0.022";
    object      p;
}
// * * * * * * * * * * * * * * * * * * * * * * * * * * * * * * * * * * * * * //

dimensions      [0 2 -2 0 0 0 0];

internalField   nonuniform List<scalar> 
287084
(
1.9404
1.6697
1.59544
1.53109
1.46526
1.41328
1.36514
1.32039
1.27889
1.23718
1.19389
1.15013
1.10611
1.06132
1.01574
0.969224
0.921978
0.87406
0.825538
0.776819
0.727893
0.679165
0.630952
0.583106
0.53634
0.490309
0.445426
0.406704
0.373989
0.34149
0.308251
0.27696
0.249952
0.226265
0.205931
0.188537
0.17403
0.162077
0.152549
0.145269
0.139875
0.136196
0.134003
0.133058
0.133105
0.133964
0.135443
0.137307
0.139387
0.141521
0.143236
0.144739
0.147158
0.148975
0.1477
0.1486
0.153582
0.155472
0.156061
0.154892
0.155301
0.157235
0.155043
0.154542
0.153804
0.147885
0.146265
0.145946
0.140273
0.135241
0.129873
0.12337
0.117312
0.112813
0.10892
0.105558
0.100251
0.0900468
0.0841758
0.0799149
0.0699141
0.0639529
0.0599791
0.0516532
0.0436662
0.0361388
0.0273972
0.0172767
0.00705369
0.00140877
1.80729
1.623
1.56894
1.51567
1.45664
1.40797
1.36223
1.31859
1.27659
1.23444
1.19158
1.14829
1.10428
1.05953
1.01377
0.96716
0.919783
0.871604
0.822928
0.773872
0.724736
0.675796
0.627255
0.579454
0.532713
0.487018
0.443123
0.404609
0.368733
0.333923
0.301097
0.271257
0.244741
0.2214
0.201264
0.184095
0.169768
0.158161
0.148818
0.141762
0.136627
0.133197
0.13124
0.130531
0.130805
0.131888
0.133573
0.135661
0.137988
0.14041
0.142769
0.144989
0.14707
0.147863
0.148221
0.150405
0.153362
0.155171
0.155323
0.155579
0.156611
0.157018
0.155974
0.153174
0.151681
0.149506
0.145457
0.142998
0.140097
0.135313
0.129969
0.124983
0.119959
0.114079
0.109076
0.104205
0.0985682
0.0917264
0.0844297
0.0783313
0.0716923
0.0646537
0.0581014
0.0506577
0.0427008
0.0347421
0.0263496
0.0173484
0.00827705
0.00212004
1.77686
1.61291
1.55999
1.50684
1.4501
1.40244
1.35776
1.31486
1.27287
1.23076
1.18822
1.14494
1.1009
1.05591
1.00997
0.963066
0.915302
0.86674
0.817559
0.768098
0.718408
0.668973
0.62
0.571687
0.524693
0.479126
0.435655
0.395211
0.358034
0.323232
0.290732
0.261215
0.234903
0.211903
0.192009
0.175281
0.16137
0.150075
0.141295
0.134711
0.130094
0.127168
0.125707
0.125457
0.126196
0.127711
0.129808
0.132293
0.135002
0.137788
0.140491
0.142992
0.145277
0.147308
0.149226
0.151245
0.153112
0.154486
0.155105
0.155624
0.155981
0.155864
0.154754
0.153041
0.15114
0.148501
0.145516
0.142552
0.138933
0.134578
0.129907
0.124993
0.119755
0.114277
0.109024
0.103645
0.0978303
0.091303
0.084639
0.0782051
0.0713797
0.0643871
0.0574549
0.0500839
0.0423783
0.0343646
0.0260291
0.0172017
0.00818619
0.00189512
1.73384
1.58443
1.53701
1.48892
1.43763
1.39316
1.35051
1.30876
1.26731
1.22563
1.18327
1.14008
1.09584
1.05066
1.00433
0.956953
0.908737
0.859515
0.809688
0.759454
0.708947
0.658816
0.609065
0.560143
0.512574
0.466493
0.422589
0.381551
0.343432
0.307957
0.275525
0.246205
0.220262
0.19761
0.178245
0.162046
0.148758
0.138286
0.130186
0.12433
0.120434
0.118254
0.117504
0.117957
0.119368
0.121522
0.124219
0.127283
0.130542
0.133854
0.13709
0.140173
0.14305
0.14566
0.147905
0.149896
0.151771
0.153299
0.15425
0.154802
0.155013
0.154709
0.153766
0.152228
0.150348
0.147981
0.145103
0.141955
0.138352
0.134188
0.129688
0.124902
0.119796
0.114454
0.109016
0.103365
0.0973886
0.0910366
0.0845027
0.0778994
0.0710709
0.0640856
0.0569773
0.0496076
0.0419845
0.0340846
0.0259233
0.0172309
0.00841137
0.0021552
1.71013
1.56714
1.52184
1.47534
1.42653
1.38386
1.34249
1.30167
1.26079
1.21933
1.17709
1.13378
1.08935
1.04381
0.99694
0.948976
0.899918
0.849892
0.799242
0.747979
0.696617
0.645333
0.594546
0.544692
0.496147
0.449406
0.40485
0.36302
0.324159
0.288307
0.255814
0.226606
0.200984
0.178855
0.160118
0.144653
0.132215
0.122569
0.115452
0.110604
0.107703
0.106503
0.106725
0.108101
0.110394
0.113401
0.116888
0.120691
0.12465
0.128628
0.132497
0.136181
0.139586
0.142682
0.145423
0.147848
0.149942
0.151601
0.152747
0.153449
0.153714
0.15347
0.152623
0.15125
0.149443
0.147157
0.144408
0.141281
0.137715
0.133699
0.129321
0.124623
0.11961
0.114321
0.108833
0.103107
0.0971217
0.0908182
0.084333
0.0776847
0.0708445
0.0638281
0.0566554
0.0492771
0.0417145
0.0339113
0.0257933
0.0172013
0.00842131
0.00211847
1.68925
1.5493
1.50582
1.4612
1.41464
1.3736
1.33355
1.29351
1.25311
1.21194
1.16972
1.12625
1.08149
1.03537
0.987933
0.939115
0.889223
0.838147
0.786349
0.73388
0.681192
0.628632
0.576628
0.52553
0.475824
0.428014
0.382549
0.339788
0.300297
0.264004
0.231417
0.202369
0.177178
0.155643
0.13764
0.123159
0.111755
0.103297
0.0974022
0.0937667
0.0921045
0.0921313
0.0935249
0.0960431
0.0994233
0.103457
0.107912
0.11262
0.117429
0.122183
0.1268
0.13116
0.135207
0.138878
0.142139
0.144985
0.147402
0.149336
0.150751
0.151663
0.152066
0.15195
0.151271
0.150069
0.148383
0.146219
0.143589
0.140532
0.137044
0.133131
0.128854
0.124237
0.119293
0.114061
0.108579
0.102839
0.0968398
0.0905952
0.0841289
0.0774785
0.0706469
0.0636297
0.0564385
0.0490562
0.0415193
0.0338073
0.0257968
0.0172359
0.00842527
0.00206927
1.6724
1.53388
1.4916
1.44818
1.40311
1.3633
1.32408
1.28476
1.2447
1.20361
1.16136
1.11757
1.07239
1.02562
0.977331
0.927574
0.876558
0.824197
0.771105
0.717116
0.66307
0.608868
0.555221
0.502668
0.451538
0.402489
0.355816
0.312277
0.27197
0.235327
0.202577
0.173734
0.149031
0.128175
0.111104
0.0976724
0.0875133
0.080447
0.0759871
0.0738698
0.073721
0.0752223
0.0780625
0.0819497
0.0866154
0.0918322
0.097414
0.103181
0.108971
0.114642
0.120085
0.125228
0.129977
0.134292
0.138131
0.14147
0.144291
0.146579
0.14831
0.1495
0.150129
0.150209
0.149724
0.148699
0.147168
0.145135
0.142638
0.13968
0.13629
0.132491
0.1283
0.123765
0.118894
0.113722
0.108267
0.102544
0.0965752
0.090346
0.0839125
0.0772672
0.070433
0.0634121
0.0562331
0.0488934
0.0413629
0.0336295
0.0256573
0.0171585
0.00844377
0.00216848
1.65777
1.51995
1.47846
1.43596
1.39188
1.35295
1.31438
1.27549
1.2356
1.19456
1.152
1.10789
1.06208
1.01455
0.965362
0.914447
0.862162
0.808357
0.753642
0.698006
0.642061
0.586152
0.530733
0.476429
0.423611
0.373036
0.32514
0.280422
0.239352
0.202284
0.169384
0.140791
0.116569
0.0965672
0.080643
0.0685493
0.0599142
0.0544159
0.051642
0.0512437
0.0528241
0.0560322
0.0605125
0.0659737
0.0721263
0.0787342
0.0855914
0.0925298
0.0994126
0.106099
0.112482
0.118467
0.123999
0.129022
0.133492
0.137384
0.140698
0.143408
0.145513
0.147023
0.147927
0.148241
0.147984
0.147161
0.145805
0.143941
0.141573
0.138743
0.135468
0.131769
0.127683
0.123226
0.11843
0.113317
0.107905
0.102223
0.0962734
0.0900896
0.0836866
0.0770669
0.0702644
0.063291
0.0561448
0.0488353
0.041381
0.0336936
0.025725
0.0172455
0.00844184
0.00208763
1.64488
1.50737
1.46638
1.4244
1.38099
1.34266
1.30461
1.26594
1.22606
1.18489
1.14211
1.0974
1.05092
1.00244
0.952046
0.899914
0.846052
0.790664
0.734105
0.67657
0.618669
0.560693
0.503157
0.446869
0.392169
0.339869
0.290525
0.244655
0.202775
0.165156
0.132226
0.103881
0.0803348
0.0612594
0.0465877
0.0360143
0.0290637
0.0253882
0.0245403
0.0260889
0.0296195
0.0347293
0.0410625
0.0482916
0.0561099
0.0642896
0.0725848
0.0808459
0.088917
0.0966988
0.104099
0.111024
0.117393
0.123174
0.12834
0.132843
0.136686
0.139866
0.142385
0.144259
0.145485
0.146086
0.146072
0.145477
0.144324
0.142626
0.14042
0.137725
0.134576
0.130987
0.127
0.122635
0.117916
0.112867
0.107511
0.101872
0.0959617
0.0898154
0.0834251
0.0768315
0.0699998
0.0630021
0.055945
0.0486163
0.0411266
0.03358
0.0256573
0.0172187
0.00845544
0.00202928
1.63318
1.49579
1.45517
1.41354
1.37045
1.33252
1.29473
1.25615
1.21623
1.17478
1.13146
1.08625
1.03882
0.989309
0.937761
0.884055
0.828594
0.771347
0.71275
0.653154
0.592914
0.53268
0.472894
0.414351
0.357614
0.303413
0.252489
0.205304
0.162455
0.124408
0.0912951
0.0633191
0.0404789
0.0225763
0.00943204
0.000489664
-0.00456473
-0.00620963
-0.0049411
-0.00125743
0.00441958
0.0116269
0.0199808
0.0291375
0.0387922
0.0486661
0.0585517
0.0682711
0.0776512
0.0866162
0.095085
0.102993
0.110267
0.116859
0.122751
0.127909
0.13234
0.136038
0.139011
0.141276
0.142846
0.143759
0.144025
0.14367
0.142725
0.141225
0.139187
0.136642
0.133618
0.130157
0.126271
0.121995
0.117361
0.112378
0.107078
0.101504
0.0956345
0.0895259
0.0831865
0.0766208
0.0698637
0.0629367
0.0558278
0.0485426
0.0411462
0.0335085
0.0255208
0.0170837
0.00840196
0.00211759
1.6225
1.48521
1.44468
1.40324
1.36029
1.32256
1.28497
1.24637
1.20623
1.16441
1.1206
1.07455
1.02615
0.975494
0.922434
0.867181
0.809867
0.750578
0.689842
0.627803
0.565247
0.502469
0.44018
0.379275
0.320151
0.26401
0.211233
0.162746
0.11893
0.0803792
0.0472305
0.0196838
-0.00224228
-0.0189781
-0.0305899
-0.0376187
-0.0405963
-0.0400067
-0.0364391
-0.0304016
-0.0224238
-0.0129554
-0.00241636
0.00880717
0.020406
0.0321123
0.043684
0.0549467
0.0657496
0.0759885
0.0855913
0.0945232
0.102741
0.110184
0.11684
0.122686
0.127727
0.131973
0.135423
0.138122
0.140068
0.14131
0.141867
0.141763
0.141054
0.139744
0.137889
0.135508
0.132629
0.129278
0.125508
0.121326
0.116769
0.111868
0.106632
0.101107
0.0952936
0.0892254
0.0829178
0.0763878
0.0696545
0.0627266
0.0556323
0.0484122
0.0409678
0.0332634
0.0253694
0.0170133
0.00841832
0.00218289
1.61271
1.47537
1.43489
1.39348
1.35074
1.31306
1.27528
1.23656
1.19617
1.15389
1.10939
1.06241
1.01304
0.961009
0.906481
0.8495
0.790153
0.728716
0.665595
0.60111
0.535817
0.470387
0.405408
0.341917
0.280452
0.222059
0.167538
0.117521
0.0727623
0.0336733
0.000435784
-0.0265809
-0.0476365
-0.0628474
-0.07266
-0.0777071
-0.0784291
-0.0754815
-0.0694509
-0.0609453
-0.0505046
-0.0386398
-0.0258208
-0.0124077
0.00124389
0.0148573
0.0282017
0.0410941
0.0533859
0.0649727
0.0757761
0.085758
0.0949442
0.103262
0.110708
0.11726
0.122943
0.127749
0.131709
0.134837
0.137177
0.138763
0.139621
0.139793
0.139318
0.138222
0.136553
0.134326
0.131591
0.128379
0.12471
0.120636
0.11617
0.111339
0.106171
0.100701
0.0949423
0.0889197
0.0826497
0.0761504
0.0694433
0.0625424
0.0554116
0.0481723
0.0409357
0.033318
0.0253564
0.0170033
0.00833416
0.00211044
1.60373
1.46629
1.42576
1.38437
1.34159
1.30383
1.26601
1.22695
1.18626
1.14337
1.09814
1.05024
0.99955
0.946239
0.889988
0.831091
0.769699
0.705967
0.640328
0.573199
0.505204
0.436883
0.369191
0.302861
0.23887
0.178222
0.121704
0.0703246
0.0245371
-0.0150705
-0.0482336
-0.0746851
-0.0945903
-0.108408
-0.116406
-0.119242
-0.117599
-0.112124
-0.103508
-0.0923926
-0.0793912
-0.065047
-0.0498289
-0.0341605
-0.0183975
-0.00280674
0.0123565
0.0269111
0.0407342
0.0537029
0.0657561
0.0768487
0.0869992
0.0962071
0.104452
0.111724
0.118045
0.123439
0.127909
0.131501
0.134237
0.136173
0.137345
0.137791
0.137555
0.136669
0.135187
0.13313
0.130544
0.127459
0.123907
0.119932
0.115547
0.110804
0.105707
0.100291
0.0945835
0.0886037
0.0823846
0.0759254
0.0692545
0.0623954
0.0553556
0.0481622
0.0408063
0.0331468
0.0252871
0.0170005
0.00830812
0.00208486
1.59541
1.45795
1.41735
1.37589
1.33294
1.29508
1.25713
1.21783
1.17646
1.13294
1.08685
1.03789
0.986082
0.931207
0.873281
0.812489
0.748903
0.6827
0.614575
0.544565
0.473664
0.402501
0.33176
0.262747
0.196121
0.13312
0.0747296
0.021843
-0.0249714
-0.0651195
-0.0981681
-0.12399
-0.142787
-0.154882
-0.160912
-0.161507
-0.157384
-0.149306
-0.138028
-0.124244
-0.108614
-0.0917256
-0.0740801
-0.0561155
-0.038196
-0.0206052
-0.00360671
0.012654
0.0280166
0.0423798
0.0556985
0.06792
0.0790585
0.0891392
0.0981817
0.106181
0.113144
0.119109
0.124088
0.128134
0.131276
0.133578
0.135059
0.135779
0.135787
0.135122
0.133825
0.131937
0.129496
0.12654
0.123106
0.119232
0.11494
0.110261
0.105236
0.0998841
0.0942275
0.0883
0.0821098
0.0756869
0.0690541
0.0622084
0.055204
0.0479849
0.0406296
0.0330642
0.0252097
0.0169454
0.00834423
0.00211758
1.58783
1.4503
1.40961
1.36809
1.32509
1.28697
1.24865
1.20888
1.1671
1.12282
1.07585
1.02581
0.972661
0.916224
0.856584
0.793728
0.727884
0.659355
0.588417
0.515726
0.441886
0.367625
0.294053
0.222086
0.152851
0.087524
0.0272132
-0.0271952
-0.0749906
-0.115544
-0.14839
-0.173491
-0.191039
-0.201551
-0.20551
-0.203772
-0.197134
-0.186412
-0.172427
-0.155955
-0.137675
-0.118236
-0.0981562
-0.0778924
-0.0578264
-0.038247
-0.0194064
-0.0014722
0.0154104
0.0311733
0.0457433
0.059091
0.0712266
0.0821778
0.0919998
0.100705
0.108302
0.114834
0.120331
0.124824
0.128366
0.131008
0.132803
0.1338
0.134046
0.133588
0.132481
0.130755
0.128462
0.125636
0.122312
0.118535
0.114334
0.109738
0.104779
0.0994818
0.0938767
0.0879892
0.0818504
0.0754601
0.0688592
0.0620595
0.0550678
0.0479013
0.0405653
0.0329867
0.0251737
0.0169348
0.0082819
0.00203282
1.58097
1.44336
1.40259
1.36093
1.31771
1.27933
1.24088
1.20063
1.1581
1.11306
1.06515
1.01402
0.959541
0.901579
0.840152
0.775317
0.707263
0.636177
0.562636
0.487048
0.410231
0.333128
0.256489
0.18177
0.109865
0.0422846
-0.0199208
-0.0757681
-0.124554
-0.16544
-0.198067
-0.222441
-0.238696
-0.247462
-0.249373
-0.245314
-0.236138
-0.222779
-0.206112
-0.186967
-0.166082
-0.144127
-0.121649
-0.0991352
-0.0769626
-0.0554337
-0.0347963
-0.0152203
0.00316808
0.0202733
0.036063
0.050522
0.0636369
0.0754411
0.0860124
0.095395
0.103603
0.110681
0.116662
0.121599
0.125533
0.128518
0.130621
0.131877
0.132359
0.132118
0.131183
0.129622
0.127466
0.124759
0.121548
0.117869
0.113743
0.109219
0.104326
0.0990914
0.0935412
0.0877001
0.0815935
0.0752433
0.0686617
0.0618692
0.0548981
0.0477395
0.0404415
0.0328944
0.0251666
0.0169865
0.00829515
0.00205175
1.57479
1.4371
1.39622
1.35454
1.31117
1.27247
1.23348
1.19272
1.14965
1.10388
1.05501
1.00272
0.946977
0.887441
0.82426
0.757399
0.687127
0.613664
0.537465
0.459182
0.379442
0.299341
0.219934
0.142366
0.0679635
-0.00174549
-0.0658078
-0.123076
-0.172716
-0.213867
-0.246227
-0.269726
-0.284665
-0.291769
-0.291604
-0.285264
-0.273636
-0.257715
-0.238452
-0.216727
-0.19332
-0.168931
-0.144159
-0.119465
-0.0952729
-0.0718713
-0.0495081
-0.0283611
-0.00855052
0.0098587
0.0268204
0.0423218
0.05638
0.0690176
0.0803025
0.0903399
0.099125
0.106728
0.113181
0.118536
0.122836
0.126149
0.128535
0.130053
0.130755
0.130701
0.129944
0.128535
0.126515
0.123929
0.120816
0.117226
0.113191
0.108738
0.103906
0.098727
0.0932178
0.0874209
0.081352
0.0750383
0.0685071
0.0617657
0.0548556
0.0477344
0.0403881
0.032863
0.0251265
0.016987
0.00832933
0.00199247
1.56927
1.43152
1.39062
1.34875
1.30518
1.26614
1.22684
1.18558
1.14184
1.09526
1.04549
0.992168
0.935066
0.874102
0.80922
0.740521
0.668012
0.592278
0.513523
0.432533
0.350093
0.267175
0.185022
0.10484
0.0280044
-0.043713
-0.109535
-0.168074
-0.218449
-0.259808
-0.291773
-0.314554
-0.328188
-0.333631
-0.331522
-0.322961
-0.308985
-0.290612
-0.26887
-0.2447
-0.21891
-0.192226
-0.165275
-0.138548
-0.112447
-0.087289
-0.0633056
-0.0406772
-0.0195096
0.00010405
0.0181693
0.0346606
0.0495993
0.0630155
0.0749807
0.0856067
0.0949474
0.103033
0.109916
0.115664
0.120312
0.123937
0.126593
0.128341
0.129259
0.129395
0.128797
0.127528
0.125629
0.123154
0.120142
0.116631
0.112665
0.108282
0.103509
0.098376
0.0929191
0.0871563
0.08112
0.0748317
0.0682935
0.0615144
0.0545869
0.0475869
0.0403367
0.0327652
0.0250159
0.0169509
0.00833321
0.00198185
1.56444
1.42663
1.38555
1.34357
1.29986
1.26055
1.22087
1.17904
1.13473
1.08751
1.0368
0.982445
0.924152
0.86174
0.795258
0.72471
0.650278
0.572333
0.49121
0.407782
0.322668
0.237181
0.152512
0.0697973
-0.00901538
-0.0827953
-0.150091
-0.209817
-0.26084
-0.302318
-0.333982
-0.355829
-0.368298
-0.372114
-0.36818
-0.357584
-0.341433
-0.320805
-0.296791
-0.270363
-0.242376
-0.213592
-0.184638
-0.15603
-0.128175
-0.101402
-0.075935
-0.0519496
-0.0295613
-0.00881785
0.010243
0.0276354
0.0433836
0.0575212
0.0701163
0.0813043
0.0911316
0.0996625
0.106945
0.113044
0.118017
0.121908
0.124819
0.126787
0.127889
0.12819
0.127744
0.126604
0.124826
0.122442
0.119521
0.116089
0.112197
0.10787
0.10315
0.0980649
0.0926481
0.0869269
0.0809223
0.0746682
0.0681895
0.0614904
0.0546146
0.047529
0.0402195
0.0327162
0.0249451
0.0167881
0.00826892
0.00206581
1.56024
1.42238
1.38119
1.33917
1.29525
1.25567
1.21548
1.17335
1.12845
1.0805
1.02904
0.973733
0.914372
0.850684
0.782752
0.710583
0.634284
0.554312
0.471084
0.385335
0.297966
0.210069
0.123082
0.0382401
-0.0425918
-0.117903
-0.186795
-0.247441
-0.298997
-0.340508
-0.371757
-0.392874
-0.404237
-0.406645
-0.401009
-0.388564
-0.37044
-0.347772
-0.32172
-0.293266
-0.263314
-0.232643
-0.201909
-0.171619
-0.142206
-0.113989
-0.0871965
-0.0619952
-0.0384987
-0.016762
0.0031962
0.0213863
0.0378512
0.0526318
0.0658061
0.077469
0.0877458
0.0966676
0.104304
0.110717
0.115966
0.120114
0.12324
0.1254
0.126681
0.127131
0.126811
0.125788
0.124103
0.121821
0.118976
0.115611
0.111774
0.1075
0.102824
0.0977817
0.0924078
0.0867038
0.0807334
0.0745027
0.068023
0.0613276
0.0544255
0.047344
0.0401151
0.0326028
0.0248408
0.0167554
0.0082744
0.00210767
1.55673
1.41881
1.37756
1.33533
1.29142
1.25152
1.21103
1.16842
1.12305
1.07458
1.02235
0.966247
0.905849
0.841023
0.771846
0.69818
0.620322
0.53868
0.453517
0.365781
0.276363
0.186426
0.0974053
0.0106807
-0.0718043
-0.148655
-0.218589
-0.280084
-0.332074
-0.373568
-0.404505
-0.424872
-0.435204
-0.436385
-0.429296
-0.415247
-0.395422
-0.371008
-0.343181
-0.312984
-0.281344
-0.249053
-0.216764
-0.18504
-0.154277
-0.124812
-0.0968812
-0.070641
-0.0462015
-0.0236086
-0.00287816
0.0160086
0.0330922
0.0484246
0.0620895
0.0741874
0.0848299
0.0940953
0.102033
0.10872
0.114213
0.118566
0.121893
0.124214
0.125635
0.126222
0.126013
0.12509
0.123496
0.121282
0.118505
0.115201
0.11142
0.10719
0.102559
0.0975458
0.0921974
0.0865364
0.0805797
0.0743694
0.0679276
0.061258
0.0543998
0.0473488
0.0400872
0.0325927
0.0248341
0.0167131
0.00820233
0.00205855
1.5539
1.41593
1.3746
1.33229
1.28812
1.24813
1.2074
1.16443
1.11868
1.06959
1.01689
0.960046
0.898863
0.833153
0.762845
0.688048
0.608827
0.525573
0.438941
0.349513
0.25842
0.166812
0.0761269
-0.0122208
-0.0960155
-0.174
-0.244957
-0.307161
-0.359421
-0.400839
-0.431412
-0.451233
-0.46078
-0.460864
-0.452565
-0.43717
-0.41594
-0.390084
-0.360811
-0.329187
-0.296143
-0.262519
-0.228979
-0.196048
-0.164187
-0.13371
-0.104835
-0.0777447
-0.0525198
-0.0292213
-0.00784898
0.0115965
0.0291956
0.0449832
0.0590503
0.0714978
0.0824512
0.0919965
0.100178
0.107086
0.112771
0.117311
0.120778
0.123245
0.124789
0.125473
0.125357
0.124515
0.122987
0.120846
0.118121
0.114866
0.111127
0.10693
0.102333
0.0973518
0.0920308
0.0863774
0.0804504
0.0742588
0.067815
0.0611596
0.0542864
0.0472184
0.039978
0.0324905
0.0248073
0.0167308
0.00819381
0.00206457
1.55175
1.41375
1.37237
1.32997
1.28556
1.24547
1.20474
1.16145
1.11532
1.06589
1.01263
0.955321
0.893416
0.826991
0.755901
0.680063
0.599862
0.515607
0.427644
0.33706
0.244553
0.151676
0.0597149
-0.0299077
-0.114581
-0.193532
-0.265254
-0.327973
-0.380453
-0.421784
-0.452133
-0.471447
-0.480256
-0.4796
-0.470373
-0.453971
-0.431657
-0.404692
-0.374298
-0.341577
-0.307475
-0.272834
-0.238309
-0.204486
-0.171775
-0.140506
-0.110915
-0.0831656
-0.0573449
-0.0335112
-0.0116579
0.00823304
0.0262086
0.0423521
0.0567244
0.0694474
0.0806286
0.0903918
0.0987617
0.105841
0.111681
0.116352
0.119942
0.122506
0.124142
0.124904
0.124867
0.124085
0.122616
0.120514
0.117831
0.114619
0.110903
0.106747
0.102165
0.0972011
0.091897
0.086277
0.080357
0.0741798
0.0677599
0.0611128
0.0542735
0.0472275
0.0400179
0.0325578
0.024849
0.0167344
0.00817108
0.00202626
1.55032
1.41227
1.37086
1.32841
1.28412
1.24381
1.20257
1.15921
1.11296
1.06328
1.00979
0.952035
0.889856
0.822871
0.751204
0.674787
0.593828
0.508696
0.419958
0.328444
0.235071
0.141389
0.0484646
-0.0418558
-0.127358
-0.206705
-0.278955
-0.342054
-0.394646
-0.435925
-0.46604
-0.485128
-0.493536
-0.492241
-0.482402
-0.465315
-0.442268
-0.414553
-0.383421
-0.349956
-0.315129
-0.279792
-0.244619
-0.210179
-0.176893
-0.145106
-0.115034
-0.0868396
-0.0606198
-0.0364182
-0.0142355
0.00594592
0.024194
0.0405782
0.05516
0.0680647
0.0794128
0.0893057
0.0978156
0.104995
0.110942
0.115704
0.119367
0.12201
0.123704
0.124524
0.124529
0.123785
0.122358
0.120291
0.117639
0.114449
0.110764
0.106613
0.102053
0.0971141
0.0918115
0.0862002
0.080285
0.0741188
0.0676904
0.0610598
0.0541927
0.0471486
0.0399379
0.0324457
0.0248002
0.0167383
0.00818609
0.00198271
1.5496
1.41157
1.37015
1.32769
1.28337
1.24295
1.20163
1.15814
1.11179
1.06203
1.00832
0.950447
0.887906
0.820752
0.748806
0.672029
0.590781
0.505305
0.416159
0.324194
0.230382
0.136178
0.0428114
-0.0480009
-0.134411
-0.213568
-0.285431
-0.34881
-0.401782
-0.443104
-0.473141
-0.492006
-0.500174
-0.498609
-0.488477
-0.471043
-0.447616
-0.419524
-0.388013
-0.354169
-0.318989
-0.283304
-0.247797
-0.213047
-0.179473
-0.14742
-0.117093
-0.0886752
-0.0622595
-0.0378713
-0.0155304
0.0048044
0.0231777
0.0396774
0.0543682
0.0673629
0.0787886
0.0887622
0.0973327
0.104574
0.110569
0.115378
0.119085
0.121759
0.123487
0.124333
0.124368
0.123643
0.122238
0.120181
0.117543
0.114367
0.110687
0.106558
0.101995
0.0970596
0.091774
0.0861643
0.0802661
0.0741023
0.0676897
0.0610573
0.0542197
0.0471881
0.0399893
0.0325265
0.0248133
0.016708
0.00818129
0.00203895
1.5496
1.41158
1.37018
1.32772
1.28343
1.24296
1.20165
1.15811
1.1118
1.06199
1.00834
0.950453
0.887941
0.820833
0.748844
0.672105
0.590816
0.505277
0.416157
0.324181
0.230362
0.136178
0.0428294
-0.047965
-0.134305
-0.213468
-0.285445
-0.348852
-0.401848
-0.443091
-0.473115
-0.492012
-0.500194
-0.498622
-0.488488
-0.471051
-0.447628
-0.41953
-0.388022
-0.354165
-0.318982
-0.283291
-0.247785
-0.213037
-0.179453
-0.147396
-0.11708
-0.0886613
-0.062239
-0.0378519
-0.0155097
0.00482536
0.0232013
0.0397006
0.0543937
0.0673848
0.0788142
0.0887844
0.0973565
0.104598
0.110597
0.115401
0.119106
0.121778
0.123503
0.124353
0.124379
0.123662
0.122248
0.120199
0.117557
0.114381
0.1107
0.106562
0.102009
0.0970719
0.0917849
0.0861692
0.0802685
0.0740985
0.067677
0.061042
0.0541854
0.0471363
0.0399296
0.0324447
0.0247701
0.0167111
0.00818266
0.00204506
1.55033
1.4123
1.37092
1.3285
1.28419
1.24387
1.2026
1.15921
1.11296
1.06329
1.00978
0.952049
0.889879
0.822856
0.751274
0.674801
0.593889
0.508831
0.420061
0.328542
0.235193
0.141458
0.0485151
-0.0417999
-0.127335
-0.206731
-0.278863
-0.34201
-0.394604
-0.435948
-0.466104
-0.485125
-0.493539
-0.492233
-0.482397
-0.465315
-0.44226
-0.414546
-0.383405
-0.34993
-0.315115
-0.279771
-0.244597
-0.210149
-0.176864
-0.145066
-0.114988
-0.0867922
-0.0605692
-0.0363692
-0.0141862
0.00599717
0.0242376
0.0406166
0.055196
0.0680996
0.0794479
0.0893453
0.0978523
0.105032
0.110978
0.115742
0.119401
0.122045
0.123741
0.124555
0.124566
0.12382
0.122396
0.120323
0.117664
0.114476
0.11078
0.10664
0.102072
0.0971262
0.0918324
0.0862118
0.080308
0.0741331
0.0677202
0.0610833
0.0542444
0.0472078
0.0399888
0.0325347
0.0248025
0.0166556
0.00818043
0.00208231
1.55173
1.41373
1.37238
1.32998
1.28561
1.24548
1.20462
1.16142
1.11527
1.06585
1.01265
0.95529
0.893439
0.827059
0.75591
0.680139
0.599948
0.515569
0.42772
0.337083
0.244637
0.151766
0.0597213
-0.0297997
-0.11461
-0.193516
-0.265156
-0.327828
-0.380383
-0.421803
-0.452097
-0.471463
-0.480256
-0.479585
-0.470377
-0.453972
-0.431653
-0.404677
-0.374291
-0.34155
-0.307443
-0.272791
-0.238263
-0.204438
-0.171714
-0.140445
-0.110858
-0.0831032
-0.0572894
-0.0334388
-0.0115865
0.00829609
0.026279
0.0424193
0.0567942
0.0695127
0.0806974
0.0904565
0.0988336
0.105905
0.111747
0.116415
0.119998
0.122564
0.124194
0.124958
0.12492
0.124133
0.122662
0.120563
0.117878
0.114656
0.110945
0.106777
0.102199
0.0972345
0.0919268
0.0862984
0.0803822
0.0741946
0.0677647
0.061118
0.0542539
0.0471858
0.0399604
0.0324649
0.0248089
0.0167419
0.00816873
0.00201155
1.55384
1.41587
1.37455
1.33224
1.28803
1.24809
1.20737
1.1644
1.11869
1.06957
1.01685
0.96002
0.898872
0.833115
0.762883
0.688046
0.608844
0.525697
0.438973
0.349596
0.258477
0.166895
0.076159
-0.0121843
-0.0959985
-0.17404
-0.244902
-0.307068
-0.359318
-0.400871
-0.431453
-0.45127
-0.460788
-0.460844
-0.452574
-0.437179
-0.415931
-0.390071
-0.360784
-0.329147
-0.296104
-0.26247
-0.228916
-0.195977
-0.164111
-0.133622
-0.104743
-0.0776499
-0.0524175
-0.0291229
-0.00774573
0.0117104
0.0292968
0.0450868
0.0591582
0.0716026
0.0825567
0.0921
0.100282
0.107183
0.112873
0.117409
0.12087
0.123339
0.124878
0.125557
0.125441
0.124594
0.123071
0.120921
0.118189
0.11493
0.111185
0.106988
0.102382
0.0973949
0.0920626
0.0864122
0.0804793
0.0742763
0.0678406
0.0611774
0.0543228
0.0472613
0.0400379
0.0325851
0.0248813
0.0167904
0.00820644
0.00201396
1.55665
1.41873
1.37746
1.33527
1.29125
1.25143
1.21098
1.16841
1.12303
1.07449
1.02237
0.966188
0.905827
0.841096
0.771893
0.698236
0.620389
0.538646
0.45356
0.365847
0.276435
0.186494
0.0974601
0.0107229
-0.0717573
-0.148577
-0.218573
-0.28006
-0.332004
-0.373616
-0.404493
-0.424886
-0.43521
-0.436398
-0.429332
-0.415249
-0.395406
-0.370985
-0.343151
-0.312939
-0.281284
-0.248986
-0.216681
-0.184945
-0.154173
-0.124701
-0.0967686
-0.070519
-0.0460692
-0.0234744
-0.00273728
0.0161454
0.0332299
0.0485689
0.0622347
0.0743289
0.084973
0.0942384
0.102178
0.108857
0.114343
0.118711
0.122013
0.124342
0.125755
0.126327
0.126123
0.125196
0.123595
0.12138
0.118596
0.115284
0.111495
0.107256
0.102615
0.0975943
0.0922351
0.086566
0.0806109
0.0743943
0.0679319
0.061263
0.0543687
0.0473016
0.0400445
0.0325405
0.0248488
0.0167431
0.00817868
0.00200424
1.56014
1.42227
1.38109
1.33904
1.29511
1.2556
1.21542
1.17325
1.12843
1.08043
1.029
0.973698
0.914332
0.850709
0.782736
0.710585
0.634333
0.554378
0.471162
0.385404
0.298009
0.210177
0.123165
0.0382821
-0.0425141
-0.117973
-0.186673
-0.247453
-0.298951
-0.3405
-0.371797
-0.392852
-0.404273
-0.406596
-0.401004
-0.388538
-0.370386
-0.347733
-0.32166
-0.293199
-0.26323
-0.232552
-0.2018
-0.171493
-0.142071
-0.113845
-0.0870433
-0.0618421
-0.0383361
-0.0166019
0.00335843
0.0215629
0.0380216
0.052804
0.0659872
0.0776496
0.0879251
0.0968483
0.104471
0.110891
0.116131
0.120277
0.123395
0.125555
0.126827
0.127273
0.126947
0.125914
0.124232
0.121936
0.119081
0.115709
0.111869
0.107588
0.102903
0.0978512
0.0924524
0.0867579
0.0807693
0.0745311
0.0680447
0.0613498
0.0544463
0.0473559
0.0400936
0.0326001
0.0248717
0.0167139
0.0082143
0.0020977
1.5643
1.42649
1.38539
1.34348
1.29981
1.26048
1.22068
1.1789
1.13465
1.08733
1.03679
0.982374
0.924108
0.861768
0.795299
0.724747
0.650346
0.572327
0.491319
0.407803
0.322825
0.237263
0.152537
0.069956
-0.00904762
-0.082687
-0.15006
-0.209796
-0.260761
-0.30229
-0.333936
-0.355799
-0.368286
-0.372126
-0.368195
-0.357579
-0.341386
-0.320749
-0.29672
-0.270277
-0.242274
-0.213478
-0.1845
-0.155883
-0.128015
-0.101229
-0.075755
-0.0517582
-0.0293511
-0.00860749
0.0104583
0.0278438
0.043593
0.0577289
0.0703299
0.0815116
0.0913467
0.0998767
0.107159
0.113253
0.118215
0.122115
0.125006
0.12697
0.12807
0.128359
0.127905
0.126764
0.124965
0.122581
0.11965
0.116211
0.112303
0.107965
0.103233
0.0981295
0.0927019
0.0869641
0.0809647
0.0746899
0.0681828
0.0614767
0.0545646
0.0474669
0.0402038
0.0327031
0.0249581
0.0168044
0.00822681
0.00202352
1.56916
1.43137
1.39043
1.34862
1.3052
1.26611
1.22654
1.18531
1.1417
1.09519
1.04544
0.992072
0.935076
0.874039
0.809198
0.74048
0.668063
0.592276
0.513606
0.43261
0.350206
0.267255
0.185109
0.104952
0.0281419
-0.0437005
-0.109402
-0.16806
-0.218412
-0.259806
-0.291793
-0.314467
-0.32817
-0.333511
-0.331442
-0.322883
-0.308871
-0.290508
-0.268758
-0.244572
-0.218766
-0.192074
-0.165114
-0.138357
-0.11225
-0.0870736
-0.0630884
-0.0404487
-0.019281
0.000345346
0.018408
0.0349024
0.04984
0.0632635
0.0752318
0.0858595
0.0952017
0.103283
0.110169
0.11591
0.120553
0.124156
0.126814
0.128554
0.129466
0.129588
0.128983
0.127699
0.125801
0.123311
0.120285
0.116766
0.112789
0.108398
0.103608
0.0984624
0.0929882
0.0872176
0.0811688
0.0748692
0.0683386
0.0615938
0.054644
0.0475198
0.040233
0.0327664
0.0250299
0.0168756
0.00825713
0.00197688
1.57463
1.43692
1.39606
1.35437
1.3109
1.27225
1.23339
1.19261
1.14953
1.10374
1.05489
1.00268
0.946841
0.887444
0.824269
0.757421
0.687186
0.613673
0.537563
0.459263
0.379557
0.29951
0.220014
0.142482
0.0680786
-0.00167997
-0.0656883
-0.123021
-0.172606
-0.213761
-0.246102
-0.269631
-0.284613
-0.291665
-0.291548
-0.285186
-0.273537
-0.257599
-0.238316
-0.216573
-0.19315
-0.168753
-0.143952
-0.119252
-0.0950396
-0.0716323
-0.0492615
-0.0280984
-0.0082767
0.0101477
0.0271078
0.0426168
0.0566684
0.0693047
0.0805902
0.0906231
0.0994136
0.107012
0.113464
0.118809
0.123109
0.126416
0.128789
0.130293
0.130992
0.130923
0.130161
0.128741
0.126701
0.124105
0.120986
0.117377
0.113327
0.108862
0.10401
0.09882
0.0932914
0.0874788
0.0814017
0.0750684
0.0685062
0.0617507
0.0547932
0.0476521
0.0403744
0.0328437
0.0250479
0.0168762
0.00827471
0.00203354
1.58081
1.44318
1.40239
1.3608
1.31771
1.27922
1.24055
1.20025
1.15792
1.11296
1.06503
1.01394
0.959492
0.901551
0.840122
0.775301
0.707196
0.636242
0.562711
0.487178
0.410425
0.333182
0.256646
0.181877
0.110039
0.0423656
-0.0197303
-0.0757146
-0.124441
-0.165338
-0.198016
-0.222296
-0.23858
-0.247319
-0.249234
-0.245162
-0.235972
-0.222605
-0.205927
-0.186768
-0.165871
-0.143894
-0.121409
-0.0988741
-0.0766924
-0.055148
-0.0345051
-0.0149123
0.00347549
0.0205897
0.0363858
0.0508409
0.0639638
0.0757655
0.0863384
0.0957216
0.103931
0.111004
0.116985
0.121917
0.125838
0.128813
0.130899
0.13215
0.132621
0.132359
0.131421
0.129837
0.127678
0.124957
0.121732
0.118036
0.113895
0.109367
0.104449
0.0991984
0.0936298
0.0877714
0.0816476
0.0752789
0.0686875
0.0618957
0.0549019
0.047736
0.0403804
0.0328057
0.0249981
0.0167837
0.00829106
0.00213602
1.58766
1.4501
1.40939
1.36791
1.32499
1.28682
1.24838