/*--------------------------------*- C++ -*----------------------------------*\
  =========                 |
  \\      /  F ield         | OpenFOAM: The Open Source CFD Toolbox
   \\    /   O peration     | Website:  https://openfoam.org
    \\  /    A nd           | Version:  11
     \\/     M anipulation  |
\*---------------------------------------------------------------------------*/
FoamFile
{
    format      ascii;
    class       volScalarField;
    location    "0.096";
    object      k;
}
// * * * * * * * * * * * * * * * * * * * * * * * * * * * * * * * * * * * * * //

dimensions      [0 2 -2 0 0 0 0];

internalField   nonuniform List<scalar> 
287084
(
0.381718
0.393924
0.406419
0.419259
0.430758
0.439339
0.444408
0.446375
0.446636
0.446639
0.446634
0.446525
0.446482
0.446536
0.446538
0.446651
0.446774
0.446677
0.446749
0.446794
0.446773
0.446766
0.446635
0.446773
0.447023
0.447026
0.446998
0.446964
0.446884
0.446824
0.446885
0.446889
0.446776
0.446817
0.446851
0.446802
0.446763
0.446761
0.446761
0.44673
0.446732
0.446686
0.446582
0.446526
0.446444
0.446381
0.446341
0.446278
0.446238
0.446161
0.445989
0.445797
0.44586
0.445967
0.445952
0.445917
0.445945
0.445957
0.445914
0.445779
0.445769
0.445858
0.445866
0.445868
0.445792
0.445977
0.446144
0.446124
0.446089
0.445978
0.446044
0.446127
0.446088
0.445997
0.445921
0.44596
0.445926
0.446028
0.446219
0.446237
0.446205
0.446159
0.446046
0.44606
0.446227
0.446161
0.446241
0.446287
0.446233
0.446019
0.381717
0.393924
0.406285
0.419008
0.430496
0.439228
0.444571
0.446648
0.446951
0.447014
0.447209
0.447111
0.44717
0.447348
0.447324
0.447325
0.447327
0.447311
0.4473
0.447279
0.447228
0.44706
0.447046
0.447312
0.447324
0.447456
0.447577
0.447481
0.447523
0.44754
0.447508
0.447463
0.447431
0.447351
0.44708
0.447063
0.447107
0.447115
0.44711
0.446871
0.446864
0.446947
0.44694
0.446908
0.446895
0.446883
0.446754
0.446608
0.446663
0.446785
0.446754
0.446751
0.446736
0.446748
0.44672
0.446716
0.446683
0.446632
0.44662
0.446595
0.446531
0.446311
0.446307
0.446577
0.446615
0.446568
0.44641
0.446422
0.446576
0.446592
0.446594
0.446473
0.446539
0.446757
0.446791
0.446761
0.446713
0.446715
0.446674
0.446506
0.446494
0.446566
0.446585
0.446588
0.446516
0.446515
0.446449
0.44651
0.446533
0.446365
0.381716
0.393932
0.406235
0.419017
0.430491
0.439074
0.444469
0.446835
0.447323
0.447323
0.44729
0.447141
0.447172
0.447259
0.447265
0.447264
0.447076
0.447087
0.44741
0.447476
0.447466
0.447464
0.447287
0.447318
0.447498
0.447498
0.447502
0.447496
0.447492
0.447464
0.44746
0.447389
0.447379
0.447361
0.447322
0.447312
0.447344
0.447329
0.44734
0.447302
0.447226
0.447057
0.446806
0.446766
0.446805
0.44682
0.446815
0.446652
0.446607
0.446686
0.446755
0.446737
0.446709
0.446712
0.446685
0.446666
0.446602
0.446614
0.446619
0.446557
0.446403
0.446323
0.446429
0.446513
0.446473
0.446318
0.446345
0.446585
0.446527
0.446628
0.446709
0.446703
0.44669
0.446693
0.446703
0.446681
0.446673
0.446507
0.446432
0.446457
0.446475
0.446449
0.446379
0.446374
0.446341
0.446443
0.446679
0.446682
0.446662
0.446432
0.381713
0.393894
0.406267
0.419015
0.430415
0.43899
0.444394
0.446875
0.447363
0.447368
0.447319
0.447371
0.447472
0.447474
0.447474
0.447419
0.447403
0.447209
0.447206
0.447346
0.44729
0.447288
0.447287
0.447213
0.447202
0.447352
0.447386
0.447365
0.447355
0.447181
0.447217
0.447388
0.447259
0.447338
0.447411
0.447391
0.447376
0.447344
0.447339
0.447288
0.447287
0.447248
0.44725
0.447219
0.447161
0.446998
0.446885
0.446815
0.446784
0.44672
0.446503
0.446493
0.446561
0.446567
0.446543
0.446548
0.446574
0.446545
0.446523
0.446408
0.446509
0.446587
0.446554
0.446553
0.446554
0.446522
0.446504
0.446467
0.446358
0.446404
0.446604
0.446538
0.446621
0.446671
0.446653
0.44665
0.44654
0.446555
0.446518
0.446617
0.446776
0.446773
0.446772
0.446633
0.446643
0.446712
0.446666
0.446672
0.446661
0.446454
0.381713
0.393876
0.40631
0.418948
0.430357
0.439138
0.444244
0.446734
0.447414
0.447423
0.447375
0.447202
0.44723
0.447331
0.447219
0.447213
0.44721
0.447151
0.447107
0.447226
0.447306
0.447265
0.447114
0.44711
0.447287
0.447259
0.447296
0.447301
0.447197
0.447261
0.447384
0.447217
0.447276
0.447346
0.447346
0.447345
0.447287
0.447169
0.44708
0.447069
0.446986
0.447072
0.447116
0.446998
0.447036
0.447049
0.446953
0.446995
0.447006
0.446957
0.446961
0.446938
0.446919
0.446853
0.446825
0.446789
0.446714
0.446549
0.446305
0.446333
0.446444
0.44639
0.44642
0.446469
0.44644
0.446385
0.446264
0.44619
0.446353
0.446464
0.446428
0.446297
0.446271
0.446484
0.446491
0.446616
0.446776
0.44661
0.446661
0.446767
0.44662
0.446699
0.446769
0.44676
0.446755
0.446538
0.446561
0.446634
0.446597
0.446458
0.381711
0.393898
0.406258
0.418924
0.430479
0.439106
0.444201
0.446316
0.447243
0.447291
0.447145
0.447212
0.447279
0.447278
0.447277
0.447197
0.447091
0.447118
0.44734
0.447362
0.447392
0.447359
0.447312
0.447172
0.447205
0.447278
0.447201
0.447148
0.447281
0.447439
0.447294
0.447372
0.447436
0.447426
0.447424
0.447381
0.447353
0.447187
0.447087
0.447022
0.446833
0.446861
0.446941
0.446909
0.446925
0.446901
0.446865
0.446798
0.44669
0.446573
0.446602
0.446671
0.446639
0.446577
0.446516
0.446597
0.446659
0.446618
0.446623
0.446634
0.446623
0.446467
0.446493
0.446536
0.446512
0.446507
0.446384
0.446404
0.446404
0.446528
0.44675
0.446726
0.446729
0.446731
0.446707
0.446588
0.446485
0.446489
0.446459
0.446579
0.446698
0.446705
0.446706
0.44659
0.446577
0.446483
0.446563
0.446686
0.446649
0.446513
0.381709
0.393876
0.406279
0.41888
0.430552
0.439004
0.444158
0.446598
0.447211
0.447238
0.447214
0.447204
0.447042
0.447069
0.447228
0.447134
0.447215
0.447661
0.447724
0.447622
0.447708
0.447813
0.447789
0.447787
0.44776
0.447752
0.447585
0.447623
0.447659
0.447605
0.447594
0.447567
0.447562
0.447522
0.447425
0.447391
0.447352
0.447321
0.447264
0.44709
0.447054
0.447039
0.447039
0.447037
0.446991
0.446944
0.446893
0.446875
0.446821
0.446788
0.446781
0.446746
0.446617
0.44651
0.446487
0.446472
0.446479
0.446473
0.446327
0.446319
0.446444
0.446443
0.446501
0.446527
0.446487
0.446385
0.446332
0.446443
0.446541
0.446502
0.446357
0.446368
0.44648
0.446471
0.446481
0.446427
0.446448
0.446429
0.44652
0.446556
0.446532
0.446464
0.4465
0.446693
0.446693
0.446672
0.446494
0.446518
0.446612
0.44643
0.381736
0.393835
0.406275
0.419052
0.430334
0.438862
0.444227
0.446996
0.447791
0.44781
0.447753
0.447709
0.447732
0.447796
0.447768
0.447649
0.447748
0.447854
0.447853
0.447853
0.447763
0.447747
0.447611
0.447668
0.447822
0.447699
0.447787
0.447859
0.447827
0.447823
0.447756
0.447737
0.447706
0.447712
0.447739
0.44773
0.447697
0.44764
0.44744
0.447311
0.447187
0.447138
0.447113
0.447123
0.447123
0.447048
0.447039
0.447014
0.446996
0.446951
0.446921
0.446854
0.446628
0.446614
0.446709
0.446735
0.446737
0.446637
0.44663
0.446551
0.44663
0.446771
0.446666
0.446734
0.44682
0.446818
0.446818
0.44675
0.446733
0.446638
0.446452
0.44652
0.446727
0.446734
0.446732
0.446627
0.446542
0.446655
0.446801
0.446742
0.446766
0.446733
0.446696
0.44659
0.446603
0.446695
0.446645
0.446671
0.446634
0.446453
0.381715
0.393887
0.406228
0.41899
0.430426
0.438975
0.444234
0.446659
0.447187
0.447189
0.447175
0.447002
0.447002
0.447269
0.447262
0.447377
0.447534
0.447424
0.447383
0.447521
0.447578
0.447674
0.447835
0.447737
0.447681
0.44767
0.447621
0.44772
0.447873
0.44772
0.447796
0.447871
0.447865
0.447862
0.447808
0.447795
0.44772
0.447702
0.447649
0.447554
0.447361
0.447238
0.44714
0.446914
0.446787
0.446783
0.446674
0.446705
0.446831
0.446779
0.446809
0.446816
0.446766
0.446814
0.446831
0.446798
0.446768
0.446589
0.446499
0.446492
0.44649
0.446427
0.44639
0.446442
0.446409
0.446498
0.446549
0.446509
0.446504
0.446385
0.4465
0.446733
0.446697
0.446716
0.446697
0.446665
0.446632
0.446583
0.446593
0.446554
0.446645
0.446894
0.446859
0.44687
0.446912
0.446906
0.44688
0.446879
0.4468
0.446519
0.381776
0.393816
0.406212
0.419014
0.430429
0.438988
0.444256
0.4465
0.446879
0.446788
0.446841
0.447216
0.447291
0.447255
0.447189
0.447112
0.447204
0.447486
0.447473
0.447466
0.447466
0.447458
0.447419
0.447255
0.447328
0.447489
0.447466
0.447463
0.447357
0.447343
0.447327
0.447446
0.447498
0.447449
0.447432
0.447399
0.447392
0.447355
0.447348
0.447269
0.44704
0.44699
0.446972
0.44699
0.446992
0.44696
0.446951
0.446864
0.446846
0.446787
0.44666
0.446522
0.446402
0.446366
0.446315
0.446148
0.446189
0.446243
0.446183
0.446105
0.446186
0.446465
0.446384
0.446469
0.446527
0.446521
0.446519
0.446375
0.446328
0.446439
0.446545
0.446527
0.446499
0.446479
0.446442
0.446411
0.446402
0.446302
0.446404
0.446661
0.446671
0.446669
0.446509
0.446472
0.446572
0.44655
0.446662
0.446753
0.446709
0.446544
0.381734
0.393864
0.406255
0.418966
0.430386
0.439005
0.444328
0.446539
0.446901
0.446966
0.447141
0.447138
0.447106
0.446993
0.447058
0.447137
0.447016
0.44708
0.447331
0.447326
0.447527
0.447829
0.447842
0.447814
0.447777
0.447737
0.447619
0.447514
0.447605
0.447662
0.44764
0.447633
0.44755
0.447513
0.447331
0.44737
0.447431
0.447239
0.447275
0.447343
0.447341
0.447338
0.447279
0.447272
0.44723
0.447165
0.446949
0.446621
0.446537
0.446492
0.446327
0.446361
0.446475
0.4464
0.446454
0.446467
0.446424
0.446427
0.446413
0.446265
0.446281
0.446473
0.446513
0.446474
0.446322
0.446385
0.446541
0.446518
0.446486
0.446326
0.446376
0.446461
0.446321
0.446289
0.446481
0.446618
0.446625
0.446625
0.446468
0.446428
0.446472
0.446444
0.446428
0.446604
0.446765
0.446679
0.446738
0.446763
0.44671
0.446526
0.381706
0.393886
0.406257
0.418951
0.430444
0.438954
0.444204
0.446742
0.447399
0.447433
0.447411
0.4474
0.447262
0.447329
0.447565
0.447451
0.447542
0.447644
0.447569
0.447567
0.447526
0.447691
0.447853
0.447835
0.447834
0.447711
0.447809
0.447927
0.447834
0.447882
0.447941
0.447895
0.447892
0.44789
0.447889
0.447839
0.447764
0.447716
0.447677
0.447641
0.447588
0.447475
0.447394
0.447227
0.447013
0.446828
0.44675
0.446708
0.446676
0.446637
0.446561
0.446321
0.446293
0.446439
0.446584
0.446555
0.4464
0.446453
0.446574
0.446486
0.446525
0.446545
0.446502
0.446382
0.4463
0.446468
0.446598
0.446596
0.446596
0.446447
0.446518
0.446666
0.446673
0.446673
0.4465
0.44656
0.446651
0.446647
0.446645
0.446471
0.446521
0.44665
0.446625
0.446564
0.446517
0.446613
0.446668
0.446638
0.446604
0.446473
0.38175
0.393806
0.406303
0.419037
0.430311
0.438846
0.444355
0.446865
0.447311
0.447274
0.447413
0.447608
0.447591
0.447539
0.447529
0.447466
0.447493
0.447846
0.447953
0.447918
0.447785
0.447795
0.447915
0.447781
0.447793
0.447948
0.447869
0.447948
0.44808
0.447903
0.447956
0.448012
0.447998
0.447995
0.447952
0.447927
0.447811
0.447723
0.447653
0.447589
0.44746
0.447363
0.447295
0.447244
0.447187
0.447067
0.446973
0.446759
0.446599
0.446632
0.446691
0.44665
0.446657
0.446659
0.446669
0.446642
0.446603
0.446561
0.446532
0.446529
0.446487
0.446483
0.446366
0.446438
0.44661
0.446605
0.446612
0.446598
0.446588
0.446549
0.446442
0.446485
0.446659
0.446669
0.446663
0.446498
0.446451
0.446646
0.446738
0.446729
0.446727
0.44658
0.446591
0.446682
0.446639
0.446687
0.44671
0.446695
0.446675
0.446473
0.381726
0.393889
0.406226
0.418899
0.43055
0.438986
0.444196
0.446468
0.44687
0.446911
0.446895
0.446767
0.446803
0.44702
0.447065
0.447038
0.446971
0.447058
0.447388
0.44751
0.447466
0.447463
0.447383
0.447392
0.447719
0.447956
0.447824
0.447773
0.447782
0.447714
0.447792
0.447876
0.447804
0.447805
0.447774
0.447741
0.447693
0.447593
0.447456
0.447363
0.447201
0.447035
0.446969
0.44684
0.446798
0.446766
0.446751
0.446634
0.446619
0.446773
0.446792
0.446766
0.446767
0.446746
0.446731
0.446641
0.446586
0.446526
0.446334
0.44638
0.446544
0.44652
0.44649
0.446343
0.446358
0.446434
0.446391
0.446392
0.446392
0.446338
0.446305
0.446502
0.446665
0.446621
0.446654
0.446704
0.446683
0.446647
0.446657
0.446606
0.446432
0.446458
0.446741
0.446742
0.446776
0.446782
0.446744
0.446746
0.446724
0.446561
0.381735
0.393843
0.40626
0.419064
0.430336
0.438791
0.444334
0.446938
0.447522
0.447657
0.447666
0.447623
0.447629
0.447602
0.447537
0.447625
0.447715
0.447615
0.447704
0.447759
0.447687
0.447671
0.447854
0.448005
0.447892
0.448002
0.44818
0.447994
0.448047
0.448114
0.447909
0.447954
0.447978
0.447882
0.447803
0.447765
0.44777
0.447768
0.447763
0.44769
0.447614
0.447505
0.447272
0.447036
0.446836
0.44673
0.446683
0.446617
0.446519
0.446452
0.446384
0.446365
0.446363
0.446308
0.446304
0.446225
0.446289
0.446511
0.446525
0.446528
0.446494
0.446382
0.446416
0.44657
0.446567
0.4465
0.446513
0.446723
0.44674
0.446695
0.446552
0.446518
0.446622
0.446666
0.446619
0.446436
0.446423
0.446683
0.44675
0.446705
0.44671
0.446686
0.446499
0.446496
0.446701
0.446732
0.446709
0.446713
0.446655
0.446419
0.381699
0.393906
0.406314
0.418865
0.430485
0.438937
0.444183
0.446713
0.447344
0.44735
0.447319
0.447237
0.447264
0.447278
0.447234
0.44721
0.447346
0.447541
0.447527
0.447466
0.447512
0.447584
0.44746
0.447569
0.447789
0.447626
0.447615
0.447842
0.447928
0.447906
0.447902
0.447841
0.447709
0.447657
0.447598
0.447476
0.447429
0.447397
0.447345
0.447299
0.44726
0.447212
0.447177
0.447124
0.447074
0.447044
0.447036
0.446962
0.446933
0.446827
0.446557
0.446347
0.446377
0.446413
0.446374
0.446253
0.446268
0.44633
0.446288
0.446607
0.446934
0.446967
0.446938
0.446895
0.446871
0.446681
0.446636
0.446721
0.446676
0.446778
0.446856
0.446757
0.446809
0.446874
0.446859
0.446841
0.446693
0.446554
0.446582
0.446649
0.44661
0.446477
0.446549
0.446737
0.446735
0.446742
0.446688
0.446678
0.446633
0.44649
0.381723
0.393862
0.406253
0.419069
0.430378
0.438742
0.444192
0.447078
0.44787
0.447892
0.447863
0.4478
0.447795
0.447763
0.447756
0.447925
0.448033
0.447996
0.447995
0.44787
0.447866
0.448017
0.448101
0.448069
0.447942
0.447988
0.448137
0.448162
0.448118
0.447964
0.448023
0.448047
0.447971
0.447982
0.447917
0.447885
0.447885
0.447882
0.447809
0.447737
0.447665
0.447572
0.447376
0.447163
0.446982
0.446874
0.446801
0.446763
0.446719
0.446624
0.446395
0.446179
0.446182
0.446265
0.446239
0.446115
0.446175
0.446471
0.446449
0.446545
0.446601
0.446563
0.446436
0.446467
0.446578
0.446518
0.44648
0.446581
0.446671
0.446651
0.446666
0.446632
0.446548
0.446505
0.446687
0.446769
0.446705
0.446704
0.446699
0.446654
0.446529
0.446609
0.446756
0.446718
0.446721
0.446673
0.446714
0.446732
0.446672
0.446464
0.38172
0.393879
0.406213
0.419098
0.430364
0.438729
0.444298
0.447049
0.447725
0.4479
0.447995
0.447997
0.447997
0.447952
0.447857
0.447822
0.447834
0.447742
0.447835
0.448012
0.44787
0.447914
0.448127
0.448096
0.448078
0.44826
0.448384
0.448299
0.448339
0.448386
0.448363
0.448355
0.448291
0.448252
0.448207
0.448151
0.448088
0.44802
0.447896
0.447704
0.44754
0.447421
0.447264
0.447126
0.447021
0.446958
0.446853
0.446621
0.446278
0.446256
0.4464
0.446376
0.446377
0.446376
0.446282
0.446252
0.446378
0.44646
0.446451
0.44642
0.446364
0.446342
0.44658
0.446758
0.446663
0.446728
0.446816
0.446783
0.44678
0.446751
0.446557
0.446557
0.446756
0.446743
0.446743
0.4467
0.446798
0.446859
0.446722
0.446766
0.446788
0.44674
0.446632
0.446566
0.446681
0.446753
0.446709
0.446709
0.446676
0.446444
0.381734
0.393836
0.406283
0.419063
0.430326
0.438829
0.444212
0.447003
0.447702
0.447679
0.447678
0.447675
0.447678
0.447645
0.447774
0.447858
0.447845
0.447846
0.447706
0.447782
0.448124
0.448192
0.448171
0.448105
0.448093
0.44808
0.44808
0.447972
0.448037
0.448071
0.447953
0.447937
0.447946
0.447947
0.447908
0.447845
0.447653
0.447397
0.447252
0.447122
0.44706
0.447026
0.446933
0.4469
0.446958
0.446969
0.446949
0.446939
0.446834
0.446563
0.446256
0.446243
0.446316
0.446331
0.446332
0.446157
0.446176
0.446394
0.446415
0.446419
0.446415
0.44635
0.446329
0.446568
0.446778
0.446781
0.446782
0.446707
0.446692
0.44662
0.446498
0.446522
0.44655
0.446446
0.446538
0.446762
0.446762
0.446717
0.446536
0.446559
0.446713
0.446626
0.446706
0.446751
0.446706
0.446726
0.446743
0.446754
0.446684
0.446424
0.381676
0.393905
0.406293
0.419003
0.430339
0.438903
0.444301
0.446841
0.447371
0.447351
0.447374
0.447376
0.447303
0.447353
0.447458
0.44743
0.447372
0.447326
0.447542
0.447708
0.447694
0.44764
0.447624
0.447943
0.448307
0.448188
0.448279
0.448366
0.448271
0.448287
0.448262
0.448247
0.448228
0.448189
0.448156
0.448107
0.448013
0.447928
0.447802
0.447705
0.447555
0.447418
0.447311
0.447154
0.447058
0.446872
0.446703
0.446546
0.446474
0.446423
0.446332
0.446057
0.44607
0.446512
0.446608
0.446552
0.446643
0.446989
0.447042
0.447021
0.447008
0.446972
0.446939
0.446904
0.446768
0.446781
0.446856
0.446806
0.446812
0.446808
0.446668
0.446712
0.446854
0.446842
0.446844
0.446795
0.446811
0.446807
0.446825
0.446785
0.44663
0.446655
0.446697
0.446522
0.446575
0.446616
0.446585
0.446583
0.446529
0.446357
0.381723
0.393879
0.406259
0.418953
0.430392
0.439069
0.444304
0.446371
0.44675
0.446811
0.447086
0.447175
0.447179
0.447147
0.447035
0.447069
0.447265
0.447259
0.447267
0.447263
0.447367
0.447919
0.448131
0.44825
0.448393
0.448283
0.448286
0.448351
0.448364
0.448337
0.44832
0.448296
0.448279
0.448237
0.448185
0.448083
0.447859
0.447648
0.447502
0.447393
0.447304
0.447233
0.447168
0.447123
0.447046
0.446876
0.446715
0.446615
0.446407
0.446244
0.446209
0.446119
0.446196
0.446293
0.446269
0.446267
0.446231
0.446152
0.44616
0.446174
0.446017
0.446053
0.446239
0.446263
0.446222
0.44605
0.446098
0.446252
0.446219
0.446233
0.446189
0.446302
0.446706
0.446759
0.446738
0.446717
0.446725
0.446744
0.446701
0.44662
0.44654
0.446613
0.446694
0.446685
0.446668
0.446644
0.446634
0.446631
0.446564
0.446339
0.381755
0.393796
0.406315
0.419031
0.430311
0.438866
0.444316
0.446956
0.447619
0.447628
0.447596
0.44755
0.447491
0.447636
0.447794
0.447672
0.447767
0.447873
0.447807
0.447804
0.447752
0.44788
0.448251
0.448441
0.448418
0.44837
0.448358
0.448193
0.44826
0.448296
0.448269
0.448263
0.448213
0.448186
0.44808
0.448021
0.447881
0.44775
0.447627
0.44754
0.447436
0.44735
0.447258
0.447172
0.447114
0.447061
0.446973
0.446798
0.446504
0.446356
0.446315
0.446259
0.446132
0.44604
0.446297
0.446582
0.446553
0.446532
0.446598
0.446675
0.446775
0.446852
0.446729
0.446695
0.446852
0.446931
0.446825
0.446909
0.446958
0.44693
0.446928
0.446876
0.446864
0.446818
0.446664
0.446678
0.446878
0.446824
0.446797
0.446891
0.446956
0.447044
0.44707
0.446987
0.447022
0.447069
0.447041
0.447004
0.44694
0.446593
0.381729
0.393857
0.406235
0.419101
0.430304
0.438819
0.444356
0.44686
0.447832
0.447905
0.447681
0.447656
0.447739
0.447741
0.447745
0.447652
0.44775
0.447971
0.447842
0.447845
0.448135
0.448281
0.448162
0.448209
0.448407
0.448319
0.448409
0.448523
0.448493
0.448484
0.448394
0.44839
0.448354
0.448319
0.448293
0.448218
0.448046
0.447878
0.447736
0.447449
0.447153
0.447017
0.446867
0.44677
0.446717
0.446681
0.446609
0.446447
0.446277
0.446321
0.446377
0.44636
0.446353
0.446217
0.446289
0.446751
0.446799
0.446717
0.446767
0.447031
0.447059
0.447012
0.447008
0.446988
0.44682
0.446854
0.446902
0.446833
0.446848
0.446838
0.446749
0.446706
0.446794
0.446813
0.446793
0.446924
0.447052
0.447041
0.447045
0.446986
0.446929
0.446729
0.446703
0.446929
0.446971
0.446921
0.446929
0.446928
0.446881
0.446595
0.381722
0.393919
0.406167
0.41902
0.430431
0.43898
0.444245
0.44661
0.447057
0.446937
0.44697
0.447083
0.447049
0.447056
0.447
0.447108
0.447522
0.447538
0.447644
0.448164
0.448346
0.448331
0.44826
0.448308
0.448353
0.448312
0.448227
0.448166
0.448186
0.448151
0.44813
0.448109
0.448101
0.448075
0.448068
0.448
0.447959
0.447882
0.447738
0.447477
0.447327
0.447071
0.44684
0.446718
0.446667
0.446578
0.446341
0.446261
0.446221
0.446101
0.446175
0.446222
0.446054
0.446119
0.446197
0.446107
0.446114
0.446111
0.44602
0.446072
0.446255
0.446238
0.446237
0.446155
0.446248
0.446659
0.44671
0.446677
0.44669
0.446677
0.446595
0.446512
0.446589
0.446663
0.446729
0.44671
0.446703
0.4467
0.446511
0.446513
0.446627
0.446615
0.446643
0.446646
0.446613
0.446539
0.446648
0.446728
0.446682
0.446516
0.381706
0.393858
0.406322
0.418953
0.430387
0.438908
0.444288
0.446867
0.447468
0.447459
0.44749
0.447454
0.447365
0.447454
0.44765
0.447625
0.447628
0.447509
0.447529
0.447744
0.44781
0.447789
0.44775
0.447896
0.448149
0.448056
0.448007
0.448195
0.448371
0.448369
0.448366
0.448321
0.448304
0.44823
0.448133
0.448001
0.447877
0.447756
0.447639
0.44756
0.447435
0.447296
0.447175
0.447101
0.446991
0.446846
0.44667
0.446544
0.446496
0.446424
0.446274
0.446014
0.446064
0.446246
0.446147
0.446227
0.446277
0.446258
0.446245
0.446111
0.446049
0.446246
0.446326
0.446253
0.446181
0.446273
0.44656
0.446549
0.446521
0.446508
0.446484
0.446427
0.446281
0.44623
0.446371
0.446406
0.446387
0.446362
0.446446
0.446578
0.446543
0.446408
0.446436
0.446502
0.446377
0.446495
0.446731
0.446718
0.446686
0.446472
0.381746
0.393815
0.406293
0.41905
0.430308
0.438852
0.444374
0.44688
0.447435
0.447473
0.447628
0.447654
0.447527
0.447621
0.44786
0.447735
0.447803
0.448028
0.447915
0.447984
0.448191
0.448193
0.448141
0.448184
0.448353
0.448453
0.448507
0.448331
0.448381
0.448454
0.448441
0.448436
0.448387
0.448369
0.448301
0.448192
0.447956
0.447764
0.447592
0.447438
0.447319
0.447213
0.447135
0.447078
0.447033
0.446997
0.446943
0.446839
0.446616
0.446313
0.446217
0.446155
0.446128
0.446039
0.446066
0.446271
0.446275
0.44624
0.446132
0.446085
0.446131
0.446149
0.446205
0.446226
0.446107
0.446163
0.446382
0.446364
0.44637
0.446323
0.446387
0.446411
0.446383
0.446308
0.446367
0.446597
0.446592
0.4466
0.446512
0.446593
0.446656
0.44665
0.446648
0.446462
0.446464
0.446558
0.446537
0.446545
0.446511
0.446376
0.38172
0.39388
0.406211
0.419104
0.430354
0.438764
0.44425
0.447103
0.447859
0.44789
0.447874
0.447862
0.447861
0.447748
0.447815
0.447917
0.447804
0.447891
0.448086
0.447956
0.448018
0.448251
0.448258
0.448219
0.448268
0.448331
0.448424
0.448481
0.448306
0.448347
0.448378
0.448299
0.448279
0.448242
0.448232
0.448197
0.448099
0.44791
0.447733
0.447591
0.447472
0.447389
0.447293
0.44723
0.447161
0.44701
0.44694
0.446799
0.446693
0.446649
0.446612
0.446529
0.446301
0.446213
0.446463
0.446956
0.447001
0.446871
0.446957
0.44703
0.446995
0.446927
0.446848
0.446854
0.446777
0.446854
0.446955
0.446868
0.446926
0.446999
0.446987
0.446971
0.446786
0.446745
0.446744
0.446683
0.446694
0.44669
0.446595
0.446602
0.446819
0.446846
0.446812
0.446764
0.446655
0.446713
0.446803
0.446803
0.446797
0.446571
0.381729
0.393857
0.406235
0.419102
0.430303
0.438817
0.444356
0.446862
0.447835
0.44791
0.447802
0.447699
0.447757
0.447879
0.447852
0.44775
0.447764
0.447924
0.447914
0.447921
0.447865
0.447925
0.448154
0.448124
0.448126
0.448384
0.448584
0.448562
0.448541
0.448514
0.448514
0.448494
0.448485
0.448406
0.448347
0.448191
0.448013
0.447867
0.44773
0.447439
0.447195
0.446957
0.446843
0.446749
0.446698
0.446664
0.446601
0.446465
0.446297
0.446327
0.44641
0.446369
0.446272
0.446184
0.446377
0.446519
0.446441
0.44659
0.446858
0.446804
0.44688
0.446958
0.446946
0.446938
0.446828
0.446701
0.446745
0.446852
0.446804
0.446801
0.446805
0.446807
0.446767
0.446614
0.446665
0.446848
0.446702
0.446772
0.446864
0.446843
0.446833
0.44684
0.446843
0.446789
0.446766
0.446586
0.446503
0.446596
0.446627
0.446486
0.381757
0.393793
0.406317
0.419035
0.430291
0.438918
0.444261
0.446947
0.447585
0.447485
0.44755
0.447685
0.447647
0.447645
0.447572
0.44768
0.447778
0.447884
0.447965
0.447915
0.44789
0.448015
0.448288
0.448206
0.448289
0.448382
0.448378
0.448369
0.448165
0.448126
0.448102
0.448075
0.448068
0.448015
0.448005
0.447955
0.447917
0.447874
0.447836
0.447744
0.447547
0.447364
0.447222
0.447104
0.447033
0.446979
0.446873
0.446636
0.446332
0.446189
0.446214
0.44622
0.446145
0.446103
0.446366
0.446675
0.446666
0.446608
0.446616
0.446876
0.446989
0.446952
0.446846
0.446788
0.446797
0.446814
0.446815
0.446903
0.446956
0.446928
0.446909
0.446777
0.446743
0.446738
0.446837
0.446926
0.446926
0.446925
0.446813
0.44673
0.446738
0.446728
0.446838
0.447019
0.447007
0.446978
0.446964
0.446928
0.446853
0.446586
0.381729
0.393874
0.406251
0.418966
0.430414
0.438997
0.444276
0.446571
0.446982
0.446882
0.446904
0.447071
0.447062
0.447191
0.447288
0.447272
0.447262
0.447324
0.447513
0.447492
0.447481
0.447631
0.448098
0.448104
0.448052
0.448123
0.448241
0.448115
0.448023
0.448036
0.448099
0.448063
0.447995
0.447967
0.447935
0.447893
0.447827
0.447796
0.447713
0.447543
0.447314
0.44716
0.447065
0.446874
0.446761
0.446662
0.446422
0.446298
0.446321
0.446329
0.44624
0.446246
0.446352
0.446361
0.446304
0.446369
0.446455
0.446448
0.446447
0.446352
0.446245
0.446329
0.446476
0.446455
0.446424
0.446304
0.44632
0.446321
0.446451
0.446668
0.446654
0.44665
0.446608
0.446519
0.446504
0.446445
0.446505
0.446684
0.446665
0.446614
0.446664
0.446848
0.446829
0.446833
0.446822
0.446712
0.446749
0.446825
0.446778
0.446609
0.381705
0.393907
0.406304
0.418866
0.430495
0.438947
0.444171
0.446721
0.447286
0.447193
0.447288
0.447386
0.447365
0.447362
0.447203
0.447261
0.447503
0.447697
0.447697
0.447612
0.447623
0.447577
0.447692
0.448241
0.448314
0.448224
0.448219
0.448198
0.448064
0.448051
0.448036
0.447999
0.447956
0.447916
0.447876
0.447823
0.447786
0.447676
0.447569
0.447475
0.447357
0.447256
0.447168
0.44709
0.447045
0.446977
0.446823
0.446751
0.446596
0.446538
0.446433
0.446434
0.44644
0.446369
0.446364
0.446377
0.446365
0.446171
0.446209
0.446563
0.446598
0.44657
0.446506
0.446472
0.446551
0.446627
0.446612
0.44662
0.446602
0.446563
0.446474
0.446435
0.446637
0.446733
0.446719
0.446713
0.446574
0.44665
0.446741
0.446656
0.446675
0.44664
0.446494
0.446485
0.446591
0.446659
0.446637
0.446621
0.446608
0.446378
0.3817
0.393906
0.406313
0.418865
0.430489
0.438931
0.444215
0.446702
0.447196
0.447103
0.447172
0.447289
0.447264
0.447262
0.447119
0.447167
0.447602
0.447736
0.447709
0.447601
0.447625
0.447873
0.447895
0.447837
0.44788
0.448038
0.44797
0.44808
0.448146
0.448129
0.448124
0.448062
0.448045
0.44798
0.447853
0.447699
0.447571
0.447455
0.447367
0.447276
0.447207
0.44716
0.447115
0.447077
0.44702
0.44692
0.44679
0.446731
0.446662
0.446522
0.446314
0.446253
0.446164
0.446065
0.446276
0.446644
0.446578
0.446676
0.446746
0.446712
0.446648
0.446565
0.446567
0.446525
0.446632
0.446726
0.446722
0.44672
0.446548
0.446617
0.446739
0.446605
0.446668
0.446701
0.44664
0.446651
0.446619
0.446513
0.44658
0.446681
0.446661
0.446657
0.446496
0.446566
0.446646
0.446633
0.44663
0.44654
0.446508
0.446342
0.381727
0.393863
0.406233
0.41909
0.430336
0.438784
0.444277
0.447046
0.447705
0.4477
0.447728
0.44772
0.447608
0.447589
0.447802
0.447913
0.447902
0.447914
0.447891
0.447806
0.447917
0.448066
0.447909
0.44791
0.448073
0.448013
0.448091
0.448242
0.448056
0.448111
0.448147
0.448119
0.44811
0.448037
0.448007
0.447898
0.447836
0.4477
0.44758
0.447483
0.447392
0.447326
0.447251
0.447179
0.447063
0.446796
0.446631
0.446546
0.446349
0.446293
0.446424
0.446387
0.446495
0.446595
0.446576
0.446583
0.44655
0.446444
0.446469
0.446526
0.446524
0.446508
0.446539
0.446596
0.446593
0.446593
0.44643
0.446491
0.446557
0.446544
0.446517
0.44653
0.446824
0.446883
0.446814
0.446802
0.446772
0.44676
0.446763
0.446723
0.446744
0.446706
0.446613
0.446508
0.446614
0.446749
0.446687
0.446713
0.446675
0.446477
0.381715
0.393882
0.406219
0.419124
0.430319
0.438762
0.444251
0.446988
0.447867
0.447902
0.447879
0.447892
0.447851
0.447759
0.447718
0.447817
0.447849
0.44774
0.447788
0.448047
0.448053
0.448201
0.448337
0.448215
0.44817
0.44817
0.448116
0.448215
0.448257
0.448237
0.448236
0.448202
0.448187
0.448144
0.44813
0.44808
0.447996
0.447884
0.447804
0.447651
0.447514
0.447431
0.447362
0.447223
0.447102
0.447035
0.446949
0.446903
0.446833
0.446752
0.446576
0.446371
0.446439
0.446563
0.446533
0.446476
0.446403
0.446441
0.44642
0.446534
0.446611
0.44652
0.446528
0.44653
0.446539
0.44646
0.446439
0.446435
0.446521
0.446871
0.446945
0.446936
0.446928
0.446752
0.446774
0.4469
0.446774
0.446853
0.446921
0.446789
0.446852
0.446888
0.446818
0.446828
0.44683
0.446809
0.446781
0.446748
0.446674
0.44643
0.381695
0.393867
0.406321
0.419006
0.430289
0.438947
0.444308
0.446773
0.447403
0.447409
0.447371
0.4472
0.447184
0.447232
0.447192
0.447131
0.447254
0.447511
0.447497
0.447504
0.447461
0.447607
0.447952
0.447941
0.447826
0.447881
0.447986
0.447973
0.447964
0.447788
0.447761
0.447695
0.447658
0.44765
0.447622
0.447606
0.447523
0.447369
0.447276
0.447242
0.4472
0.447156
0.447124
0.447077
0.446992
0.446839
0.446738
0.446665
0.44654
0.446254
0.446176
0.446375
0.446466
0.446399
0.44639
0.446361
0.446356
0.446268
0.446332
0.446557
0.446698
0.446717
0.446576
0.446622
0.446641
0.446618
0.446638
0.446604
0.446485
0.446534
0.446581
0.44657
0.446535
0.446553
0.446596
0.446435
0.446469
0.446621
0.446598
0.446597
0.446614
0.446617
0.446486
0.446571
0.446699
0.446669
0.446672
0.446666
0.446644
0.446439
0.381734
0.393844
0.406264
0.419049
0.430357
0.438805
0.44423
0.447019
0.447815
0.447838
0.447808
0.447765
0.447762
0.447715
0.447749
0.447766
0.447743
0.447679
0.447723
0.447941
0.447968
0.447948
0.44784
0.447859
0.448087
0.448081
0.448175
0.448259
0.44826
0.448257
0.44819
0.448177
0.448123
0.448015
0.447944
0.447871
0.447797
0.447744
0.447689
0.447631
0.447567
0.447473
0.447398
0.447252
0.447078
0.446985
0.44688
0.446821
0.44673
0.446522
0.446284
0.446343
0.446512
0.446526
0.446492
0.446334
0.446384
0.446485
0.446363
0.446353
0.446353
0.446354
0.446256
0.446318
0.44646
0.446283
0.446286
0.446457
0.44651
0.446483
0.446405
0.44653
0.446662
0.446779
0.446799
0.446639
0.446692
0.446813
0.446828
0.446793
0.446706
0.446659
0.446636
0.446551
0.446558
0.446564
0.446527
0.44653
0.446486
0.446343
0.381725
0.393879
0.406226
0.418971
0.430427
0.43904
0.444275
0.446411
0.446719
0.446684
0.446902
0.447264
0.447259
0.447236
0.447092
0.447036
0.447281
0.447425
0.447317
0.447375
0.447653
0.447667
0.447625
0.447738
0.447983
0.448005
0.448197
0.448266
0.448215
0.448221
0.448186
0.448212
0.448176
0.448131
0.448097
0.447964
0.447848
0.447768
0.447639
0.447519
0.447433
0.447379
0.447293
0.44723
0.447185
0.447096
0.446889
0.446736
0.44667
0.446488
0.446527
0.446648
0.446621
0.44659
0.446533