/*--------------------------------*- C++ -*----------------------------------*\
  =========                 |
  \\      /  F ield         | OpenFOAM: The Open Source CFD Toolbox
   \\    /   O peration     | Website:  https://openfoam.org
    \\  /    A nd           | Version:  11
     \\/     M anipulation  |
\*---------------------------------------------------------------------------*/
FoamFile
{
    format      ascii;
    class       volScalarField;
    location    "0.096";
    object      nut;
}
// * * * * * * * * * * * * * * * * * * * * * * * * * * * * * * * * * * * * * //

dimensions      [0 2 -1 0 0 0 0];

internalField   nonuniform List<scalar> 
287084
(
0.000836851
0.000864383
0.000893113
0.000922978
0.000950184
0.000971102
0.000983996
0.000989602
0.000991016
0.000991541
0.000991817
0.000991704
0.000991628
0.000991726
0.000991704
0.000991915
0.000992136
0.000991851
0.000991935
0.000991957
0.00099184
0.000991762
0.00099143
0.000991699
0.000992245
0.000992239
0.000992191
0.000992147
0.000991998
0.000991931
0.000992176
0.000992331
0.000992271
0.000992621
0.000992983
0.000993154
0.000993335
0.000993584
0.000993828
0.000993991
0.000994221
0.000994327
0.000994292
0.00099435
0.000994331
0.000994339
0.000994382
0.000994355
0.000994365
0.00099427
0.000993968
0.000993586
0.000993743
0.00099399
0.000993958
0.000993877
0.000993923
0.000993931
0.00099381
0.000993477
0.000993429
0.000993603
0.000993589
0.000993566
0.000993365
0.000993739
0.000994085
0.000994004
0.000993883
0.000993585
0.000993704
0.000993861
0.000993728
0.000993488
0.000993285
0.000993352
0.00099326
0.000993462
0.000993867
0.000993889
0.000993793
0.000993675
0.000993404
0.000993413
0.000993769
0.000993604
0.000993756
0.000993822
0.000993678
0.000993121
0.00118282
0.00122065
0.0012593
0.00129908
0.00133524
0.00136299
0.00138018
0.0013871
0.00138836
0.00138875
0.00138947
0.00138921
0.00138937
0.00138987
0.00138973
0.00138963
0.00138952
0.00138935
0.0013892
0.00138902
0.00138876
0.00138815
0.00138804
0.00138882
0.00138886
0.00138929
0.00138972
0.00138948
0.00138973
0.00138996
0.00139005
0.00139014
0.0013903
0.00139034
0.0013898
0.00139007
0.00139053
0.00139089
0.0013912
0.00139078
0.00139106
0.00139162
0.00139187
0.00139203
0.00139222
0.00139239
0.00139217
0.00139188
0.00139219
0.00139269
0.00139268
0.00139275
0.00139277
0.00139284
0.00139279
0.00139279
0.00139269
0.00139251
0.00139246
0.00139234
0.0013921
0.00139138
0.00139133
0.00139213
0.00139221
0.00139202
0.00139147
0.00139146
0.0013919
0.0013919
0.00139186
0.00139145
0.00139162
0.00139226
0.00139233
0.00139221
0.00139204
0.00139201
0.00139185
0.00139131
0.00139123
0.00139143
0.00139147
0.00139144
0.00139118
0.00139115
0.00139093
0.00139111
0.00139117
0.00139062
0.00118286
0.00122086
0.00125937
0.00129938
0.00133552
0.0013628
0.00138009
0.00138784
0.00138961
0.00138977
0.00138974
0.00138929
0.00138936
0.00138957
0.0013895
0.00138938
0.00138868
0.00138858
0.00138946
0.00138954
0.0013894
0.0013893
0.00138868
0.00138873
0.00138928
0.00138929
0.00138937
0.00138946
0.00138958
0.00138966
0.00138985
0.00138986
0.0013901
0.00139032
0.0013905
0.0013908
0.00139122
0.00139151
0.00139188
0.00139209
0.00139217
0.00139195
0.00139144
0.00139157
0.00139193
0.00139219
0.00139236
0.00139201
0.001392
0.00139236
0.00139267
0.00139269
0.00139266
0.00139271
0.00139265
0.00139261
0.00139241
0.00139245
0.00139245
0.00139223
0.00139171
0.00139142
0.00139172
0.00139194
0.00139177
0.00139125
0.00139129
0.00139198
0.00139176
0.00139203
0.00139225
0.00139219
0.00139212
0.00139209
0.00139209
0.00139199
0.00139193
0.00139138
0.00139112
0.00139117
0.0013912
0.00139109
0.00139085
0.00139081
0.00139068
0.00139098
0.00139171
0.0013917
0.00139163
0.00139088
0.00118288
0.00122088
0.00125968
0.00129968
0.00133571
0.00136302
0.00138036
0.00138842
0.00139012
0.00139019
0.00139004
0.00139015
0.00139038
0.00139029
0.00139016
0.00138986
0.00138967
0.00138892
0.00138878
0.00138908
0.00138879
0.00138868
0.00138861
0.00138833
0.00138828
0.00138876
0.00138893
0.00138896
0.00138907
0.0013887
0.00138902
0.00138981
0.00138968
0.00139023
0.00139078
0.00139105
0.00139135
0.0013916
0.00139193
0.0013921
0.00139242
0.00139261
0.0013929
0.00139306
0.00139312
0.00139282
0.00139265
0.00139259
0.00139263
0.00139254
0.00139195
0.00139199
0.00139226
0.00139232
0.00139226
0.00139229
0.00139237
0.00139227
0.00139218
0.0013918
0.00139208
0.00139229
0.00139215
0.00139211
0.00139206
0.00139192
0.00139182
0.00139166
0.00139127
0.00139138
0.00139196
0.00139171
0.00139193
0.00139204
0.00139195
0.0013919
0.00139152
0.00139154
0.0013914
0.00139167
0.00139214
0.00139211
0.00139208
0.00139163
0.00139164
0.00139184
0.00139168
0.00139169
0.00139164
0.00139095
0.00118289
0.00122092
0.00125995
0.00129965
0.00133573
0.00136369
0.00138008
0.00138815
0.00139041
0.00139047
0.00139029
0.00138967
0.00138966
0.00138985
0.00138936
0.00138919
0.00138903
0.00138869
0.0013884
0.00138863
0.00138876
0.00138852
0.00138796
0.0013879
0.00138843
0.00138836
0.00138853
0.00138865
0.00138847
0.00138886
0.00138947
0.00138921
0.00138969
0.00139022
0.00139057
0.00139092
0.0013911
0.0013911
0.00139118
0.0013915
0.00139157
0.00139216
0.00139258
0.00139248
0.00139284
0.00139309
0.00139297
0.00139326
0.00139342
0.00139338
0.00139347
0.00139346
0.00139346
0.00139328
0.00139321
0.0013931
0.00139286
0.00139233
0.00139155
0.00139161
0.00139192
0.00139171
0.00139176
0.00139187
0.00139173
0.00139151
0.00139109
0.00139081
0.00139127
0.00139158
0.00139142
0.00139097
0.00139084
0.00139147
0.00139145
0.00139181
0.00139227
0.00139172
0.00139184
0.00139214
0.00139166
0.00139188
0.00139207
0.00139203
0.00139199
0.00139129
0.00139136
0.00139157
0.00139145
0.00139096
0.00118288
0.001221
0.00125982
0.00129964
0.00133622
0.00136375
0.00138014
0.00138704
0.00139005
0.00139021
0.00138968
0.00138978
0.00138985
0.0013897
0.00138953
0.00138911
0.0013886
0.00138852
0.00138905
0.00138896
0.00138891
0.00138869
0.00138845
0.00138796
0.00138803
0.00138828
0.0013881
0.00138805
0.00138861
0.0013893
0.00138909
0.00138961
0.00139013
0.00139044
0.0013908
0.00139104
0.00139134
0.00139121
0.00139128
0.00139144
0.0013912
0.00139161
0.00139216
0.00139233
0.00139262
0.00139276
0.00139282
0.00139277
0.00139256
0.00139229
0.00139247
0.00139274
0.00139268
0.00139251
0.00139233
0.00139258
0.00139276
0.00139261
0.0013926
0.00139259
0.00139252
0.00139199
0.00139203
0.00139211
0.00139199
0.00139192
0.00139149
0.0013915
0.00139145
0.00139179
0.00139244
0.00139232
0.00139228
0.00139225
0.00139213
0.00139173
0.00139137
0.00139135
0.00139122
0.00139157
0.00139191
0.0013919
0.00139188
0.0013915
0.00139144
0.00139113
0.00139137
0.00139173
0.00139161
0.00139113
0.00118288
0.00122097
0.00125994
0.00129958
0.00133655
0.00136353
0.00138011
0.00138801
0.00139003
0.0013901
0.00138995
0.00138978
0.00138912
0.00138903
0.00138935
0.00138886
0.00138892
0.00139012
0.00139013
0.00138965
0.00138976
0.00138996
0.00138978
0.00138971
0.0013896
0.00138959
0.00138913
0.00138937
0.00138964
0.00138969
0.00138991
0.00139013
0.00139046
0.0013907
0.00139079
0.0013911
0.00139139
0.00139171
0.00139193
0.00139177
0.00139202
0.00139231
0.00139262
0.00139288
0.00139298
0.00139305
0.00139307
0.00139316
0.00139311
0.0013931
0.00139316
0.0013931
0.00139272
0.00139241
0.00139234
0.00139228
0.00139228
0.00139223
0.00139174
0.00139167
0.00139202
0.00139197
0.0013921
0.00139212
0.00139194
0.00139157
0.00139135
0.00139165
0.0013919
0.00139173
0.00139123
0.00139121
0.00139152
0.00139145
0.00139144
0.00139123
0.00139126
0.00139117
0.00139142
0.0013915
0.0013914
0.00139116
0.00139124
0.00139183
0.00139181
0.00139172
0.00139115
0.00139121
0.00139149
0.00139087
0.00118296
0.00122084
0.00125994
0.00130014
0.00133591
0.00136315
0.0013804
0.00138933
0.00139192
0.00139195
0.00139167
0.00139138
0.00139127
0.00139127
0.00139098
0.0013904
0.0013905
0.00139062
0.00139041
0.00139022
0.00138977
0.00138958
0.00138904
0.00138915
0.00138959
0.00138922
0.00138957
0.00138992
0.00138999
0.00139021
0.00139029
0.00139056
0.00139083
0.00139126
0.00139176
0.00139218
0.00139252
0.00139279
0.00139259
0.00139259
0.00139258
0.00139278
0.00139302
0.00139333
0.00139357
0.00139355
0.0013937
0.00139377
0.00139382
0.00139377
0.00139374
0.00139357
0.00139289
0.00139285
0.00139314
0.0013932
0.00139317
0.00139283
0.00139276
0.00139246
0.00139266
0.00139304
0.00139266
0.00139281
0.00139302
0.00139296
0.0013929
0.00139263
0.00139252
0.00139217
0.00139154
0.00139171
0.00139231
0.00139228
0.00139223
0.00139187
0.00139156
0.00139188
0.0013923
0.00139209
0.00139213
0.001392
0.00139186
0.00139151
0.00139153
0.0013918
0.00139163
0.00139169
0.00139157
0.00139094
0.0011829
0.00122102
0.00125981
0.00129998
0.00133623
0.00136355
0.00138046
0.00138833
0.00139007
0.00139005
0.00138988
0.00138917
0.00138897
0.00138959
0.00138934
0.00138947
0.00138973
0.00138915
0.0013888
0.00138903
0.00138901
0.00138916
0.00138953
0.00138915
0.00138893
0.00138892
0.00138884
0.00138928
0.00138994
0.00138972
0.00139027
0.00139086
0.00139125
0.00139168
0.00139198
0.00139241
0.00139266
0.00139308
0.00139337
0.0013935
0.0013933
0.00139328
0.0013933
0.00139288
0.00139273
0.00139293
0.00139276
0.00139299
0.00139349
0.00139341
0.00139356
0.00139361
0.00139346
0.0013936
0.00139364
0.00139351
0.00139337
0.00139276
0.00139243
0.00139236
0.00139229
0.00139203
0.00139185
0.00139195
0.00139178
0.001392
0.00139209
0.00139191
0.00139184
0.00139141
0.00139171
0.00139239
0.00139223
0.00139224
0.00139214
0.001392
0.00139185
0.00139166
0.00139166
0.00139151
0.00139177
0.00139251
0.00139238
0.00139239
0.00139249
0.00139246
0.00139236
0.00139234
0.00139208
0.00139114
0.00118309
0.0012208
0.00125977
0.00130006
0.00133626
0.00136361
0.00138056
0.00138786
0.00138914
0.0013888
0.00138884
0.00138982
0.00138984
0.0013895
0.00138904
0.00138855
0.00138858
0.00138921
0.00138892
0.00138867
0.00138847
0.00138827
0.00138801
0.0013874
0.00138759
0.0013881
0.00138811
0.00138825
0.00138812
0.00138836
0.00138866
0.00138942
0.00139003
0.00139036
0.00139081
0.00139122
0.00139172
0.00139211
0.00139257
0.00139278
0.00139249
0.00139271
0.00139299
0.00139334
0.0013936
0.0013937
0.00139384
0.0013937
0.00139374
0.00139362
0.00139327
0.00139285
0.00139248
0.00139235
0.00139216
0.0013916
0.00139167
0.00139178
0.00139153
0.00139122
0.00139141
0.00139221
0.00139189
0.00139209
0.00139219
0.00139211
0.00139204
0.00139152
0.00139131
0.0013916
0.00139188
0.00139177
0.00139163
0.00139152
0.00139135
0.00139122
0.00139115
0.0013908
0.00139108
0.00139185
0.00139185
0.00139182
0.00139129
0.00139115
0.00139144
0.00139135
0.00139169
0.00139196
0.00139181
0.00139123
0.00118296
0.00122095
0.00125991
0.00129992
0.00133613
0.00136368
0.0013808
0.00138799
0.00138921
0.00138935
0.00138975
0.00138954
0.00138921
0.0013886
0.00138854
0.00138852
0.00138786
0.00138779
0.0013883
0.00138804
0.00138844
0.00138919
0.00138907
0.00138888
0.00138871
0.0013886
0.00138832
0.00138815
0.00138867
0.00138916
0.00138946
0.00138987
0.0013901
0.00139051
0.0013905
0.00139118
0.00139193
0.00139188
0.00139251
0.0013932
0.00139364
0.00139402
0.00139419
0.00139446
0.00139458
0.00139458
0.00139407
0.00139317
0.00139299
0.00139291
0.00139242
0.00139253
0.00139287
0.00139261
0.00139273
0.00139272
0.00139252
0.00139246
0.00139235
0.00139181
0.00139178
0.0013923
0.00139235
0.00139215
0.0013916
0.00139173
0.00139214
0.001392
0.00139184
0.00139127
0.00139137
0.00139158
0.00139109
0.00139094
0.00139149
0.00139188
0.00139185
0.00139181
0.00139129
0.00139113
0.00139124
0.00139112
0.00139104
0.00139157
0.00139205
0.00139176
0.00139193
0.00139199
0.00139181
0.00139117
0.00118287
0.00122102
0.00125992
0.00129988
0.00133632
0.00136353
0.00138041
0.00138862
0.00139075
0.00139079
0.00139056
0.00139031
0.00138963
0.00138957
0.00139002
0.00138937
0.00138935
0.00138937
0.00138885
0.00138857
0.0013882
0.0013885
0.00138884
0.00138866
0.0013886
0.00138824
0.00138864
0.00138917
0.00138914
0.00138963
0.00139022
0.00139056
0.00139108
0.00139165
0.00139225
0.0013927
0.00139307
0.00139351
0.00139394
0.00139434
0.00139464
0.00139469
0.0013948
0.00139458
0.00139417
0.00139378
0.0013937
0.00139368
0.00139365
0.00139357
0.00139335
0.00139259
0.00139248
0.00139289
0.00139329
0.00139313
0.00139257
0.00139265
0.00139295
0.00139259
0.00139262
0.0013926
0.00139238
0.00139192
0.00139159
0.00139203
0.00139236
0.00139228
0.00139221
0.00139168
0.00139184
0.00139224
0.00139221
0.00139216
0.00139157
0.00139171
0.00139195
0.0013919
0.00139185
0.00139127
0.00139139
0.00139177
0.00139167
0.00139144
0.00139128
0.00139155
0.00139171
0.0013916
0.00139148
0.00139101
0.00118301
0.00122077
0.00126006
0.00130015
0.0013359
0.00136318
0.00138088
0.00138899
0.00139047
0.00139027
0.00139053
0.00139091
0.00139059
0.00139013
0.00138979
0.00138927
0.00138904
0.00138981
0.00138983
0.00138943
0.00138875
0.00138855
0.00138874
0.0013882
0.00138817
0.00138867
0.00138853
0.00138896
0.00138965
0.00138947
0.00139009
0.00139078
0.00139132
0.00139194
0.00139246
0.00139304
0.00139333
0.00139368
0.00139406
0.0013944
0.00139448
0.00139461
0.00139476
0.00139491
0.00139498
0.0013948
0.00139465
0.00139409
0.00139365
0.00139378
0.00139397
0.00139382
0.00139379
0.00139374
0.0013937
0.00139353
0.00139332
0.0013931
0.00139292
0.00139281
0.00139258
0.00139248
0.00139202
0.00139216
0.0013926
0.00139251
0.00139245
0.00139232
0.00139222
0.00139203
0.00139163
0.0013917
0.00139219
0.00139216
0.00139209
0.00139153
0.00139133
0.0013919
0.00139215
0.00139209
0.00139205
0.00139156
0.00139156
0.00139182
0.00139167
0.00139179
0.00139184
0.00139178
0.00139171
0.00139101
0.00118293
0.00122103
0.00125982
0.00129971
0.00133665
0.00136361
0.00138037
0.00138774
0.00138906
0.0013891
0.00138887
0.00138822
0.00138805
0.00138841
0.00138822
0.0013878
0.00138724
0.00138717
0.00138786
0.00138792
0.0013875
0.00138723
0.00138679
0.00138668
0.00138763
0.00138838
0.00138808
0.00138813
0.00138847
0.00138866
0.0013894
0.00139023
0.00139064
0.00139133
0.00139194
0.00139255
0.00139309
0.00139345
0.00139365
0.00139393
0.00139393
0.00139385
0.00139402
0.00139393
0.00139405
0.00139414
0.00139423
0.00139395
0.00139395
0.00139445
0.00139449
0.00139437
0.00139432
0.00139417
0.00139404
0.00139367
0.0013934
0.00139311
0.0013924
0.00139243
0.00139284
0.00139267
0.00139247
0.00139192
0.00139187
0.00139202
0.0013918
0.00139172
0.00139164
0.0013914
0.00139123
0.00139178
0.00139222
0.00139203
0.00139208
0.00139218
0.00139207
0.00139191
0.00139191
0.00139171
0.00139113
0.00139118
0.00139204
0.00139201
0.0013921
0.00139209
0.00139196
0.00139194
0.00139186
0.00139129
0.00118296
0.00122089
0.00125993
0.00130023
0.00133597
0.00136299
0.00138078
0.00138918
0.00139106
0.00139138
0.00139121
0.00139081
0.00139053
0.00139011
0.00138957
0.00138948
0.00138939
0.00138871
0.00138862
0.00138845
0.00138791
0.00138759
0.00138795
0.00138826
0.00138784
0.0013882
0.00138888
0.00138853
0.00138903
0.00138968
0.00138957
0.00139034
0.00139111
0.00139154
0.00139206
0.0013927
0.00139346
0.00139417
0.00139482
0.00139518
0.00139548
0.0013956
0.00139525
0.00139483
0.00139445
0.0013943
0.00139428
0.00139415
0.00139388
0.00139367
0.00139343
0.00139332
0.00139323
0.00139297
0.00139286
0.00139251
0.00139259
0.00139317
0.0013931
0.00139299
0.00139277
0.00139231
0.00139231
0.00139269
0.00139257
0.00139227
0.00139222
0.00139279
0.00139276
0.00139254
0.00139202
0.00139185
0.00139211
0.00139219
0.00139198
0.00139136
0.00139127
0.00139204
0.00139221
0.00139203
0.00139201
0.0013919
0.00139129
0.00139125
0.00139187
0.00139194
0.00139185
0.00139184
0.00139165
0.00139085
0.00118285
0.00122108
0.00126009
0.0012996
0.00133643
0.00136344
0.00138029
0.00138845
0.00139047
0.00139037
0.00139007
0.00138954
0.00138931
0.001389
0.00138849
0.00138803
0.00138806
0.00138827
0.00138785
0.00138729
0.00138709
0.00138703
0.00138642
0.00138659
0.0013872
0.00138672
0.00138681
0.00138777
0.0013884
0.00138881
0.00138938
0.00138987
0.0013902
0.00139083
0.00139146
0.0013919
0.00139255
0.0013932
0.00139373
0.00139421
0.00139464
0.00139496
0.00139524
0.00139539
0.00139547
0.00139555
0.00139565
0.00139548
0.00139541
0.00139506
0.00139417
0.00139345
0.00139345
0.00139346
0.00139323
0.00139272
0.00139265
0.00139271
0.00139245
0.00139333
0.00139422
0.00139421
0.001394
0.00139375
0.00139357
0.00139288
0.00139264
0.00139282
0.00139259
0.00139283
0.001393
0.00139262
0.00139271
0.00139285
0.00139274
0.00139264
0.00139213
0.00139165
0.00139169
0.00139186
0.0013917
0.00139125
0.00139145
0.00139201
0.00139198
0.00139197
0.00139179
0.00139174
0.00139159
0.00139108
0.00118292
0.00122094
0.0012599
0.00130024
0.00133609
0.00136281
0.0013803
0.00138956
0.00139207
0.00139202
0.0013917
0.00139122
0.00139087
0.0013904
0.00138999
0.00139011
0.00139003
0.00138949
0.00138908
0.0013883
0.00138793
0.0013881
0.0013881
0.00138783
0.00138736
0.00138753
0.00138814
0.00138848
0.00138874
0.00138878
0.00138959
0.00139039
0.00139095
0.00139183
0.0013925
0.00139327
0.0013941
0.00139489
0.00139539
0.00139581
0.00139615
0.00139635
0.00139613
0.00139578
0.00139545
0.00139528
0.00139516
0.0013951
0.00139497
0.00139464
0.00139387
0.00139311
0.00139301
0.00139316
0.00139294
0.00139242
0.00139247
0.00139326
0.00139305
0.00139322
0.00139326
0.00139301
0.00139249
0.00139247
0.00139271
0.00139241
0.00139219
0.00139241
0.0013926
0.00139246
0.00139243
0.00139225
0.00139191
0.00139171
0.00139222
0.00139242
0.00139217
0.00139212
0.00139206
0.00139188
0.00139146
0.00139167
0.0013921
0.00139195
0.00139194
0.00139176
0.00139187
0.00139191
0.00139171
0.001391
0.00118291
0.001221
0.00125977
0.00130032
0.00133603
0.00136276
0.00138061
0.00138944
0.00139158
0.00139199
0.00139205
0.00139176
0.00139141
0.00139088
0.00139017
0.00138964
0.00138924
0.00138852
0.00138837
0.00138851
0.00138769
0.0013875
0.0013879
0.00138762
0.00138748
0.00138807
0.00138862
0.00138865
0.00138919
0.00138989
0.0013905
0.00139124
0.0013919
0.00139267
0.00139345
0.0013942
0.00139488
0.00139549
0.00139587
0.00139594
0.00139601
0.00139613
0.00139604
0.00139593
0.00139583
0.0013958
0.00139557
0.00139489
0.0013938
0.0013937
0.00139407
0.0013939
0.00139378
0.00139364
0.00139321
0.00139297
0.00139321
0.00139332
0.00139314
0.0013929
0.00139259
0.00139238
0.001393
0.00139343
0.00139302
0.00139311
0.00139327
0.00139307
0.00139297
0.00139279
0.0013921
0.00139203
0.00139258
0.00139247
0.00139241
0.00139222
0.00139247
0.00139261
0.00139214
0.00139224
0.00139227
0.00139209
0.00139172
0.00139148
0.00139182
0.00139202
0.00139186
0.00139184
0.00139172
0.00139093
0.00118296
0.00122086
0.00125999
0.0013002
0.00133591
0.00136305
0.00138032
0.00138927
0.00139147
0.00139126
0.00139101
0.00139068
0.00139032
0.00138982
0.0013898
0.00138961
0.00138912
0.00138866
0.00138777
0.00138757
0.00138824
0.0013881
0.00138776
0.00138736
0.00138724
0.00138724
0.00138741
0.00138738
0.00138804
0.00138874
0.00138909
0.00138986
0.00139078
0.00139173
0.00139258
0.00139334
0.00139365
0.00139372
0.00139405
0.00139434
0.00139474
0.00139514
0.00139525
0.00139546
0.00139588
0.00139606
0.00139609
0.00139609
0.00139574
0.00139484
0.00139379
0.00139363
0.00139374
0.00139364
0.00139349
0.00139278
0.00139268
0.0013932
0.00139311
0.00139297
0.00139281
0.00139247
0.00139227
0.00139288
0.00139341
0.00139331
0.0013932
0.00139286
0.00139272
0.00139241
0.00139194
0.00139194
0.00139195
0.00139156
0.00139178
0.00139242
0.00139237
0.00139218
0.00139157
0.0013916
0.00139204
0.00139174
0.00139195
0.00139206
0.0013919
0.00139193
0.00139197
0.00139198
0.00139175
0.00139088
0.00118278
0.00122108
0.00126002
0.00130001
0.00133594
0.00136327
0.00138058
0.00138874
0.00139041
0.00139019
0.00139001
0.00138969
0.00138908
0.00138883
0.00138871
0.00138816
0.0013875
0.00138688
0.00138707
0.00138714
0.00138668
0.00138616
0.00138582
0.00138661
0.00138766
0.00138733
0.0013878
0.0013884
0.00138859
0.00138926
0.00138993
0.00139075
0.00139163
0.0013925
0.0013934
0.00139424
0.0013949
0.00139553
0.00139594
0.00139635
0.0013965
0.00139657
0.00139665
0.00139647
0.0013964
0.00139597
0.00139552
0.00139505
0.00139479
0.00139457
0.00139418
0.00139319
0.00139309
0.00139432
0.00139446
0.00139412
0.00139423
0.00139514
0.00139514
0.00139492
0.00139472
0.00139446
0.00139422
0.00139397
0.00139342
0.00139334
0.00139346
0.0013932
0.00139312
0.00139301
0.00139249
0.00139255
0.00139291
0.00139281
0.00139275
0.00139254
0.00139253
0.00139247
0.00139248
0.00139231
0.00139179
0.00139183
0.00139193
0.00139135
0.00139149
0.00139159
0.00139148
0.00139145
0.00139127
0.00139067
0.00118292
0.001221
0.00125991
0.00129986
0.0013361
0.00136378
0.00138058
0.00138725
0.00138844
0.00138847
0.00138906
0.001389
0.00138863
0.0013881
0.0013873
0.00138692
0.00138704
0.00138653
0.00138606
0.00138558
0.00138547
0.00138682
0.00138718
0.00138735
0.0013877
0.0013874
0.00138761
0.00138816
0.0013887
0.00138928
0.00139001
0.00139083
0.00139176
0.00139266
0.00139354
0.00139425
0.00139453
0.00139479
0.00139516
0.00139555
0.00139589
0.00139618
0.00139639
0.00139657
0.00139655
0.00139616
0.00139572
0.00139542
0.00139474
0.00139415
0.00139393
0.00139351
0.0013936
0.00139374
0.00139349
0.00139331
0.00139302
0.00139259
0.00139245
0.00139232
0.00139167
0.00139163
0.00139206
0.001392
0.00139174
0.00139108
0.00139112
0.00139149
0.00139128
0.00139123
0.00139101
0.00139128
0.00139246
0.00139256
0.00139243
0.0013923
0.00139227
0.00139228
0.00139209
0.0013918
0.00139151
0.0013917
0.00139192
0.00139186
0.00139178
0.00139168
0.00139163
0.0013916
0.00139138
0.00139061
0.00118302
0.00122074
0.00126008
0.0013001
0.00133584
0.00136314
0.0013806
0.00138906
0.00139112
0.00139099
0.00139061
0.00139012
0.00138954
0.00138955
0.00138958
0.00138871
0.00138849
0.00138831
0.0013876
0.00138712
0.00138651
0.00138653
0.00138737
0.00138775
0.00138759
0.0013875
0.00138767
0.00138752
0.00138825
0.00138905
0.00138978
0.00139069
0.00139154
0.00139251
0.00139326
0.00139413
0.00139469
0.00139522
0.00139568
0.00139614
0.00139645
0.0013967
0.00139683
0.00139687
0.00139691
0.00139688
0.00139667
0.00139613
0.00139516
0.00139461
0.00139437
0.00139405
0.00139349
0.00139303
0.00139365
0.00139436
0.00139409
0.00139384
0.00139387
0.00139394
0.00139408
0.00139417
0.00139363
0.00139338
0.00139374
0.00139386
0.00139341
0.00139356
0.00139361
0.00139342
0.00139333
0.00139308
0.00139297
0.00139275
0.0013922
0.00139219
0.00139276
0.00139254
0.0013924
0.00139265
0.00139281
0.00139305
0.0013931
0.00139281
0.00139289
0.00139301
0.0013929
0.00139277
0.00139256
0.00139141
0.00118294
0.00122093
0.00125983
0.00130031
0.00133581
0.00136298
0.00138071
0.00138874
0.00139176
0.00139182
0.00139085
0.00139042
0.00139026
0.00138983
0.00138937
0.00138857
0.00138836
0.00138853
0.00138761
0.00138713
0.00138758
0.00138764
0.00138696
0.00138689
0.00138742
0.0013872
0.00138769
0.00138843
0.00138888
0.00138955
0.00139011
0.00139105
0.00139197
0.00139294
0.00139395
0.00139479
0.00139528
0.0013957
0.00139612
0.00139597
0.00139568
0.00139578
0.00139572
0.00139574
0.00139579
0.00139581
0.00139564
0.00139513
0.00139455
0.00139459
0.00139465
0.00139445
0.00139425
0.00139365
0.00139369
0.00139494
0.0013949
0.00139446
0.00139444
0.00139508
0.001395
0.00139469
0.00139453
0.00139432
0.00139366
0.00139363
0.00139366
0.00139334
0.00139328
0.00139315
0.00139278
0.00139256
0.00139276
0.00139274
0.00139261
0.00139296
0.0013933
0.00139322
0.00139318
0.00139295
0.00139273
0.00139207
0.00139196
0.00139263
0.00139273
0.00139255
0.00139256
0.00139253
0.00139238
0.00139142
0.00118292
0.00122112
0.00125962
0.00130005
0.0013362
0.00136348
0.00138036
0.00138795
0.00138934
0.00138879
0.00138861
0.00138861
0.00138809
0.00138767
0.001387
0.00138683
0.00138759
0.00138711
0.00138692
0.00138804
0.00138815
0.0013877
0.00138717
0.0013871
0.00138715
0.00138709
0.00138704
0.00138724
0.00138785
0.00138846
0.00138924
0.00139014
0.00139117
0.00139219
0.00139328
0.00139415
0.00139506
0.00139578
0.00139619
0.00139613
0.0013963
0.00139603
0.00139572
0.00139565
0.00139571
0.00139556
0.00139488
0.00139462
0.00139444
0.00139397
0.00139407
0.00139406
0.00139337
0.00139338
0.00139344
0.00139296
0.00139279
0.00139259
0.00139212
0.00139211
0.00139251
0.00139229
0.00139214
0.00139173
0.00139188
0.00139304
0.00139308
0.00139286
0.00139279
0.00139265
0.0013923
0.00139196
0.00139212
0.00139228
0.00139242
0.00139229
0.00139222
0.00139215
0.00139151
0.00139147
0.00139179
0.00139172
0.00139177
0.00139175
0.00139162
0.00139136
0.00139168
0.00139191
0.00139176
0.00139117
0.00118287
0.00122093
0.0012601
0.00129984
0.00133606
0.00136325
0.00138049
0.00138875
0.00139061
0.00139041
0.00139022
0.00138975
0.00138906
0.00138888
0.001389
0.00138841
0.0013879
0.00138699
0.00138653
0.0013867
0.00138644
0.00138598
0.00138554
0.00138577
0.00138647
0.00138625
0.00138631
0.00138728
0.00138839
0.0013891
0.00138995
0.00139079
0.0013918
0.00139268
0.00139349
0.00139417
0.00139483
0.00139541
0.00139591
0.00139642
0.00139668
0.00139677
0.0013968
0.00139689
0.00139676
0.00139643
0.00139594
0.00139554
0.00139533
0.00139501
0.00139441
0.00139343
0.00139342
0.0013938
0.00139331
0.00139336
0.00139332
0.00139307
0.00139284
0.00139224
0.00139187
0.00139232
0.00139242
0.00139204
0.00139168
0.00139184
0.00139261
0.00139246
0.00139227
0.00139212
0.00139196
0.0013917
0.00139116
0.00139093
0.0013913
0.00139135
0.00139123
0.0013911
0.00139131
0.00139168
0.00139153
0.00139107
0.00139112
0.0013913
0.00139088
0.00139122
0.00139194
0.00139188
0.00139177
0.00139103
0.00118299
0.0012208
0.00126001
0.00130015
0.00133582
0.00136308
0.00138075
0.00138879
0.00139051
0.00139045
0.00139065
0.00139037
0.00138957
0.0013894
0.00138966
0.00138876
0.00138844
0.00138861
0.00138773
0.00138744
0.00138762
0.00138723
0.00138675
0.00138667
0.0013871
0.00138749
0.00138786
0.0013877
0.00138842
0.00138937
0.00139018
0.00139115
0.00139206
0.00139311
0.00139402
0.00139477
0.00139507
0.00139544
0.00139576
0.00139604
0.00139631
0.00139651
0.00139668
0.00139681
0.00139689
0.00139691
0.00139679
0.00139646
0.00139571
0.00139466
0.00139423
0.00139388
0.00139362
0.00139316
0.00139305
0.00139349
0.00139331
0.00139301
0.00139249
0.00139216
0.00139213
0.00139202
0.00139204
0.00139196
0.00139145
0.00139149
0.00139205
0.00139188
0.0013918
0.00139155
0.00139166
0.00139165
0.00139148
0.00139117
0.00139129
0.00139194
0.00139187
0.00139184
0.00139152
0.00139173
0.00139188
0.00139183
0.00139179
0.00139117
0.00139115
0.00139142
0.00139134
0.00139134
0.00139122
0.00139073
0.00118291
0.001221
0.00125976
0.00130032
0.00133596
0.00136281
0.00138037
0.00138948
0.00139184
0.00139176
0.00139142
0.00139104
0.00139062
0.00138981
0.00138954
0.00138935
0.00138847
0.00138821
0.0013883
0.00138739
0.00138713
0.00138745
0.00138716
0.00138683
0.00138689
0.00138715
0.00138765
0.00138821
0.00138823
0.00138907
0.00139002
0.00139074
0.00139173
0.00139271
0.00139379
0.00139477
0.00139549
0.00139586
0.00139617
0.00139648
0.00139675
0.00139702
0.00139714
0.00139725
0.00139725
0.00139691
0.00139675
0.0013963
0.00139591
0.00139568
0.00139544
0.00139502
0.00139413
0.00139367
0.00139427
0.00139562
0.00139557
0.00139497
0.00139505
0.0013951
0.00139482
0.00139445
0.00139404
0.00139392
0.00139354
0.00139365
0.00139384
0.00139346
0.00139353
0.00139366
0.00139353
0.00139339
0.00139274
0.00139254
0.00139246
0.00139221
0.00139219
0.00139212
0.00139178
0.00139176
0.00139239
0.00139244
0.0013923
0.00139212
0.00139175
0.0013919
0.00139217
0.00139214
0.00139211
0.00139134
0.00118294
0.00122093
0.00125983
0.00130031
0.00133581
0.00136298
0.00138071
0.00138875
0.00139178
0.00139184
0.00139123
0.00139055
0.00139033
0.00139026
0.0013897
0.00138888
0.0013884
0.00138838
0.00138784
0.00138736
0.00138674
0.00138653
0.00138693
0.00138663
0.00138655
0.0013874
0.00138824
0.00138855
0.00138902
0.00138964
0.00139048
0.00139137
0.00139238
0.00139321
0.00139412
0.00139471
0.00139517
0.00139567
0.0013961
0.00139594
0.00139581
0.00139559
0.00139565
0.00139567
0.00139572
0.00139575
0.00139562
0.00139519
0.00139461
0.00139461
0.00139475
0.00139447
0.001394
0.00139354
0.00139396
0.00139422
0.00139379
0.00139406
0.00139472
0.00139438
0.00139444
0.00139452
0.00139433
0.00139416
0.00139368
0.00139316
0.00139317
0.00139339
0.00139314
0.00139303
0.00139295
0.00139288
0.00139267
0.00139212
0.00139221
0.00139272
0.00139221
0.00139237
0.00139262
0.0013925
0.00139243
0.00139242
0.00139239
0.00139219
0.00139209
0.0013915
0.00139123
0.0013915
0.00139158
0.00139107
0.00118303
0.00122073
0.00126009
0.00130011
0.00133577
0.0013633
0.00138043
0.00138903
0.00139102
0.00139054
0.00139047
0.00139054
0.00139003
0.00138959
0.00138889
0.00138873
0.00138853
0.00138835
0.0013881
0.00138746
0.00138694
0.00138694
0.00138749
0.00138703
0.00138719
0.00138753
0.00138773
0.00138807
0.00138796
0.00138852
0.00138926
0.0013901
0.00139109
0.00139198
0.00139302
0.00139392
0.00139481
0.00139561
0.00139633
0.00139678
0.0013968
0.00139674
0.00139672
0.00139666
0.00139666
0.00139663
0.00139636
0.00139562
0.00139463
0.00139409
0.00139405
0.00139393
0.00139353
0.00139322
0.00139387
0.00139465
0.00139444
0.00139408
0.00139392
0.00139456
0.00139475
0.00139448
0.001394
0.00139367
0.00139357
0.0013935
0.00139338
0.00139354
0.0013936
0.00139342
0.00139327
0.00139277
0.00139259
0.0013925
0.00139275
0.00139296
0.00139291
0.00139285
0.00139245
0.00139215
0.00139213
0.00139207
0.00139238
0.00139291
0.00139285
0.00139273
0.00139266
0.00139253
0.00139229
0.00139139
0.00118294
0.00122098
0.00125988
0.0012999
0.00133617
0.00136356
0.00138049
0.00138788
0.00138917
0.00138869
0.00138849
0.00138868
0.00138826
0.00138824
0.00138808
0.00138755
0.00138703
0.00138673
0.00138683
0.00138629
0.00138583
0.00138592
0.00138707
0.00138689
0.00138664
0.00138691
0.00138747
0.00138743
0.00138765
0.00138834
0.00138933
0.00139011
0.00139088
0.00139182
0.00139276
0.00139366
0.00139443
0.00139525
0.00139582
0.00139601
0.00139592
0.00139595
0.00139607
0.00139579
0.00139566
0.00139549
0.00139481
0.00139443
0.00139447
0.00139441
0.00139402
0.00139391
0.00139409
0.00139395
0.0013936
0.00139362
0.00139371
0.00139352
0.00139334
0.00139288
0.00139238
0.00139249
0.00139281
0.0013926
0.00139237
0.00139187
0.00139181
0.0013917
0.00139201
0.00139259
0.00139246
0.00139236
0.00139216