/*--------------------------------*- C++ -*----------------------------------*\
  =========                 |
  \\      /  F ield         | OpenFOAM: The Open Source CFD Toolbox
   \\    /   O peration     | Website:  https://openfoam.org
    \\  /    A nd           | Version:  11
     \\/     M anipulation  |
\*---------------------------------------------------------------------------*/
FoamFile
{
    format      ascii;
    class       volScalarField;
    location    "0.096";
    object      omega;
}
// * * * * * * * * * * * * * * * * * * * * * * * * * * * * * * * * * * * * * //

dimensions      [0 0 -1 0 0 0 0];

internalField   nonuniform List<scalar> 
287084
(
55.0224
55.896
56.7852
57.6772
58.4492
59.0041
59.3171
59.4283
59.44
59.4395
59.439
59.4308
59.4291
59.4356
59.4353
59.4422
59.4494
59.4437
59.448
59.4503
59.4484
59.4466
59.4396
59.4509
59.4642
59.4656
59.4633
59.4586
59.453
59.4517
59.4589
59.4586
59.4502
59.4525
59.4546
59.4507
59.4487
59.4488
59.4491
59.4468
59.4449
59.4417
59.4347
59.431
59.4255
59.4216
59.4189
59.4148
59.4121
59.4069
59.3946
59.3845
59.3907
59.3973
59.3967
59.3943
59.3956
59.3961
59.3933
59.3842
59.385
59.3916
59.391
59.3884
59.3845
59.3997
59.4093
59.4071
59.4021
59.3968
59.4026
59.4076
59.4047
59.396
59.393
59.3984
59.3955
59.4022
59.4119
59.4121
59.4122
59.4083
59.4011
59.4041
59.4159
59.4109
59.4156
59.418
59.4142
59.3994
55.0226
55.8961
56.7753
57.6597
58.432
58.9979
59.3285
59.4454
59.4568
59.4615
59.4775
59.4704
59.4748
59.4867
59.4856
59.4859
59.4856
59.482
59.4793
59.478
59.475
59.4655
59.4667
59.4867
59.4858
59.4939
59.5009
59.4954
59.4972
59.4981
59.4957
59.4904
59.488
59.483
59.4667
59.4676
59.471
59.4703
59.4697
59.4542
59.4551
59.4589
59.459
59.459
59.4561
59.4547
59.4446
59.4366
59.442
59.4497
59.4491
59.4492
59.446
59.4444
59.4424
59.4422
59.4418
59.4381
59.4357
59.4338
59.4299
59.4168
59.419
59.4369
59.4378
59.4347
59.4238
59.4263
59.4372
59.4361
59.436
59.4291
59.4341
59.4463
59.4494
59.4475
59.442
59.4415
59.4405
59.4305
59.431
59.4364
59.4354
59.4354
59.4299
59.4294
59.4269
59.4308
59.4318
59.4212
55.0226
55.8965
56.7719
57.6607
58.4309
58.9872
59.3233
59.4602
59.4824
59.4828
59.4826
59.4719
59.4742
59.48
59.4796
59.4794
59.4674
59.4698
59.4916
59.4939
59.4928
59.4926
59.4815
59.4847
59.4973
59.495
59.495
59.4946
59.4945
59.4924
59.4922
59.4893
59.4895
59.4858
59.4835
59.4842
59.4866
59.4845
59.4829
59.482
59.4766
59.4628
59.4489
59.4491
59.4525
59.4514
59.4507
59.4383
59.437
59.4435
59.445
59.446
59.4439
59.4419
59.44
59.4393
59.4373
59.4379
59.4381
59.4337
59.4207
59.4178
59.4266
59.4312
59.4286
59.4179
59.4215
59.4385
59.4334
59.4397
59.4442
59.4433
59.4425
59.4428
59.4434
59.4416
59.441
59.4281
59.4247
59.427
59.428
59.4261
59.4214
59.4233
59.4208
59.4277
59.443
59.4417
59.4392
59.4248
55.0222
55.894
56.7744
57.6601
58.4255
58.9817
59.319
59.4636
59.4876
59.4863
59.483
59.4874
59.4938
59.4936
59.4935
59.4893
59.4881
59.4761
59.4774
59.4877
59.4829
59.4832
59.483
59.475
59.475
59.4866
59.4876
59.4858
59.4847
59.4742
59.4779
59.4897
59.4804
59.4857
59.49
59.4881
59.4875
59.4876
59.4875
59.4838
59.4844
59.4793
59.4774
59.4768
59.4738
59.4605
59.4525
59.4482
59.4463
59.4426
59.4299
59.431
59.436
59.4346
59.4329
59.4337
59.4353
59.4328
59.4287
59.4234
59.432
59.4362
59.4356
59.4358
59.4342
59.4295
59.4276
59.4273
59.4214
59.4253
59.4391
59.434
59.4389
59.4414
59.4398
59.4396
59.4313
59.4309
59.4307
59.4391
59.4489
59.4479
59.4476
59.4395
59.4406
59.4455
59.4426
59.4434
59.442
59.4267
55.0221
55.8929
56.7772
57.6551
58.4227
58.9914
59.3076
59.4552
59.4897
59.4898
59.4872
59.4752
59.4781
59.4848
59.4778
59.4783
59.4775
59.4706
59.4686
59.4782
59.4825
59.4796
59.4692
59.4707
59.4839
59.4808
59.4816
59.4817
59.4761
59.4802
59.488
59.4771
59.4812
59.4854
59.4852
59.4851
59.4809
59.4707
59.4675
59.4695
59.4634
59.4687
59.4711
59.4643
59.4661
59.4668
59.4617
59.4637
59.4641
59.4604
59.46
59.4582
59.458
59.453
59.4494
59.4468
59.4415
59.4294
59.4159
59.4196
59.4268
59.4245
59.4252
59.4256
59.4258
59.422
59.4113
59.4087
59.4219
59.4279
59.4254
59.4163
59.4164
59.4327
59.4314
59.4393
59.449
59.4379
59.4414
59.448
59.4387
59.444
59.4479
59.447
59.4464
59.4324
59.4344
59.4392
59.4364
59.4268
55.0221
55.8943
56.7733
57.6543
58.431
58.9886
59.303
59.4265
59.4796
59.4812
59.4722
59.4768
59.4807
59.4804
59.4803
59.4737
59.4673
59.4714
59.487
59.4862
59.4854
59.4853
59.4823
59.4729
59.4757
59.4803
59.4739
59.471
59.4821
59.4916
59.4823
59.4875
59.4913
59.4903
59.4901
59.4869
59.4847
59.4724
59.4652
59.4615
59.4512
59.4542
59.4595
59.4569
59.4561
59.4543
59.4537
59.4485
59.4394
59.4345
59.4376
59.442
59.4399
59.4332
59.431
59.4377
59.4412
59.44
59.4407
59.4395
59.4368
59.4278
59.43
59.4327
59.4305
59.4275
59.4216
59.4259
59.4257
59.4338
59.4476
59.447
59.4474
59.447
59.4432
59.4327
59.4282
59.4312
59.4289
59.4365
59.4435
59.4434
59.4434
59.4345
59.4337
59.4292
59.435
59.4426
59.44
59.4306
55.0218
55.8929
56.7747
57.6515
58.4358
58.9811
59.302
59.4456
59.4759
59.4775
59.4756
59.4747
59.4652
59.4681
59.4792
59.4722
59.479
59.5083
59.5104
59.5047
59.5102
59.5165
59.5164
59.5164
59.512
59.5112
59.5011
59.5036
59.5057
59.5014
59.5012
59.5016
59.5013
59.4957
59.4873
59.4866
59.484
59.4811
59.4788
59.4664
59.4663
59.4677
59.4657
59.4657
59.4621
59.4569
59.4536
59.4525
59.4514
59.4514
59.4502
59.4448
59.4346
59.4305
59.4314
59.4304
59.4311
59.43
59.4192
59.4199
59.4293
59.4285
59.4308
59.432
59.4299
59.4202
59.4184
59.4275
59.433
59.4304
59.4203
59.4224
59.4302
59.43
59.4308
59.4266
59.4286
59.427
59.4319
59.4336
59.4319
59.4274
59.4313
59.4447
59.4446
59.4415
59.4291
59.4317
59.438
59.4255
55.0237
55.8898
56.7755
57.6624
58.4194
58.9728
59.3092
59.4747
59.5158
59.5159
59.5114
59.5091
59.5114
59.513
59.5132
59.5066
59.5133
59.5194
59.5188
59.5185
59.5116
59.5104
59.5029
59.5074
59.5173
59.5093
59.5151
59.5191
59.5163
59.5159
59.511
59.5107
59.5108
59.5096
59.509
59.5088
59.5083
59.5052
59.4891
59.4799
59.4721
59.472
59.4727
59.4716
59.4713
59.4658
59.4656
59.4638
59.4608
59.4578
59.4557
59.4518
59.4384
59.4395
59.4466
59.4463
59.4458
59.4382
59.4362
59.4332
59.4402
59.449
59.4426
59.4468
59.4519
59.4514
59.4513
59.446
59.4442
59.4365
59.4258
59.4327
59.446
59.4456
59.4448
59.4366
59.4322
59.4417
59.4505
59.4454
59.445
59.445
59.4434
59.4362
59.4379
59.4443
59.439
59.4386
59.4382
59.427
55.0223
55.8934
56.7716
57.6588
58.4266
58.9802
59.3075
59.4493
59.4762
59.476
59.4739
59.462
59.4639
59.4838
59.4815
59.4888
59.4982
59.4888
59.487
59.4978
59.4994
59.5068
59.518
59.5094
59.5065
59.5082
59.5045
59.5108
59.5202
59.5103
59.5155
59.52
59.5193
59.5191
59.5152
59.5142
59.5089
59.5076
59.5037
59.4961
59.4832
59.4756
59.4694
59.4538
59.4485
59.4511
59.443
59.4455
59.4542
59.4508
59.4514
59.4516
59.45
59.4519
59.4526
59.4499
59.4465
59.4334
59.4297
59.4319
59.4314
59.4242
59.4226
59.4288
59.4259
59.4309
59.4335
59.4302
59.4299
59.4232
59.4319
59.4466
59.4428
59.4419
59.4404
59.4402
59.4387
59.4336
59.4334
59.4331
59.4413
59.4572
59.4557
59.4558
59.4564
59.4568
59.4549
59.4526
59.4475
59.43
55.0267
55.8879
56.771
57.6606
58.4267
58.9811
59.3083
59.4371
59.4549
59.4487
59.4533
59.4784
59.4816
59.4787
59.4717
59.4688
59.4773
59.4929
59.493
59.4947
59.4925
59.4891
59.4886
59.4787
59.4842
59.4943
59.4918
59.4916
59.486
59.486
59.4851
59.4923
59.4949
59.4911
59.4906
59.4907
59.4906
59.4857
59.484
59.479
59.4625
59.4622
59.4635
59.4629
59.4628
59.4604
59.4596
59.4532
59.4507
59.4465
59.4376
59.4283
59.4207
59.4186
59.4159
59.4066
59.41
59.4133
59.4081
59.4033
59.4112
59.4296
59.4239
59.4291
59.4321
59.4314
59.4311
59.4199
59.4181
59.4273
59.4309
59.4316
59.4294
59.4257
59.4257
59.4257
59.4241
59.4169
59.4252
59.4416
59.4412
59.4407
59.4285
59.4275
59.4376
59.435
59.4418
59.447
59.4438
59.4325
55.0237
55.8917
56.7736
57.6568
58.4241
58.9828
59.3132
59.4395
59.4542
59.4583
59.4703
59.4709
59.4708
59.4625
59.4665
59.4711
59.4639
59.469
59.486
59.4854
59.4997
59.5157
59.5175
59.5154
59.5104
59.5091
59.5
59.4946
59.5022
59.5054
59.5036
59.503
59.4969
59.4935
59.4836
59.4874
59.4914
59.4791
59.4817
59.4862
59.4859
59.4857
59.4814
59.4808
59.4776
59.4723
59.456
59.4341
59.4298
59.4293
59.4194
59.4223
59.4299
59.4252
59.4279
59.4282
59.4271
59.4277
59.4252
59.4147
59.4173
59.4289
59.4312
59.4291
59.4184
59.4236
59.431
59.431
59.431
59.419
59.4224
59.4276
59.4164
59.4155
59.4308
59.4383
59.4381
59.438
59.4259
59.4246
59.4304
59.4255
59.4247
59.4389
59.4481
59.4431
59.4462
59.4473
59.4439
59.4311
55.0216
55.8935
56.7735
57.6561
58.4279
58.9785
59.306
59.456
59.4889
59.4907
59.4888
59.4872
59.4796
59.4857
59.5014
59.4932
59.4991
59.505
59.5011
59.5015
59.4983
59.5094
59.5187
59.5165
59.5164
59.5094
59.516
59.5231
59.518
59.5205
59.5242
59.523
59.5234
59.5212
59.5188
59.5153
59.5106
59.5078
59.5055
59.5032
59.5003
59.4924
59.4864
59.4747
59.4604
59.4486
59.4441
59.4416
59.4395
59.4367
59.4318
59.4177
59.4184
59.4279
59.4368
59.4354
59.4242
59.4282
59.4359
59.4308
59.4324
59.4333
59.431
59.42
59.4163
59.43
59.4372
59.4364
59.4363
59.4273
59.4324
59.4417
59.4415
59.4413
59.4305
59.4347
59.4402
59.4395
59.4392
59.4284
59.4322
59.4405
59.4386
59.4319
59.4305
59.4382
59.4386
59.4387
59.4384
59.4287
55.0246
55.8877
56.7776
57.6611
58.4178
58.9725
59.3173
59.4632
59.4842
59.4818
59.4913
59.5033
59.5027
59.499
59.4993
59.4945
59.4969
59.521
59.5256
59.523
59.5137
59.5157
59.5241
59.514
59.5155
59.5267
59.5202
59.5251
59.5335
59.5219
59.5256
59.5291
59.528
59.5278
59.5248
59.5225
59.5142
59.5079
59.5036
59.4994
59.4908
59.4846
59.4804
59.4773
59.4734
59.4652
59.4589
59.444
59.4364
59.4399
59.4436
59.4425
59.4433
59.4413
59.4394
59.4373
59.4346
59.4343
59.4345
59.4345
59.429
59.4266
59.4209
59.4274
59.4383
59.4371
59.437
59.4358
59.4357
59.4323
59.4255
59.4303
59.4418
59.4412
59.4402
59.4277
59.4262
59.4417
59.4461
59.445
59.4446
59.4359
59.4373
59.4437
59.4408
59.4426
59.4438
59.4426
59.4401
59.4277
55.0232
55.8934
56.7711
57.6531
58.4355
58.9802
59.3041
59.4352
59.4521
59.4531
59.4543
59.4472
59.4504
59.4635
59.4661
59.4657
59.4607
59.4676
59.488
59.4957
59.4916
59.4915
59.4877
59.4889
59.5119
59.5252
59.5139
59.5117
59.5152
59.51
59.5149
59.52
59.5145
59.5129
59.511
59.5105
59.5086
59.5
59.49
59.4839
59.4729
59.4624
59.459
59.4503
59.4501
59.4503
59.4475
59.4396
59.4404
59.4498
59.4503
59.4482
59.4481
59.4464
59.4435
59.4372
59.4334
59.4299
59.4189
59.4234
59.4315
59.4315
59.4315
59.4206
59.422
59.4272
59.4246
59.425
59.4247
59.4182
59.4166
59.4325
59.4417
59.4398
59.4407
59.4412
59.4419
59.4393
59.4379
59.4349
59.4248
59.4289
59.4492
59.4481
59.4485
59.4485
59.4479
59.4483
59.445
59.4336
55.0236
55.8903
56.7745
57.6634
58.4192
58.9685
59.3164
59.4692
59.4972
59.5037
59.5062
59.503
59.5029
59.5023
59.4986
59.5046
59.5097
59.5039
59.5092
59.5119
59.5059
59.5053
59.5198
59.5282
59.5211
59.5289
59.5399
59.5275
59.5312
59.5355
59.5221
59.5254
59.5269
59.5194
59.5153
59.5153
59.5164
59.5142
59.5135
59.508
59.5015
59.4939
59.4776
59.462
59.4492
59.4429
59.44
59.4354
59.4288
59.4244
59.4225
59.4236
59.4236
59.4172
59.4168
59.4132
59.4183
59.4333
59.4323
59.4323
59.4311
59.4231
59.4263
59.4368
59.4356
59.4308
59.4329
59.446
59.4462
59.4438
59.4313
59.4309
59.4391
59.4411
59.4382
59.4254
59.4265
59.4442
59.4468
59.4453
59.4461
59.4426
59.4294
59.4312
59.4442
59.4453
59.4434
59.4427
59.4396
59.4238
55.0212
55.8952
56.777
57.65
58.431
58.977
59.3045
59.4538
59.4848
59.4849
59.4842
59.4786
59.4796
59.4803
59.4767
59.4753
59.4865
59.4982
59.4971
59.4927
59.4955
59.4997
59.4921
59.4999
59.5136
59.5026
59.5032
59.5186
59.5227
59.5209
59.5204
59.5163
59.5058
59.5026
59.4988
59.4909
59.4885
59.4866
59.4834
59.4806
59.4782
59.4752
59.4742
59.4705
59.4689
59.4692
59.4683
59.4606
59.4572
59.4497
59.4302
59.4194
59.4229
59.425
59.4224
59.4141
59.4158
59.4199
59.4181
59.4419
59.4588
59.4594
59.4596
59.4563
59.4539
59.4399
59.439
59.4479
59.4437
59.4499
59.4542
59.4485
59.4514
59.4553
59.4537
59.4513
59.44
59.4327
59.4357
59.44
59.4373
59.4282
59.4344
59.4464
59.4454
59.444
59.4402
59.4388
59.4363
59.4287
55.0228
55.8916
56.7739
57.6639
58.4218
58.9644
59.3077
59.4808
59.521
59.5213
59.5211
59.5168
59.5172
59.5124
59.5121
59.5254
59.531
59.5298
59.5298
59.5201
59.5205
59.5297
59.534
59.5323
59.5234
59.527
59.5344
59.5378
59.5357
59.5252
59.5297
59.5311
59.5256
59.5247
59.523
59.5236
59.5219
59.5198
59.5148
59.5099
59.5052
59.4988
59.4851
59.4709
59.4594
59.4527
59.4481
59.4458
59.4427
59.4362
59.4196
59.4082
59.4103
59.4161
59.4137
59.405
59.411
59.4314
59.4291
59.4346
59.4375
59.4348
59.4261
59.4291
59.4364
59.4306
59.4286
59.4368
59.4419
59.44
59.4398
59.4392
59.4318
59.4299
59.4444
59.4482
59.4452
59.4457
59.4432
59.4372
59.431
59.4383
59.4474
59.4462
59.4467
59.443
59.4444
59.4452
59.4411
59.4268
55.0227
55.8927
56.7712
57.666
58.4207
58.9641
59.3148
59.4777
59.5114
59.5206
59.5286
59.5285
59.5285
59.5253
59.5164
59.5162
59.5194
59.5122
59.5182
59.5291
59.5196
59.5232
59.5378
59.5326
59.5317
59.5462
59.5529
59.5485
59.5503
59.5533
59.5516
59.5488
59.5448
59.5426
59.5399
59.5365
59.5326
59.5281
59.5196
59.5068
59.4964
59.4886
59.4782
59.4693
59.4627
59.4585
59.4512
59.4343
59.4144
59.4161
59.4267
59.4245
59.4248
59.4245
59.415
59.4139
59.4239
59.4259
59.4272
59.4265
59.4202
59.4197
59.4386
59.4484
59.4426
59.4465
59.4517
59.4511
59.4511
59.4469
59.4335
59.4356
59.4502
59.4483
59.4484
59.4451
59.4509
59.4541
59.4457
59.448
59.4491
59.4459
59.436
59.4337
59.4431
59.4468
59.4455
59.4458
59.4418
59.4254
55.0235
55.8899
56.7761
57.6631
58.4187
58.9706
59.3083
59.4748
59.5115
59.509
59.5092
59.5091
59.5093
59.5067
59.5148
59.5191
59.5176
59.5175
59.509
59.5152
59.5364
59.54
59.5388
59.5342
59.5349
59.5317
59.5305
59.5253
59.5301
59.532
59.5256
59.5257
59.5246
59.5242
59.5216
59.5161
59.5023
59.4854
59.4766
59.4685
59.465
59.4628
59.4593
59.4594
59.462
59.4625
59.4609
59.4595
59.4515
59.4305
59.4132
59.4147
59.42
59.4196
59.4194
59.4083
59.4109
59.4267
59.426
59.4236
59.4228
59.4206
59.4209
59.4378
59.4499
59.4491
59.4488
59.443
59.4401
59.4348
59.4293
59.4317
59.4333
59.4275
59.4342
59.446
59.4474
59.4451
59.4323
59.4352
59.446
59.4396
59.4444
59.4467
59.4453
59.4472
59.4461
59.4441
59.4399
59.4238
55.0194
55.8951
56.7762
57.659
58.4202
58.9759
59.3132
59.462
59.4885
59.487
59.489
59.487
59.4819
59.486
59.4925
59.4906
59.4838
59.4823
59.4995
59.5083
59.5073
59.5032
59.5034
59.527
59.5486
59.5403
59.5464
59.5515
59.5442
59.5438
59.5436
59.5429
59.5425
59.5401
59.5366
59.5344
59.5281
59.522
59.5139
59.5076
59.4976
59.4887
59.4816
59.4713
59.4648
59.452
59.4409
59.4308
59.4264
59.4228
59.4164
59.4002
59.4043
59.4349
59.4385
59.4361
59.4429
59.4644
59.4673
59.4653
59.462
59.462
59.4596
59.4544
59.4477
59.4498
59.4548
59.4525
59.4533
59.4524
59.442
59.4456
59.455
59.4527
59.4527
59.4513
59.453
59.4504
59.449
59.4479
59.4389
59.4404
59.4431
59.4318
59.4353
59.4375
59.435
59.4348
59.4313
59.4197
55.0229
55.8929
56.7737
57.6559
58.4248
58.987
59.3105
59.4275
59.4439
59.4483
59.4684
59.4712
59.4734
59.4728
59.4646
59.4676
59.4812
59.4802
59.4806
59.48
59.4876
59.525
59.5341
59.5417
59.5532
59.5466
59.5471
59.5496
59.5498
59.5506
59.5493
59.5456
59.5441
59.5416
59.5385
59.5317
59.5162
59.5026
59.4936
59.4868
59.4813
59.4769
59.4729
59.4699
59.4646
59.4527
59.442
59.4353
59.4209
59.4106
59.4086
59.405
59.4117
59.4174
59.4173
59.4173
59.412
59.4069
59.4079
59.4087
59.3989
59.4021
59.4126
59.4145
59.4124
59.4002
59.4045
59.4145
59.4131
59.4145
59.4109
59.4196
59.4448
59.4474
59.4455
59.4443
59.445
59.4462
59.4429
59.435
59.4319
59.4382
59.443
59.4419
59.4408
59.4413
59.4384
59.4356
59.4314
59.4182
55.025
55.8871
56.7784
57.6607
58.418
58.9737
59.3149
59.4708
59.5034
59.5034
59.5028
59.4972
59.4941
59.506
59.5152
59.5074
59.5136
59.5196
59.5162
59.5162
59.512
59.5212
59.544
59.554
59.5541
59.5505
59.5498
59.5401
59.5448
59.547
59.5451
59.5446
59.5413
59.5394
59.5322
59.5276
59.5183
59.51
59.5023
59.4968
59.4902
59.4847
59.4786
59.4732
59.4695
59.4658
59.4594
59.4468
59.4271
59.4183
59.4158
59.4122
59.4032
59.3995
59.4208
59.4376
59.434
59.4327
59.4382
59.4411
59.4479
59.4545
59.4445
59.4433
59.4557
59.4595
59.4534
59.4586
59.4611
59.4586
59.4584
59.4544
59.4517
59.449
59.4407
59.4436
59.458
59.4509
59.4495
59.4571
59.4592
59.4652
59.468
59.4639
59.4652
59.4655
59.4658
59.4633
59.4572
59.4346
55.0233
55.8912
56.7728
57.6659
58.4169
58.9706
59.3174
59.4651
59.5194
59.5223
59.5074
59.5075
59.514
59.5134
59.5135
59.5063
59.513
59.5267
59.5179
59.5188
59.5386
59.5459
59.5384
59.5421
59.5557
59.5491
59.555
59.562
59.5594
59.559
59.5526
59.5512
59.5511
59.5506
59.5477
59.5409
59.529
59.5183
59.5088
59.489
59.47
59.4618
59.4521
59.4462
59.443
59.4406
59.4357
59.4241
59.4155
59.4198
59.4232
59.4215
59.42
59.4123
59.4195
59.4501
59.4511
59.4468
59.4508
59.4671
59.4682
59.4667
59.4668
59.4636
59.4518
59.4545
59.4574
59.4541
59.4558
59.4535
59.4447
59.4436
59.4527
59.4509
59.4494
59.46
59.4674
59.466
59.4642
59.4598
59.4561
59.4447
59.4452
59.4604
59.4614
59.4597
59.4607
59.4586
59.4533
59.4351
55.023
55.8953
56.7673
57.6612
58.4267
58.9805
59.308
59.4452
59.467
59.4583
59.4607
59.4685
59.4644
59.464
59.4621
59.4711
59.4965
59.4966
59.5066
59.5406
59.5506
59.5494
59.5443
59.5474
59.5499
59.5472
59.539
59.5372
59.5416
59.5366
59.5358
59.5371
59.537
59.5332
59.5317
59.5273
59.5243
59.519
59.5089
59.4917
59.4819
59.4646
59.4498
59.4426
59.4394
59.4337
59.4172
59.4123
59.4123
59.4056
59.4102
59.4126
59.4018
59.4062
59.4109
59.4059
59.4072
59.4049
59.3986
59.4034
59.4155
59.415
59.415
59.4087
59.4161
59.4425
59.4445
59.444
59.4452
59.4423
59.4339
59.4304
59.4369
59.4391
59.443
59.4438
59.4433
59.443
59.431
59.4323
59.4406
59.4396
59.4418
59.4395
59.4345
59.4318
59.4409
59.4452
59.4421
59.4306
55.0215
55.8918
56.7782
57.6556
58.4237
58.976
59.3124
59.4642
59.4953
59.4921
59.4917
59.4916
59.4873
59.4934
59.5057
59.505
59.5052
59.4959
59.4977
59.511
59.5115
59.512
59.5114
59.5215
59.5371
59.5288
59.5264
59.5419
59.5522
59.5516
59.5514
59.5483
59.5471
59.5418
59.5345
59.526
59.5182
59.5105
59.5032
59.4982
59.4898
59.4807
59.473
59.4683
59.4606
59.4507
59.439
59.4311
59.4281
59.423
59.4119
59.3973
59.403
59.4147
59.4086
59.4134
59.416
59.4142
59.4125
59.4024
59.4
59.4155
59.4191
59.4128
59.4086
59.417
59.4331
59.4334
59.4312
59.428
59.4261
59.4229
59.4125
59.4114
59.4226
59.4236
59.4218
59.4203
59.4274
59.4355
59.4331
59.4237
59.4259
59.43
59.4225
59.4314
59.4437
59.4442
59.4441
59.428
55.0243
55.8884
56.7768
57.6621
58.4176
58.973
59.3185
59.4645
59.4907
59.4926
59.5039
59.5054
59.498
59.505
59.5202
59.5115
59.5166
59.5315
59.5228
59.5277
59.5412
59.539
59.5353
59.5396
59.5485
59.5547
59.5604
59.5494
59.5529
59.5577
59.5567
59.5563
59.5531
59.5519
59.5471
59.5384
59.5226
59.5105
59.4994
59.4897
59.4822
59.4755
59.4707
59.4671
59.4643
59.4619
59.458
59.4504
59.4344
59.4144
59.4091
59.4051
59.4032
59.3995
59.4034
59.4152
59.4157
59.4148
59.4045
59.4025
59.4062
59.4066
59.4107
59.412
59.4051
59.4096
59.4245
59.423
59.4236
59.42
59.423
59.424
59.4222
59.4171
59.4227
59.4382
59.4382
59.4388
59.432
59.4369
59.4404
59.4397
59.4394
59.4276
59.4288
59.4356
59.4319
59.4318
59.4313
59.4221
55.0227
55.8927
56.771
57.6664
58.4201
58.9662
59.3116
59.4821
59.52
59.5202
59.5213
59.5192
59.518
59.5121
59.5169
59.523
59.516
59.5219
59.534
59.5252
59.5299
59.5455
59.5434
59.5406
59.5447
59.5471
59.5537
59.5589
59.548
59.5507
59.5528
59.5469
59.5467
59.5468
59.546
59.5413
59.5328
59.5203
59.5089
59.5
59.4926
59.4873
59.4812
59.4772
59.4726
59.4623
59.4576
59.4479
59.4412
59.4385
59.4362
59.4307
59.4143
59.4112
59.4328
59.4616
59.4647
59.4568
59.4625
59.4666
59.4638
59.4566
59.4534
59.4565
59.4505
59.4552
59.4612
59.4563
59.4595
59.4639
59.4625
59.4607
59.4469
59.4461
59.4484
59.4438
59.4452
59.4429
59.4363
59.4385
59.4521
59.453
59.4503
59.4444
59.4395
59.4448
59.4503
59.4499
59.4492
59.4345
55.0233
55.8912
56.7728
57.6659
58.4169
58.9706
59.3174
59.4653
59.5196
59.5227
59.5137
59.5079
59.5133
59.5209
59.5189
59.5117
59.5138
59.5251
59.5238
59.524
59.5194
59.5235
59.5392
59.5365
59.5369
59.5549
59.5663
59.5638
59.5628
59.5629
59.5635
59.5606
59.5598
59.5543
59.5489
59.5384
59.5269
59.5177
59.5085
59.4886
59.4726
59.4575
59.4507
59.4448
59.4417
59.4394
59.4352
59.4254
59.4168
59.4202
59.4255
59.4225
59.4132
59.4093
59.4249
59.4327
59.4284
59.4393
59.456
59.4528
59.4571
59.4616
59.4603
59.4587
59.4501
59.4432
59.4475
59.4542
59.4523
59.4525
59.4505
59.448
59.4468
59.438
59.4425
59.4548
59.4443
59.449
59.4546
59.4525
59.452
59.4525
59.4527
59.4484
59.4464
59.4329
59.4294
59.437
59.4383
59.4296
55.0251
55.8869
56.7786
57.6608
58.4168
58.977
59.3109
59.4703
59.5033
59.4952
59.4994
59.5081
59.5045
59.5043
59.501
59.5081
59.5115
59.5182
59.5253
59.5208
59.5192
59.5297
59.5468
59.5416
59.5467
59.5522
59.5516
59.5507
59.5355
59.5352
59.5363
59.5324
59.5319
59.5285
59.5266
59.5236
59.523
59.5202
59.5166
59.5102
59.4968
59.4849
59.4759
59.4684
59.464
59.4603
59.4529
59.4357
59.4155
59.4096
59.4121
59.4122
59.4062
59.404
59.4256
59.444
59.4432
59.439
59.4406
59.4581
59.4639
59.4614
59.4515
59.4494
59.4526
59.4515
59.4513
59.4582
59.4609
59.4585
59.4543
59.4479
59.4482
59.4481
59.4537
59.4588
59.4584
59.4581
59.4492
59.4447
59.448
59.4471
59.4541
59.4628
59.4636
59.4613
59.4581
59.4577
59.4528
59.4347
55.0234
55.8925
56.7732
57.657
58.426
58.9818
59.3099
59.4422
59.4618
59.4548
59.4568
59.4689
59.4678
59.4758
59.481
59.4809
59.48
59.4842
59.4967
59.4927
59.4919
59.5052
59.5356
59.5354
59.5314
59.5357
59.5431
59.5326
59.5278
59.53
59.5345
59.5321
59.5255
59.5236
59.5234
59.5226
59.5168
59.5136
59.5079
59.496
59.481
59.4715
59.4652
59.4524
59.4453
59.439
59.4222
59.417
59.4193
59.4196
59.415
59.4157
59.4212
59.4216
59.4194
59.423
59.4281
59.4271
59.427
59.4193
59.4129
59.4203
59.4294
59.4272
59.4223
59.4165
59.4204
59.4203
59.4289
59.4423
59.4421
59.4394
59.4341
59.4282
59.4275
59.4259
59.4315
59.443
59.4404
59.4371
59.4422
59.4544
59.4538
59.4543
59.4508
59.4434
59.447
59.4517
59.4485
59.4368
55.0216
55.8952
56.7763
57.6502
58.4317
58.9776
59.3037
59.4542
59.4829
59.4758
59.482
59.4878
59.4858
59.4856
59.4758
59.4806
59.4954
59.5059
59.5072
59.5005
59.5001
59.4989
59.5092
59.545
59.5477
59.543
59.5435
59.5406
59.5289
59.5278
59.527
59.5265
59.5237
59.5201
59.5194
59.516
59.5125
59.5051
59.4983
59.4923
59.4845
59.4782
59.4725
59.4676
59.4647
59.4601
59.4496
59.4448
59.4344
59.4305
59.4261
59.4266
59.4269
59.4236
59.4239
59.4225
59.4204
59.4086
59.4133
59.4365
59.4372
59.437
59.43
59.4283
59.4347
59.439
59.4376
59.4357
59.4343
59.4322
59.4259
59.4254
59.4413
59.4459
59.4443
59.4431
59.4353
59.4409
59.4463
59.4395
59.439
59.4388
59.4302
59.4306
59.4366
59.438
59.4387
59.4374
59.4362
59.4214
55.0212
55.8952
56.7769
57.65
58.4313
58.9768
59.3067
59.4523
59.4766
59.4697
59.474
59.4814
59.4813
59.4813
59.4703
59.475
59.5045
59.5107
59.5086
59.5009
59.5039
59.5192
59.5196
59.5174
59.5202
59.5311
59.5263
59.5333
59.5369
59.5356
59.5352
59.5309
59.5298
59.5251
59.5154
59.5055
59.4974
59.4902
59.4847
59.479
59.4749
59.472
59.4692
59.4668
59.4628
59.4557
59.4473
59.4436
59.4388
59.4286
59.4149
59.4112
59.405
59.4011
59.4192
59.4421
59.4376
59.4437
59.4475
59.4447
59.4378
59.4344
59.4371
59.4338
59.4405
59.4458
59.445
59.4447
59.4339
59.439
59.4466
59.4381
59.4418
59.4435
59.4387
59.4387
59.4386
59.4319
59.4361
59.4423
59.4403
59.4399
59.4301
59.435
59.4398
59.4384
59.4377
59.4309
59.4282
59.4189
55.0231
55.8916
56.7726
57.6652
58.4191
58.9678
59.3131
59.4774
59.5115
59.5106
59.5128
59.5103
59.5025
59.5031
59.5174
59.523
59.5216
59.5197
59.5185
59.5148
59.5233
59.532
59.5215
59.5226
59.5347
59.5293
59.5341
59.5437
59.5315
59.5353
59.5375
59.5355
59.5349
59.5298
59.5276
59.5201
59.5154
59.5063
59.4988
59.4927
59.487
59.4828
59.478
59.4731
59.4649
59.4465
59.4362
59.4313
59.4176
59.4167
59.4291
59.4251
59.4318
59.4376
59.4357
59.4356
59.4344
59.4276
59.4292
59.4328
59.432
59.4309
59.4335
59.437
59.4365
59.4364
59.4262
59.4303
59.4342
59.4327
59.431
59.434
59.4534
59.4558
59.4502
59.45
59.45
59.4493
59.4496
59.4444
59.4435
59.4423
59.4352
59.4297
59.4388
59.4469
59.4417
59.4414
59.441
59.4284
55.0223
55.8929
56.7717
57.6676
58.4176
58.9663
59.3112
59.4744
59.5212
59.5221
59.5203
59.5192
59.5167
59.51
59.5094
59.5172
59.5183
59.5119
59.5158
59.5339
59.5333
59.5425
59.5501
59.5398
59.5379
59.5405
59.5364
59.5424
59.5445
59.543
59.5427
59.5404
59.5401
59.5372
59.5364
59.5329
59.5261
59.519
59.5137
59.5035
59.4948
59.4897
59.4851
59.4757
59.4679
59.4636
59.458
59.455
59.4502
59.4446
59.432
59.4211
59.4278
59.4355
59.4331
59.4266
59.4237
59.4292
59.4272
59.4341
59.4382
59.4331
59.4345
59.4323
59.4301
59.4271
59.4281
59.4279
59.434
59.4563
59.4602
59.459
59.458
59.4472
59.4497
59.4583
59.4493
59.4545
59.4583
59.4502
59.454
59.4558
59.4526
59.454
59.4536
59.4495
59.4458
59.4433
59.4388
59.4242
55.0207
55.8925
56.7784
57.6588
58.417
58.9792
59.3132
59.4576
59.4888
59.4889
59.4878
59.4755
59.4758
59.4794
59.4737
59.4698
59.4805
59.4964
59.4963
59.4968
59.4933
59.5038
59.5255
59.5245
59.516
59.5198
59.5264
59.525
59.5244
59.5112
59.5087
59.5071
59.5073
59.507
59.5028
59.5008
59.4947
59.484
59.4786
59.4768
59.4742
59.4715
59.4695
59.4662
59.4602
59.4499
59.4435
59.4385
59.4292
59.4101
59.4085
59.4245
59.4288
59.4233
59.4232
59.4233
59.4225
59.416
59.421
59.4344
59.4421
59.445
59.4364
59.439
59.4398
59.438
59.4369
59.4349
59.429
59.4329
59.4356
59.4345
59.4322
59.4337
59.4364
59.4263
59.4293
59.4398
59.4383
59.4384
59.4375
59.4374
59.4297
59.4356
59.4436
59.4429
59.4434
59.4405
59.4376
59.4253
55.0235
55.8903
56.7747
57.6624
58.4208
58.9689
59.3098
59.4764
59.5174
59.5178
59.5165
59.5115
59.5101
59.5094
59.5122
59.5129
59.5112
59.5068
59.5112
59.5236
59.5239
59.5246
59.5179
59.5199
59.5364
59.5347
59.54
59.5449
59.5447
59.5445
59.5396
59.5371
59.5333
59.5263
59.522
59.5174
59.5129
59.5097
59.5063
59.5026
59.4984
59.4923
59.4872
59.477
59.4657
59.4598
59.453
59.4492
59.4429
59.4279
59.4151
59.4213
59.4299
59.4299
59.4299
59.4203
59.4236
59.4299
59.4224
59.4227
59.4227
59.4228
59.4153
59.4193
59.4284
59.4162
59.4176
59.4281
59.4309
59.4293
59.424
59.4336
59.4395
59.4468
59.4499
59.44
59.4436
59.4489
59.4492
59.4492
59.4425
59.4376
59.4358
59.4326
59.4336
59.4339
59.4311
59.4305
59.4278
59.419
55.023
55.8927
56.7715
57.6575
58.427
58.9848
59.3089
59.4302
59.4438
59.4422
59.4584
59.4809
59.48
59.4766
59.4651
59.4636
59.483
59.4903
59.4837
59.4883
59.5051
59.5053
59.5043
59.5118
59.5248
59.527
59.5414
59.5454
59.5437
59.5448
59.5401
59.5398
59.5395
59.5364
59.5331
59.5238
59.516
59.5108
59.5022
59.4947
59.4894
59.486
59.4803
59.4764
59.4733
59.4673
59.4529
59.443
59.4393
59.4293
59.4332
59.4386
59.4386
59.4385
59.4317
59.4234
59.4236
59.4248
59.4226
59.4163
59.4169
59.424
59.4234
59.4194
59.4178
59.4309
59.4376
59.4349
59.435
59.4347
59.4321
59.4209
59.4256
59.4385
59.4381
59.4373
59.4257
59.4282
59.4321
59.427
59.4291
59.4295
59.4232
59.4278
59.4412
59.4312
59.4353
59.444
59.4413
59.431
55.0243
55.8884
56.777
57.6618
58.4159
58.9789
59.3044
59.47
59.5209
59.525
59.5232
59.5207
59.5188
59.5153
59.5082
59.5005
59.501
59.4975
59.5033
59.5165
59.5116
59.5132
59.5137
59.5073
59.5089
59.5198
59.5146
59.521
59.5273
59.5252
59.527
59.5241
59.5218
59.5208
59.5214
59.5187
59.5154
59.5092
59.4956
59.4861
59.4819
59.4769
59.4738
59.4705
59.4681
59.4656
59.461
59.4535
59.4489
59.4355
59.436
59.4403
59.4403
59.4387
59.4402
59.4431
59.4432
59.4433
59.4377
59.4373
59.4343
59.4325
59.4207
59.4223
59.4262
59.4241
59.4204
59.4184
59.4252
59.4262
59.4217
59.4268
59.4427
59.444
59.4439
59.4311
59.4299
59.4441
59.4485
59.4474
59.4474
59.4437
59.4307
59.4317
59.4443
59.4455
59.4436
59.443
59.4398
59.424
55.0216
55.8935
56.7735
57.6561
58.4279
58.9785
59.3064
59.4548
59.49
59.4928
59.491
59.4881
59.4804
59.4835
59.5044
59.5001
59.5075
59.5167
59.5106
59.5156
59.5183
59.5158
59.5108
59.508
59.5187
59.5226
59.5213
59.5173
59.5211
59.5255
59.5185
59.5219
59.5225
59.5187
59.5187
59.5184
59.5181
59.5132
59.5094
59.502
59.4844
59.4713
59.4662
59.4615
59.4518
59.4426
59.4477
59.4518
59.451
59.4509
59.4466
59.4457
59.444
59.438
59.4373
59.4378
59.4359
59.44
59.441
59.4373
59.4289
59.4232
59.4205
59.4171
59.4117
59.4189
59.4279
59.4278
59.4278
59.4175
59.4248
59.4393
59.4399
59.4398
59.4291
59.4342
59.4407
59.4404
59.4402
59.427
59.4274
59.4476
59.452
59.448
59.4502
59.4508
59.4493
59.4494
59.4458
59.4292
55.0239
55.892
56.7715
57.6561
58.4269
58.9902
59.3049
59.425
59.4491
59.4602
59.4798
59.4861
59.4835
59.4728
59.4714
59.4834
59.4869
59.4821
59.4866
59.4932
59.4905
59.4902
59.4838
59.4849
59.5056
59.5126
59.5111
59.5103
59.5038
59.5008
59.4925
59.497
59.5028
59.5009
59.5015
59.4992
59.496
59.4937
59.4931
59.4889
59.4885
59.4852
59.4832
59.4807
59.4765
59.4716
59.4663
59.4561
59.4375
59.4304
59.4256
59.4234
59.4161
59.4175
59.4324
59.4329
59.4321
59.4254
59.422
59.4238
59.4223
59.4261
59.4296
59.4273
59.4195
59.4213
59.4234
59.4178
59.4143
59.4201
59.4276
59.4353
59.4401
59.4306
59.4357
59.44
59.4382
59.4364
59.4287
59.4322
59.4323
59.4411
59.4522
59.4525
59.4525
59.4406
59.4448
59.4505
59.4471
59.4341
55.022
55.8929
56.7757
57.6529
58.4314
58.9782
59.303
59.448
59.4738
59.4746
59.4744
59.465
59.4644
59.4634
59.4726
59.4824
59.4812
59.477
59.4761
59.4981
59.5056
59.5033
59.4985
59.4937
59.5002
59.5108
59.508
59.5095
59.5092
59.4965
59.498
59.5001
59.4949
59.4948
59.4905
59.4893
59.4893
59.489
59.4851
59.4827
59.4797
59.4786
59.4739
59.47
59.4668
59.4604
59.4456
59.4293
59.4265
59.4214
59.4248
59.4363
59.4314
59.437
59.4397
59.4335
59.4361
59.4399
59.4385
59.4365
59.4253
59.4209
59.4314
59.435
59.4336
59.4332
59.4241
59.4325
59.4472
59.4382
59.4435
59.4535
59.4461
59.4511
59.4549
59.4543
59.454
59.4422
59.4404
59.4463
59.4472
59.4458
59.4449
59.4422
59.4423
59.4424
59.4393
59.4396
59.437
59.4271
55.0235
55.8929
56.7718
57.6595
58.4256
58.9769
59.3076
59.4538
59.4822
59.4828
59.483
59.4786
59.4716
59.4823
59.4994
59.494
59.4992
59.5019
59.4999
59.494
59.4953
59.5192
59.5263
59.5255
59.5261
59.5232
59.5157
59.5115
59.5077
59.4957
59.4987
59.5058
59.5056
59.5054
59.503
59.5033