/*--------------------------------*- C++ -*----------------------------------*\
  =========                 |
  \\      /  F ield         | OpenFOAM: The Open Source CFD Toolbox
   \\    /   O peration     | Website:  https://openfoam.org
    \\  /    A nd           | Version:  11
     \\/     M anipulation  |
\*---------------------------------------------------------------------------*/
FoamFile
{
    format      ascii;
    class       volScalarField;
    location    "0.096";
    object      p;
}
// * * * * * * * * * * * * * * * * * * * * * * * * * * * * * * * * * * * * * //

dimensions      [0 2 -2 0 0 0 0];

internalField   nonuniform List<scalar> 
287084
(
1.67924
1.39258
1.33659
1.26608
1.19731
1.14414
1.09299
1.04564
1.00018
0.955626
0.911784
0.867772
0.823093
0.778259
0.733618
0.688409
0.642205
0.595866
0.549678
0.503828
0.4584
0.413862
0.370303
0.3282
0.286029
0.24733
0.216099
0.187006
0.161402
0.139949
0.118648
0.0979479
0.0808621
0.068458
0.0593499
0.0532982
0.0500591
0.0492475
0.0505487
0.0536507
0.0582439
0.0640327
0.0707385
0.0781093
0.0859048
0.0939378
0.101968
0.10996
0.117571
0.124951
0.13184
0.138032
0.143879
0.149106
0.153631
0.15731
0.160574
0.163084
0.164841
0.166024
0.166469
0.166332
0.165565
0.164212
0.162332
0.159888
0.156948
0.153492
0.149615
0.145316
0.14057
0.135443
0.129972
0.124158
0.118049
0.111605
0.1049
0.0979689
0.0907609
0.0833552
0.0757258
0.0679132
0.059894
0.051701
0.0432487
0.0345314
0.0253892
0.01547
0.00521306
0.00117238
1.54378
1.35111
1.30438
1.24611
1.18553
1.13592
1.0872
1.04125
0.996659
0.952719
0.909161
0.865285
0.820892
0.776289
0.731175
0.685444
0.639194
0.592791
0.546401
0.500337
0.454711
0.410046
0.366491
0.324561
0.284379
0.246916
0.213464
0.182458
0.155585
0.131509
0.109354
0.0905122
0.075143
0.0633208
0.05468
0.0490244
0.0461155
0.0456255
0.047236
0.0506375
0.05552
0.0615839
0.068546
0.0761593
0.0841781
0.0924089
0.100644
0.108772
0.116599
0.124065
0.131095
0.137536
0.143404
0.148592
0.153132
0.156976
0.160197
0.162711
0.164529
0.165725
0.166247
0.166136
0.165405
0.164089
0.162214
0.159804
0.156861
0.153435
0.149557
0.145257
0.140534
0.135409
0.12994
0.124122
0.118018
0.111576
0.10487
0.0979607
0.0907476
0.0833432
0.075737
0.0679392
0.0599229
0.0517902
0.0433875
0.0348709
0.0259678
0.0169628
0.00750973
0.00215085
1.51687
1.34501
1.29661
1.23968
1.18131
1.13237
1.08441
1.03881
0.994223
0.950139
0.906214
0.861969
0.817203
0.772175
0.72667
0.680487
0.633832
0.586941
0.540025
0.493412
0.447302
0.402121
0.358169
0.315816
0.275455
0.237711
0.20346
0.172335
0.144187
0.119798
0.0984941
0.0802396
0.0653161
0.0538673
0.0457202
0.0405856
0.0382203
0.0382967
0.0404855
0.0444663
0.049914
0.0565243
0.0640099
0.0721067
0.0805762
0.089217
0.0978268
0.106288
0.114403
0.122141
0.129354
0.13594
0.142043
0.147442
0.152172
0.15618
0.159519
0.162165
0.16407
0.165328
0.165884
0.16582
0.165125
0.163839
0.161996
0.159593
0.1567
0.153294
0.14944
0.14515
0.140429
0.135336
0.129887
0.12408
0.11797
0.111549
0.10486
0.097925
0.0907448
0.0833554
0.0757506
0.0679608
0.0599894
0.0518324
0.043487
0.0349144
0.0260857
0.0169327
0.00766887
0.00243377
1.46899
1.31018
1.26708
1.21513
1.1625
1.11713
1.07207
1.0285
0.98538
0.942298
0.898984
0.855053
0.810474
0.765236
0.719271
0.672609
0.625416
0.577908
0.530316
0.482964
0.436118
0.390215
0.345577
0.30266
0.261891
0.223763
0.188757
0.156947
0.128636
0.103799
0.0823496
0.0644305
0.0501474
0.03943
0.03206
0.0277761
0.0262892
0.0272678
0.0303626
0.035236
0.0415482
0.0489872
0.057251
0.0660766
0.075219
0.0844728
0.0936519
0.102608
0.111202
0.119335
0.126938
0.13392
0.14025
0.145868
0.150775
0.154964
0.158438
0.16119
0.163223
0.164578
0.165255
0.165271
0.164657
0.163445
0.161646
0.159311
0.156445
0.153082
0.149257
0.144988
0.140307
0.135221
0.129778
0.123985
0.117889
0.111485
0.104807
0.0978889
0.0907189
0.0833395
0.075749
0.0679778
0.0600144
0.0519055
0.0436223
0.0351208
0.0264209
0.017254
0.00826221
0.00300728
1.44568
1.29573
1.25513
1.20521
1.15485
1.11049
1.06613
1.02283
0.979677
0.936363
0.892626
0.848189
0.80302
0.757046
0.710285
0.662779
0.614694
0.566225
0.517621
0.469221
0.421326
0.374377
0.328759
0.284927
0.243348
0.204443
0.168722
0.136336
0.107539
0.082575
0.0614355
0.0441053
0.0305728
0.0206995
0.0142926
0.0110591
0.0106837
0.0128123
0.0170715
0.0230983
0.0305372
0.0390544
0.0483398
0.0581217
0.0681475
0.0782093
0.0881218
0.0977392
0.106921
0.115583
0.12364
0.131018
0.137715
0.143671
0.148876
0.153329
0.157019
0.159969
0.162173
0.16367
0.16446
0.164588
0.164067
0.162927
0.161207
0.15892
0.156111
0.152797
0.149009
0.144773
0.140114
0.135064
0.129656
0.123887
0.117803
0.111418
0.104758
0.0978436
0.0906951
0.0833332
0.0757598
0.0680054
0.0600832
0.051967
0.0437049
0.0351914
0.0264754
0.0173423
0.00839691
0.00309473
1.42079
1.27246
1.23348
1.18546
1.13745
1.09503
1.05241
1.01046
0.968322
0.925665
0.882284
0.837902
0.792516
0.746068
0.698618
0.650267
0.601183
0.551599
0.501797
0.452112
0.402934
0.354678
0.30782
0.262812
0.220181
0.180364
0.143821
0.110899
0.0818349
0.0568034
0.0358808
0.0190721
0.0063159
-0.0025464
-0.00777233
-0.00968299
-0.00865198
-0.00506742
0.000665503
0.00814736
0.0169947
0.0268607
0.0374153
0.0483777
0.059494
0.070551
0.0813707
0.0917998
0.10172
0.111035
0.119677
0.127584
0.134725
0.141072
0.146615
0.151357
0.155304
0.158473
0.160875
0.162539
0.163486
0.163741
0.163335
0.1623
0.160657
0.158451
0.155705
0.152445
0.148709
0.144513
0.139894
0.134872
0.129479
0.123737
0.117676
0.111313
0.104673
0.0977819
0.0906493
0.0832989
0.0757454
0.0680041
0.0600922
0.0520036
0.0437808
0.0352619
0.0266117
0.017495
0.00858013
0.00329251
1.4025
1.25696
1.21975
1.1733
1.12683
1.08534
1.04334
1.00164
0.959467
0.916537
0.872671
0.827635
0.781445
0.73404
0.685508
0.63593
0.585527
0.534508
0.483185
0.431937
0.381151
0.33132
0.282922
0.236487
0.192557
0.151617
0.114182
0.080586
0.0511704
0.0261263
0.00556749
-0.0105351
-0.0222881
-0.0299098
-0.0337023
-0.0340371
-0.0313348
-0.0260269
-0.0185631
-0.00937253
0.00113355
0.0125784
0.0246219
0.0369728
0.0493691
0.0615958
0.0734719
0.0848553
0.0956255
0.105698
0.115005
0.1235
0.131162
0.137971
0.143919
0.149021
0.153279
0.156716
0.159354
0.161223
0.162346
0.162755
0.162483
0.161558
0.160021
0.157897
0.155227
0.152034
0.148349
0.144204
0.13963
0.134651
0.129298
0.123586
0.11755
0.111209
0.10459
0.0977131
0.0905992
0.0832697
0.0757325
0.0680138
0.0601288
0.0520496
0.0438365
0.0353359
0.0266707
0.0175437
0.0086418
0.00332052
1.38517
1.2399
1.20322
1.15757
1.11198
1.07135
1.0301
0.988971
0.947151
0.904326
0.860341
0.81491
0.76808
0.719801
0.67017
0.619316
0.567444
0.51482
0.461785
0.408718
0.356107
0.304424
0.254261
0.206154
0.160726
0.118507
0.0800468
0.0457718
0.0160265
-0.00896407
-0.0290957
-0.0443995
-0.0550223
-0.0612258
-0.0633671
-0.0618752
-0.0572278
-0.0499178
-0.0404415
-0.0292705
-0.0168541
-0.00359068
0.0101595
0.0240928
0.0379432
0.0514952
0.0645732
0.0770335
0.0887714
0.0997039
0.109776
0.118945
0.1272
0.134529
0.140931
0.146421
0.151021
0.154758
0.157656
0.159751
0.161072
0.16165
0.161524
0.160732
0.159304
0.157279
0.154689
0.151566
0.147947
0.143855
0.13933
0.134394
0.12907
0.123393
0.117384
0.111074
0.104481
0.0976283
0.0905323
0.083218
0.0757019
0.0679977
0.0601252
0.0520686
0.0438778
0.0353936
0.0267671
0.0175957
0.00867049
0.00337064
1.37017
1.22573
1.18987
1.14494
1.10014
1.06002
1.01908
0.978013
0.936009
0.892768
0.848151
0.801904
0.754047
0.704547
0.65352
0.601077
0.547475
0.492967
0.437935
0.382806
0.328067
0.274298
0.222089
0.172082
0.124951
0.0812793
0.0417042
0.0066584
-0.0234243
-0.0483321
-0.0679249
-0.0822796
-0.0915759
-0.0961264
-0.0963645
-0.0927824
-0.0859298
-0.0763596
-0.0646252
-0.0512431
-0.0366943
-0.0214088
-0.00576378
0.00992401
0.0253873
0.0404061
0.0548067
0.0684566
0.0812511
0.0931252
0.104028
0.113934
0.122833
0.130724
0.137622
0.143549
0.14853
0.152596
0.155781
0.158123
0.15966
0.160428
0.160471
0.159819
0.158515
0.156596
0.1541
0.151059
0.147508
0.143481
0.139009
0.134117
0.128839
0.123198
0.117222
0.110935
0.104365
0.0975338
0.0904598
0.0831673
0.0756679
0.0679825
0.0601269
0.0520793
0.0438987
0.0354089
0.0267782
0.0176149
0.00871394
0.00344078
1.35622
1.21187
1.17623
1.13161
1.08711
1.04724
1.00647
0.965425
0.923277
0.879686
0.834501
0.787439
0.738539
0.687769
0.63524
0.581104
0.525596
0.469026
0.411794
0.354354
0.297289
0.241172
0.186724
0.134607
0.085594
0.0403403
-0.000473539
-0.0363146
-0.0667428
-0.0915
-0.110468
-0.12373
-0.131519
-0.134223
-0.132331
-0.126423
-0.11712
-0.105047
-0.0908151
-0.0749958
-0.0581076
-0.0406079
-0.0228977
-0.00530292
0.0119042
0.0285066
0.0443314
0.0592576
0.0731959
0.0860816
0.0978825
0.10858
0.118174
0.126675
0.134106
0.140496
0.14588
0.150298
0.153788
0.156398
0.158168
0.159133
0.159343
0.158843
0.157671
0.155866
0.153466
0.150511
0.147038
0.143073
0.138654
0.133811
0.128574
0.122973
0.117032
0.110777
0.104234
0.0974291
0.0903772
0.0831017
0.0756192
0.0679498
0.0601076
0.0520805
0.0439144
0.0354487
0.0268389
0.0176469
0.00870904
0.00340958
1.34345
1.1993
1.16393
1.11959
1.07531
1.03555
0.994743
0.953488
0.910923
0.86673
0.820711
0.772585
0.722406
0.670145
0.615916
0.55985
0.50224
0.443384
0.383728
0.323773
0.264126
0.205465
0.148538
0.0941239
0.0430625
-0.00391787
-0.0460307
-0.0827246
-0.11347
-0.138026
-0.156244
-0.168264
-0.174364
-0.175001
-0.17076
-0.162296
-0.150317
-0.135523
-0.118592
-0.100149
-0.0807534
-0.0608927
-0.04098
-0.0213557
-0.00229614
0.0159818
0.0333183
0.0495986
0.0647393
0.0786905
0.0914298
0.102957
0.113276
0.122413
0.1304
0.137277
0.143088
0.147876
0.151688
0.154573
0.156586
0.157764
0.158162
0.157819
0.156784
0.155099
0.152803
0.149938
0.14654
0.142645
0.138287
0.133497
0.128307
0.122747
0.11684
0.110613
0.104097
0.0973147
0.0902833
0.0830297
0.0755634
0.067912
0.0600863
0.0520728
0.0439069
0.0354567
0.0268378
0.0176239
0.00871663
0.00343242
1.33157
1.18741
1.15206
1.10783
1.06352
1.02369
0.982695
0.941112
0.898058
0.853173
0.806242
0.757013
0.705488
0.65164
0.595579
0.537473
0.477593
0.416292
0.354035
0.29137
0.228978
0.167569
0.108014
0.0511378
-0.00210706
-0.0509023
-0.0944004
-0.13195
-0.163005
-0.187272
-0.204641
-0.215278
-0.219519
-0.217913
-0.211123
-0.199909
-0.185064
-0.167369
-0.147568
-0.126342
-0.104298
-0.0819473
-0.059724
-0.0379771
-0.0169867
0.00304124
0.0219482
0.0396279
0.0560135
0.0710672
0.0847814
0.0971645
0.108238
0.118033
0.126596
0.133973
0.140219
0.145387
0.149528
0.152701
0.15496
0.156354
0.156936
0.156759
0.15587
0.154308
0.152119
0.149347
0.14603
0.142204
0.137908
0.133172
0.128025
0.122502
0.116631
0.110439
0.10395
0.0971923
0.0901836
0.0829512
0.0755057
0.0678702
0.060054
0.0520553
0.0439097
0.0354529
0.0268735
0.0176585
0.00872553
0.00345634
1.32051
1.17636
1.14103
1.0968
1.05241
1.01242
0.971124
0.929091
0.885402
0.839689
0.791721
0.741253
0.688232
0.632661
0.574647
0.514344
0.452068
0.388163
0.323153
0.25762
0.192303
0.128013
0.0656612
0.00620517
-0.0493259
-0.100021
-0.144927
-0.183342
-0.214643
-0.238554
-0.254952
-0.264063
-0.266292
-0.262271
-0.252767
-0.238636
-0.220769
-0.200032
-0.177237
-0.153125
-0.128337
-0.103419
-0.0788174
-0.0548927
-0.0319205
-0.010105
0.0104041
0.029512
0.0471682
0.0633431
0.0780402
0.091289
0.10312
0.113584
0.122729
0.130614
0.137303
0.142855
0.147336
0.1508
0.153312
0.154927
0.155702
0.155689
0.15494
0.153502
0.151422
0.148745
0.145509
0.141753
0.137519
0.132838
0.127741
0.122261
0.116425
0.110264
0.103806
0.0970733
0.0900832
0.0828674
0.0754358
0.0678177
0.0600177
0.0520312
0.0438868
0.0354672
0.0268715
0.0176178
0.00870212
0.00343577
1.3102
1.16602
1.13063
1.08631
1.04173
1.00145
0.959767
0.917198
0.872812
0.826207
0.777134
0.72533
0.670773
0.613404
0.553347
0.490773
0.425986
0.359391
0.29151
0.223006
0.154665
0.0873672
0.0221421
-0.0399809
-0.0978654
-0.150494
-0.196825
-0.236064
-0.267579
-0.291047
-0.306383
-0.313857
-0.313945
-0.307381
-0.295035
-0.277875
-0.256882
-0.233011
-0.207146
-0.18008
-0.152497
-0.124967
-0.0979566
-0.0718286
-0.0468606
-0.0232494
-0.0011345
0.019406
0.038332
0.0556292
0.0713174
0.0854346
0.0980273
0.109153
0.118878
0.127271
0.134401
0.140337
0.145152
0.148909
0.151671
0.153502
0.154463
0.154616
0.154012
0.152699
0.150729
0.148144
0.144989
0.141305
0.137135
0.132507
0.127453
0.122012
0.116212
0.110084
0.103651
0.0969425
0.0899761
0.0827804
0.075369
0.0677698
0.0599789
0.052009
0.0438736
0.0354717
0.026901
0.0176285
0.0086885
0.00341964
1.30064
1.15642
1.12093
1.07647
1.03166
0.991066
0.948924
0.905759
0.860595
0.813036
0.762787
0.709609
0.65343
0.594207
0.532052
0.467134
0.399787
0.330416
0.259616
0.188063
0.116629
0.0462843
-0.0218832
-0.0867062
-0.146968
-0.201514
-0.249232
-0.289264
-0.320907
-0.343853
-0.358028
-0.363757
-0.361611
-0.352419
-0.337159
-0.316904
-0.292737
-0.265699
-0.236747
-0.206727
-0.176351
-0.146225
-0.116824
-0.0885122
-0.0615669
-0.0361777
-0.0124717
0.00948162
0.0296561
0.0480589
0.0647172
0.0796844
0.0930205
0.104801
0.115097
0.123989
0.131556
0.137866
0.143004
0.147043
0.150053
0.152102
0.153256
0.15357
0.153102
0.151911
0.150047
0.147553
0.144476
0.140861
0.136748
0.132175
0.127171
0.121772
0.116007
0.10991
0.103507
0.0968231
0.0898742
0.0826965
0.0752972
0.0677089
0.0599332
0.0519744
0.0438566
0.0354555
0.0269091
0.017626
0.00867207
0.00343262
1.29182
1.14756
1.11193
1.0673
1.0222
0.981224
0.93857
0.894774
0.848806
0.800263
0.74883
0.69425
0.636444
0.575348
0.511082
0.443821
0.373891
0.301757
0.228004
0.153416
0.0788827
0.00547687
-0.0656087
-0.133117
-0.195718
-0.252144
-0.301196
-0.341945
-0.373662
-0.396007
-0.408955
-0.412886
-0.408456
-0.396602
-0.378412
-0.355067
-0.327745
-0.29757
-0.265572
-0.232635
-0.199518
-0.166842
-0.1351
-0.104659
-0.0757913
-0.0486783
-0.0234355
-0.000114787
0.0212724
0.0407407
0.0583409
0.0741339
0.0881941
0.100604
0.111449
0.120821
0.128805
0.13548
0.140939
0.145255
0.148499
0.150751
0.152079
0.152551
0.152218
0.151145
0.149385
0.14698
0.143984
0.140438
0.136384
0.131858
0.126897
0.121537
0.115804
0.109733
0.103353
0.0966915
0.0897667
0.0826085
0.0752273
0.0676538
0.0598901
0.0519393
0.0438234
0.0354318
0.0268683
0.0175886
0.00867367
0.00344736
1.28377
1.13944
1.10366
1.05884
1.01344
0.972069
0.928908
0.884442
0.837675
0.788131
0.735506
0.679531
0.620108
0.557166
0.490812
0.421229
0.348765
0.273887
0.197252
0.119658
0.0420888
-0.0343038
-0.108256
-0.178368
-0.243229
-0.301434
-0.351739
-0.393112
-0.424811
-0.446485
-0.458152
-0.460254
-0.453542
-0.439052
-0.417984
-0.391621
-0.361231
-0.328022
-0.293082
-0.257341
-0.221592
-0.186478
-0.152499
-0.120023
-0.0893173
-0.0605572
-0.0338442
-0.00922002
0.0133153
0.0337996
0.0522913
0.06887
0.0836124
0.0966189
0.107988
0.117814
0.126196
0.133215
0.138967
0.14354
0.147016
0.149465
0.150969
0.15159
0.151386
0.150424
0.148758
0.146438
0.143513
0.140029
0.136029
0.131553
0.126635
0.121313
0.115616
0.109577
0.10322
0.0965797
0.0896696
0.0825292
0.0751625
0.0676019
0.0598465
0.0519074
0.0438049
0.0354141
0.026864
0.0175734
0.00866429
0.00345479
1.27649
1.13211
1.09616
1.05115
1.00543
0.963665
0.919948
0.874863
0.82727
0.776772
0.723008
0.665674
0.604692
0.53996
0.471595
0.399783
0.32487
0.247379
0.167949
0.087489
0.00699256
-0.0722566
-0.148938
-0.221525
-0.288497
-0.348371
-0.399808
-0.441717
-0.473326
-0.494292
-0.504674
-0.504976
-0.496043
-0.479011
-0.455185
-0.425942
-0.392637
-0.356556
-0.318835
-0.280447
-0.24222
-0.204814
-0.168733
-0.134348
-0.101925
-0.0716282
-0.0435466
-0.0177077
0.00590958
0.0273464
0.0466714
0.0639751
0.0793588
0.0929219
0.104772
0.115022
0.123768
0.131104
0.137138
0.141954
0.145638
0.148275
0.149935
0.150688
0.150604
0.149749
0.148173
0.145929
0.143073
0.139648
0.135702
0.131273
0.126393
0.121102
0.115433
0.10942
0.103086
0.0964636
0.0895726
0.082447
0.0750921
0.0675417
0.0597995
0.051869
0.0437804
0.0353943
0.0269025
0.0176262
0.00863667
0.00343507
1.27003
1.12559
1.08946
1.04427
0.998248
0.956079
0.911881
0.866154
0.817821
0.766405
0.711529
0.652932
0.590475
0.524069
0.453809
0.379896
0.302687
0.222715
0.140685
0.0575222
-0.0256943
-0.107619
-0.186842
-0.261702
-0.330633
-0.391997
-0.44443
-0.486753
-0.518206
-0.538432
-0.54755
-0.546122
-0.535087
-0.515673
-0.489274
-0.45736
-0.421362
-0.382629
-0.34235
-0.301533
-0.261034
-0.221527
-0.183527
-0.147402
-0.113411
-0.0817081
-0.0523754
-0.0254263
-0.000838161
0.0214566
0.0415401
0.0595116
0.0754733
0.0895415
0.101836
0.11247
0.121554
0.129185
0.135469
0.140505
0.144383
0.147183
0.148992
0.149874
0.149898
0.149134
0.14764
0.145468
0.142674
0.139304
0.135405
0.131014
0.12617
0.120913
0.115274
0.109284
0.10297
0.0963648
0.0894897
0.0823816
0.0750373
0.0675002
0.0597647
0.0518401
0.0437515
0.0353732
0.0268267
0.0175445
0.00865609
0.00346357
1.26441
1.1199
1.08363
1.03825
0.991947
0.94942
0.904736
0.858449
0.809396
0.757144
0.70129
0.641515
0.577717
0.509778
0.437794
0.361968
0.282665
0.20046
0.116044
0.030437
-0.0552693
-0.139601
-0.221104
-0.298003
-0.368656
-0.431346
-0.484614
-0.527267
-0.558517
-0.578021
-0.585948
-0.582923
-0.569967
-0.548386
-0.519665
-0.485345
-0.446931
-0.405831
-0.363268
-0.320289
-0.277766
-0.236389
-0.196677
-0.159
-0.123612
-0.0906615
-0.0602146
-0.0322785
-0.00681223
0.01625
0.037006
0.0555684
0.0720512
0.0865684
0.09925
0.110223
0.1196
0.127487
0.133995
0.139224
0.143269
0.146217
0.148148
0.149141
0.149265
0.148587
0.147165
0.145056
0.142316
0.138994
0.135138
0.130785
0.125973
0.120739
0.115123
0.109156
0.102861
0.0962725
0.08941
0.0823087
0.0749761
0.0674483
0.0597202
0.0518034
0.043721
0.0353482
0.0268212
0.0175508
0.00865215
0.00345684
1.25966
1.11511
1.07869
1.03316
0.986592
0.94374
0.898642
0.851849
0.802175
0.749195
0.692446
0.631648
0.566669
0.497381
0.423878
0.346377
0.26524
0.181051
0.094559
0.00680542
-0.0810527
-0.167492
-0.250993
-0.32964
-0.40179
-0.465563
-0.519519
-0.562388
-0.593416
-0.612242
-0.619092
-0.614643
-0.599994
-0.576524
-0.545784
-0.509388
-0.468886
-0.425742
-0.381211
-0.336367
-0.292105
-0.249122
-0.207942
-0.168937
-0.132353
-0.0983293
-0.0669292
-0.0381474
-0.0119402
0.0117799
0.033111
0.052174
0.0690928
0.0839964
0.0970173
0.10828
0.117911
0.126021
0.132725
0.138124
0.142317
0.145391
0.147433
0.148519
0.148725
0.148118
0.146761
0.144708
0.142016
0.138735
0.134913
0.130593
0.125807
0.120597
0.115002
0.109051
0.102771
0.0961961
0.0893456
0.0822587
0.0749365
0.0674171
0.0596956
0.0517843
0.0437118
0.0353351
0.0268341
0.017554
0.00863257
0.00344981
1.25582
1.11124
1.0747
1.02902
0.982245
0.939115
0.893679
0.846447
0.796259
0.742637
0.685153
0.623507
0.557538
0.487128
0.412363
0.33346
0.25079
0.164966
0.076729
-0.012801
-0.102475
-0.190648
-0.275788
-0.355887
-0.429243
-0.493911
-0.548363
-0.591378
-0.622187
-0.640418
-0.646354
-0.640714
-0.624655
-0.599615
-0.567209
-0.529097
-0.486883
-0.442063
-0.395922
-0.349552
-0.303864
-0.259564
-0.217178
-0.177079
-0.13951
-0.10461
-0.0724286
-0.042955
-0.0161298
0.00812821
0.0299309
0.0494074
0.0666909
0.081913
0.0952058
0.106704
0.11654
0.124832
0.131693
0.137228
0.141537
0.144712
0.146841
0.14801
0.148287
0.147737
0.146428
0.144419
0.141764
0.138514
0.134721
0.130422
0.12566
0.120472
0.114894
0.108963
0.102695
0.0961307
0.0892915
0.0822104
0.0748955
0.0673792
0.0596631
0.0517563
0.0436822
0.0353175
0.0267938
0.017518
0.00863833
0.00346742
1.2529
1.10831
1.07169
1.02587
0.978933
0.935599
0.889886
0.842333
0.791734
0.737626
0.679568
0.617254
0.550523
0.47924
0.403491
0.323501
0.239644
0.15254
0.0629623
-0.0279486
-0.11901
-0.208526
-0.294944
-0.376119
-0.450462
-0.51571
-0.570509
-0.613623
-0.644262
-0.662011
-0.667224
-0.660653
-0.643502
-0.617256
-0.583572
-0.544149
-0.500622
-0.454522
-0.407147
-0.359613
-0.312833
-0.267526
-0.224223
-0.183292
-0.144977
-0.109403
-0.076628
-0.0466231
-0.0193271
0.00534226
0.0275023
0.047293
0.0648484
0.0803087
0.0938143
0.105499
0.115491
0.123918
0.130902
0.13654
0.14094
0.144194
0.146393
0.147617
0.147943
0.14744
0.146171
0.144197
0.141574
0.138352
0.134579
0.130305
0.125559
0.120384
0.11482
0.108896
0.102637
0.0960816
0.0892479
0.0821765
0.0748645
0.0673578
0.0596486
0.0517477
0.0436759
0.0353085
0.0268091
0.0175358
0.00862629
0.00344416
1.25096
1.10633
1.06964
1.02376
0.97671
0.933224
0.887316
0.839545
0.788642
0.734224
0.675788
0.613014
0.54576
0.473886
0.397473
0.316743
0.232072
0.144106
0.0536046
-0.0382379
-0.130271
-0.220682
-0.30799
-0.389892
-0.464975
-0.530613
-0.585469
-0.628588
-0.659189
-0.676609
-0.681334
-0.674128
-0.656235
-0.62917
-0.594619
-0.554308
-0.509895
-0.46293
-0.414727
-0.366405
-0.318892
-0.272908
-0.228982
-0.187489
-0.148664
-0.112639
-0.0794631
-0.0490938
-0.0214821
0.00346256
0.0258646
0.0458639
0.0636057
0.0792298
0.0928739
0.104679
0.114782
0.123304
0.130366
0.136077
0.140538
0.143845
0.14609
0.147358
0.147723
0.14725
0.146004
0.14405
0.141446
0.138238
0.134482
0.130214
0.125481
0.120321
0.114766
0.10885
0.102598
0.0960474
0.0892215
0.082153
0.0748453
0.067336
0.0596281
0.051726
0.0436598
0.0352939
0.026786
0.01752
0.00864465
0.00348818
1.24999
1.10534
1.06861
1.02271
0.975597
0.932031
0.88605
0.838136
0.78712
0.732508
0.673874
0.610888
0.543351
0.471177
0.394418
0.313311
0.228227
0.13982
0.0488567
-0.0434648
-0.135971
-0.226841
-0.314594
-0.396887
-0.472366
-0.538354
-0.59293
-0.636005
-0.666687
-0.683955
-0.688435
-0.680913
-0.662644
-0.635166
-0.60018
-0.559423
-0.514564
-0.467161
-0.418538
-0.369822
-0.32194
-0.275613
-0.231378
-0.189603
-0.150531
-0.114274
-0.0809292
-0.0503709
-0.0225368
0.00254225
0.025043
0.0451505
0.0629865
0.0786897
0.0924048
0.104274
0.11443
0.122995
0.130096
0.135841
0.140336
0.143669
0.145936
0.147219
0.147601
0.147145
0.145914
0.143972
0.141377
0.138183
0.134432
0.130172
0.125444
0.120289
0.114738
0.108822
0.102577
0.0960335
0.0892097
0.0821444
0.0748346
0.0673302
0.0596241
0.0517253
0.0436535
0.0352914
0.0267744
0.0174933
0.00863309
0.00347176
1.24999
1.10533
1.06861
1.02271
0.975594
0.932029
0.886044
0.838129
0.787118
0.732512
0.673868
0.610887
0.543352
0.471176
0.394422
0.313314
0.228238
0.139831
0.0488613
-0.0434516
-0.135965
-0.226832
-0.31459
-0.396878
-0.472374
-0.538342
-0.592916
-0.636008
-0.666677
-0.683946
-0.688427
-0.680904
-0.662637
-0.635159
-0.600173
-0.559417
-0.514559
-0.467157
-0.418534
-0.369817
-0.321934
-0.275609
-0.231371
-0.189594
-0.15052
-0.114266
-0.0809241
-0.050369
-0.022537
0.00254217
0.0250434
0.0451476
0.0629804
0.0786828
0.0923999
0.104266
0.114421
0.12299
0.130093
0.135838
0.14033
0.143667
0.145936
0.147222
0.147602
0.147148
0.145917
0.143975
0.141382
0.138184
0.134433
0.130173
0.125446
0.12029
0.114739
0.108825
0.102576
0.0960303
0.0892074
0.0821395
0.0748351
0.0673283
0.0596191
0.0517176
0.0436512
0.0352898
0.026776
0.0175126
0.00863804
0.00347161
1.25096
1.10633
1.06964
1.02376
0.976713
0.933226
0.887331
0.839556
0.788645
0.73423
0.675802
0.613023
0.545762
0.473888
0.397468
0.316739
0.232067
0.144103
0.0536036
-0.038241
-0.13026
-0.220665
-0.307977
-0.389858
-0.464952
-0.530553
-0.585428
-0.628594
-0.659158
-0.676582
-0.681304
-0.6741
-0.656206
-0.629142
-0.594594
-0.554286
-0.509878
-0.462913
-0.41471
-0.36639
-0.318881
-0.272899
-0.228977
-0.187483
-0.148664
-0.112639
-0.0794622
-0.0490935
-0.0214799
0.00346387
0.0258653
0.0458674
0.0636102
0.0792376
0.0928847
0.104689
0.114787
0.123307
0.130368
0.136074
0.140534
0.143839
0.146087
0.147351
0.147713
0.147242
0.145997
0.144045
0.141441
0.138237
0.134478
0.130211
0.125474
0.120314
0.11476
0.108841
0.102594
0.0960491
0.0892229
0.0821562
0.0748458
0.0673398
0.0596264
0.0517271
0.0436552
0.0352927
0.0267735
0.0174981
0.00863781
0.00346453
1.25291
1.1083
1.07168
1.02587
0.978933
0.935592
0.889889
0.842318
0.791739
0.737627
0.679562
0.617265
0.550526
0.479244
0.403501
0.323509
0.239657
0.15256
0.0629753
-0.0279272
-0.118995
-0.20849
-0.294915
-0.37608
-0.450425
-0.515662
-0.57047
-0.613586
-0.644207
-0.661965
-0.667177
-0.660608
-0.643458
-0.617214
-0.583533
-0.544114
-0.500589
-0.454493
-0.407121
-0.359591
-0.312815
-0.267513
-0.22421
-0.18328
-0.144965
-0.109392
-0.0766182
-0.0466162
-0.019321
0.00534595
0.0275042
0.0472923
0.0648474
0.0803087
0.0938125
0.105493
0.115487
0.123917
0.130895
0.136533
0.140933
0.144189
0.146389
0.147613
0.14794
0.147441
0.146174
0.144198
0.141575
0.138352
0.134578
0.130297
0.12555
0.120379
0.114817
0.108891
0.102633
0.0960822
0.0892497
0.0821733
0.0748632
0.0673519
0.0596403
0.0517326
0.0436588
0.0352932
0.0267601
0.0174905
0.00865255
0.00349683
1.25582
1.11124
1.0747
1.02901
0.982245
0.939107
0.893686
0.846442
0.796255
0.74264
0.685168
0.623529
0.557543
0.487138
0.41237
0.333473
0.250803
0.164976
0.0767465
-0.0127896
-0.102443
-0.190616
-0.275748
-0.35584
-0.42919
-0.493845
-0.548301
-0.591319
-0.622121
-0.640351
-0.646285
-0.640647
-0.62459
-0.599557
-0.567155
-0.529049
-0.486839
-0.442022
-0.395886
-0.349522
-0.30384
-0.259545
-0.217163
-0.177068
-0.139503
-0.104602
-0.0724224
-0.0429488
-0.0161242
0.00813335
0.0299352
0.0494096
0.0666903
0.0819133
0.0952093
0.106709
0.116543
0.124832
0.131694
0.137226
0.141533
0.144705
0.146835
0.148003
0.148277
0.147727
0.14642
0.144413
0.141759
0.138511
0.134715
0.130419
0.125657
0.120469
0.114891
0.108954
0.10269
0.096129
0.0892887
0.0822123
0.0748943
0.0673799
0.0596608
0.0517563
0.0436837
0.0353129
0.0268185
0.0175358
0.00863426
0.00345861
1.25966
1.11511
1.0787
1.03314
0.98659
0.943729
0.898641
0.851829
0.802166
0.749177
0.692457
0.63167
0.566677
0.497391
0.423896
0.346392
0.265261
0.181081
0.0945816
0.00684047
-0.0810197
-0.167441
-0.250939
-0.329584
-0.401721
-0.465491
-0.519438
-0.562317
-0.593331
-0.612158
-0.619009
-0.614568
-0.599919
-0.576451
-0.545717
-0.509326
-0.468829
-0.425692
-0.381167
-0.336335
-0.292078
-0.249101
-0.207924
-0.16892
-0.132338
-0.0983169
-0.0669182
-0.0381364
-0.0119271
0.0117892
0.0331204
0.0521829
0.0690995
0.0840018
0.0970209
0.108282
0.117909
0.126018
0.132717
0.138113
0.142305
0.145381
0.147424
0.148513
0.148719
0.148115
0.146758
0.144706
0.142016
0.138733
0.134906
0.13058
0.125794
0.120588
0.114994
0.109044
0.102769
0.0961946
0.0893421
0.0822537
0.0749319
0.0674094
0.0596866
0.0517723
0.0436923
0.0353204
0.0267808
0.0175025
0.00865492
0.00349031
1.2644
1.11991
1.08362
1.03824
0.991946
0.949402
0.904742
0.858432
0.809391
0.757111
0.701309
0.641573
0.577722
0.509789
0.437809
0.36199
0.282698
0.200477
0.116076
0.0304631
-0.0552141
-0.139551
-0.22104
-0.29794
-0.368582
-0.431264
-0.484528
-0.527174
-0.558422
-0.577921
-0.585852
-0.582829
-0.569876
-0.548302
-0.519586
-0.485275
-0.446867
-0.405772
-0.363217
-0.320244
-0.277729
-0.236356
-0.196649
-0.158979
-0.123594
-0.0906463
-0.0602015
-0.0322654
-0.00680419
0.0162574
0.0370118
0.0555676
0.0720439
0.0865611
0.0992448
0.110214
0.119589
0.12748
0.133996
0.139223
0.143265
0.146208
0.14814
0.149135
0.149259
0.148577
0.147156
0.145052
0.142314
0.138992
0.135132
0.13078
0.125968
0.120737
0.115118
0.109149
0.102856
0.0962704
0.0894078
0.0823097
0.0749753
0.067445
0.0597152
0.0518037
0.0437233
0.0353458
0.0268366
0.017568
0.00864025
0.0034341
1.27002
1.12559
1.08946
1.04425
0.998239
0.956068
0.911863
0.866139
0.817797
0.766388
0.711539
0.652964
0.590492
0.524082
0.453828
0.379923
0.30272
0.222756
0.140721
0.0575703
-0.0256411
-0.107553
-0.186765
-0.261622
-0.330535
-0.391902
-0.444322
-0.486648
-0.518096
-0.538322
-0.547441
-0.546019
-0.534988
-0.515579
-0.489187
-0.457282
-0.421289
-0.382565
-0.342293
-0.301487
-0.260995
-0.221495
-0.183499
-0.14738
-0.113393
-0.0816943
-0.0523637
-0.0254147
-0.000824904
0.0214683
0.0415514
0.0595213
0.0754824
0.089554
0.101847
0.112474
0.121548
0.129178
0.135461
0.140493
0.144368
0.147171
0.148976
0.149859
0.149888
0.149127
0.147634
0.145465
0.142674
0.139305
0.1354
0.131007
0.126163
0.120902
0.115262
0.109273
0.102961
0.0963588
0.0894846
0.0823736
0.0750277
0.0674885
0.0597507
0.0518322
0.0437397
0.0353674
0.0268477
0.017561
0.00863953
0.00342745
1.27648
1.1321
1.09614
1.05114
1.00543
0.963648
0.919957
0.874843
0.827272
0.77677
0.723003
0.665693
0.604704
0.53998
0.471623
0.399806
0.324913
0.247404
0.168001
0.0875278
0.00705968
-0.0721955
-0.14886
-0.221439
-0.288405
-0.348275
-0.3997
-0.4416
-0.473209
-0.494168
-0.504552
-0.504855
-0.495929
-0.478908
-0.455091
-0.425857
-0.392562
-0.356484
-0.318771
-0.280391
-0.242172
-0.204772
-0.168698
-0.134322
-0.101906
-0.0716131
-0.0435299
-0.0176911
0.00591895
0.0273536
0.0466781
0.0639807
0.0793595
0.0929193
0.104771
0.115014
0.123757
0.131097
0.137134
0.141947
0.145631
0.148262
0.149922
0.150677
0.150596
0.149738
0.148162
0.145924
0.143069
0.139646
0.135698
0.131269
0.126389
0.121097
0.115426
0.109414
0.10308
0.0964598
0.0895681
0.082443
0.0750882
0.0675372
0.0597933
0.0518603
0.0437752
0.0353813
0.0268577
0.0175761
0.00865436
0.00346727
1.28375
1.13944
1.10367
1.05883
1.01343
0.972067
0.928892
0.884442
0.837662
0.788132
0.735511
0.679545
0.620121
0.557179
0.490831
0.421255
0.348795
0.273933
0.197306
0.119723
0.0421626
-0.0342257
-0.108164
-0.178276
-0.243117
-0.301323
-0.351617
-0.392987
-0.424683
-0.446355
-0.458026
-0.460131
-0.453423
-0.438942
-0.417884
-0.391533
-0.361152
-0.327951
-0.29302
-0.257287
-0.221541
-0.186433
-0.15246
-0.119992
-0.0892933
-0.0605383
-0.033831
-0.00920795
0.0133274
0.0338103
0.0523021
0.06888
0.0836231
0.0966292
0.107993
0.117815
0.126188
0.133204
0.138956
0.143529
0.147002
0.149451
0.150953
0.151575
0.151375
0.150416
0.148751
0.146434
0.143515
0.140033
0.136028
0.131548
0.126628
0.121303
0.115607
0.109565
0.103208
0.0965695
0.0896605
0.0825201
0.0751498
0.0675876
0.0598321
0.0518953
0.0437879
0.0354023
0.0268487
0.0175517
0.00866416
0.00345304
1.29182
1.14755
1.1119
1.0673
1.02219
0.981219
0.938571
0.894765
0.848804
0.800267
0.748833
0.69426
0.636457
0.575364
0.511109
0.443843
0.373943
0.30179
0.22807
0.15347
0.0789607
0.00555898
-0.065518
-0.133021
-0.195612
-0.252026
-0.301075
-0.341816
-0.373532
-0.395871
-0.408822
-0.412752
-0.408331
-0.396486
-0.378306
-0.354971
-0.327661
-0.297493
-0.265503
-0.232574
-0.199466
-0.166799
-0.135063
-0.10463
-0.0757691
-0.0486631
-0.023421
-0.000101254
0.0212818
0.0407518
0.0583531
0.0741437
0.088198
0.100605
0.111451
0.120818
0.128796
0.135471