/*--------------------------------*- C++ -*----------------------------------*\
  =========                 |
  \\      /  F ield         | OpenFOAM: The Open Source CFD Toolbox
   \\    /   O peration     | Website:  https://openfoam.org
    \\  /    A nd           | Version:  11
     \\/     M anipulation  |
\*---------------------------------------------------------------------------*/
FoamFile
{
    format      ascii;
    class       volScalarField;
    location    "0.092";
    object      k;
}
// * * * * * * * * * * * * * * * * * * * * * * * * * * * * * * * * * * * * * //

dimensions      [0 2 -2 0 0 0 0];

internalField   nonuniform List<scalar> 
287084
(
0.381654
0.393894
0.406665
0.419547
0.430624
0.438462
0.442731
0.444114
0.444221
0.444206
0.444199
0.444061
0.444055
0.444202
0.444183
0.444274
0.44437
0.444298
0.444351
0.444377
0.44434
0.444272
0.444204
0.444417
0.444561
0.444566
0.444567
0.444483
0.444407
0.44442
0.444542
0.444521
0.444384
0.444418
0.444448
0.44438
0.44436
0.444368
0.444373
0.444334
0.444273
0.444223
0.444118
0.444065
0.443983
0.443928
0.443889
0.443827
0.443786
0.443708
0.443514
0.443405
0.443527
0.443614
0.443595
0.44356
0.443585
0.44359
0.443553
0.443412
0.443441
0.443545
0.443521
0.443444
0.44341
0.443681
0.443795
0.443755
0.443641
0.443591
0.4437
0.443764
0.443721
0.44355
0.443534
0.443663
0.443602
0.443699
0.443832
0.443825
0.443824
0.443751
0.443651
0.443725
0.4439
0.443829
0.443888
0.443914
0.443858
0.443625
0.38166
0.393896
0.406515
0.419291
0.430381
0.438389
0.442907
0.444347
0.444408
0.444495
0.444784
0.444664
0.444736
0.444913
0.44491
0.444917
0.444882
0.444788
0.444739
0.444722
0.444686
0.444571
0.444622
0.444948
0.444909
0.445023
0.445113
0.445047
0.445054
0.445064
0.44505
0.444929
0.44487
0.444801
0.444586
0.444616
0.444668
0.444653
0.444644
0.444419
0.444443
0.444503
0.444495
0.444494
0.444444
0.444419
0.444247
0.444153
0.444263
0.44437
0.444353
0.444346
0.444291
0.444282
0.444284
0.444249
0.444204
0.444146
0.44411
0.44408
0.444029
0.443861
0.443927
0.444175
0.444182
0.444137
0.443969
0.444028
0.444194
0.44415
0.444148
0.444065
0.444144
0.444285
0.444354
0.444328
0.444246
0.444264
0.444228
0.444069
0.444092
0.444178
0.444172
0.444172
0.444078
0.44408
0.444039
0.444076
0.444084
0.443935
0.381661
0.393899
0.406468
0.41931
0.430355
0.438225
0.442855
0.444604
0.444838
0.444837
0.444832
0.444678
0.444716
0.444801
0.444784
0.444779
0.444612
0.444671
0.44499
0.445002
0.444981
0.444976
0.444823
0.444886
0.445079
0.445045
0.44505
0.445043
0.445043
0.444973
0.444971
0.444924
0.444896
0.444879
0.444879
0.444865
0.444863
0.444862
0.444845
0.444802
0.444711
0.444489
0.444328
0.444352
0.444405
0.444381
0.444362
0.444192
0.444198
0.444311
0.4443
0.444274
0.444273
0.444275
0.444212
0.444205
0.444206
0.444186
0.44418
0.444113
0.443881
0.443876
0.444034
0.444086
0.444055
0.443884
0.443965
0.444228
0.444137
0.444224
0.444279
0.444258
0.444247
0.444254
0.444262
0.44423
0.444219
0.443998
0.443975
0.444018
0.444029
0.444028
0.443953
0.443994
0.443948
0.444052
0.44423
0.444232
0.444221
0.443982
0.381653
0.393868
0.406508
0.419295
0.430273
0.438147
0.442803
0.444669
0.444922
0.444873
0.444827
0.444915
0.445006
0.444996
0.444994
0.444921
0.444901
0.444737
0.444776
0.44494
0.444858
0.444871
0.444861
0.444728
0.444742
0.444902
0.444903
0.44487
0.444818
0.444695
0.444778
0.444952
0.444815
0.444894
0.444951
0.444916
0.444912
0.444916
0.444917
0.444856
0.444838
0.444797
0.444802
0.444765
0.444682
0.444469
0.444353
0.444295
0.444281
0.444238
0.444061
0.444092
0.444168
0.44413
0.444108
0.444125
0.444148
0.444103
0.444003
0.44396
0.444116
0.444163
0.444148
0.444146
0.444117
0.444053
0.444056
0.44405
0.443952
0.444019
0.444229
0.444146
0.444207
0.444235
0.444204
0.444164
0.444073
0.444105
0.444103
0.444221
0.444353
0.444326
0.444278
0.444192
0.444226
0.444298
0.444275
0.444295
0.444253
0.444004
0.38165
0.393856
0.406546
0.419217
0.430247
0.438285
0.442615
0.444556
0.444928
0.444933
0.444918
0.444725
0.444775
0.44487
0.44478
0.444802
0.444765
0.444617
0.444616
0.444785
0.44483
0.444785
0.444624
0.444674
0.444883
0.444828
0.444847
0.444845
0.444751
0.444806
0.444917
0.444759
0.444821
0.444879
0.444873
0.444871
0.444805
0.444619
0.444611
0.444684
0.444579
0.444652
0.444678
0.444597
0.444609
0.444617
0.444565
0.444576
0.444579
0.44455
0.444551
0.444488
0.444455
0.444374
0.444316
0.444277
0.444196
0.443999
0.44384
0.443923
0.444024
0.44401
0.444026
0.443999
0.443961
0.443909
0.443741
0.443738
0.443972
0.444036
0.443996
0.443856
0.443885
0.444157
0.444112
0.444225
0.444355
0.44419
0.444243
0.444337
0.444205
0.444284
0.444332
0.44431
0.444297
0.444097
0.444133
0.4442
0.444157
0.444009
0.381651
0.393871
0.406487
0.419217
0.430369
0.43823
0.44252
0.444119
0.444797
0.444805
0.444686
0.444754
0.444806
0.444796
0.444793
0.444675
0.444592
0.444685
0.444875
0.444881
0.444867
0.444867
0.444819
0.444678
0.444731
0.444794
0.444677
0.444647
0.44485
0.444971
0.444839
0.444916
0.444964
0.444945
0.444941
0.444887
0.444847
0.444644
0.444531
0.444484
0.444366
0.444431
0.444507
0.444458
0.444453
0.444459
0.444447
0.444318
0.444155
0.444127
0.44419
0.444213
0.444214
0.444099
0.444079
0.4442
0.444238
0.444215
0.444191
0.444169
0.444132
0.44403
0.444072
0.444107
0.444066
0.443981
0.443929
0.444044
0.444031
0.444149
0.444341
0.444334
0.444305
0.444276
0.44423
0.444061
0.444028
0.444116
0.444071
0.444179
0.444268
0.44426
0.444258
0.444141
0.444145
0.44407
0.444152
0.444254
0.444214
0.444067
0.381646
0.393853
0.406506
0.419181
0.430436
0.438113
0.442532
0.444405
0.444719
0.44475
0.444715
0.444668
0.444561
0.444632
0.444796
0.444694
0.44482
0.44524
0.445251
0.445184
0.445261
0.445344
0.445335
0.445334
0.445258
0.445244
0.445113
0.445147
0.445174
0.445134
0.445141
0.445114
0.445085
0.444989
0.444856
0.444853
0.444852
0.444805
0.444733
0.444586
0.444601
0.444625
0.444591
0.444557
0.444499
0.444422
0.444417
0.444435
0.44442
0.444423
0.444368
0.444242
0.444085
0.44407
0.444125
0.444106
0.444119
0.444079
0.443905
0.443938
0.444088
0.444076
0.444082
0.444095
0.444089
0.443893
0.443886
0.444049
0.444113
0.444074
0.443917
0.443963
0.444081
0.44406
0.444031
0.444003
0.444076
0.444044
0.444099
0.444113
0.444089
0.444022
0.444099
0.444258
0.444277
0.444243
0.444046
0.444094
0.444184
0.443998
0.381671
0.393808
0.406531
0.419324
0.430172
0.438014
0.442679
0.444879
0.445367
0.445359
0.445245
0.445227
0.445305
0.445294
0.445293
0.445214
0.445312
0.445391
0.445372
0.445361
0.445242
0.445224
0.445138
0.445216
0.445356
0.445243
0.445327
0.445377
0.445325
0.445324
0.445277
0.445283
0.445282
0.445262
0.445262
0.445262
0.445219
0.445149
0.444886
0.444749
0.44468
0.444689
0.444702
0.444685
0.444677
0.444587
0.444577
0.444548
0.444488
0.444445
0.444412
0.444367
0.444192
0.444229
0.444338
0.444314
0.444262
0.444184
0.44419
0.444143
0.444243
0.444361
0.444276
0.444332
0.444399
0.444385
0.44438
0.444289
0.444244
0.444114
0.443987
0.444128
0.444315
0.444294
0.444261
0.444125
0.444087
0.444264
0.444377
0.444316
0.444319
0.444314
0.444245
0.444143
0.444187
0.444282
0.444216
0.44422
0.44421
0.444021
0.381654
0.393857
0.406469
0.419282
0.430291
0.438115
0.442621
0.444456
0.444719
0.444727
0.444725
0.444529
0.444582
0.444905
0.444844
0.444947
0.445074
0.444901
0.444891
0.445078
0.445079
0.445213
0.445367
0.445205
0.445177
0.445244
0.445178
0.445267
0.445397
0.445253
0.445333
0.445391
0.445377
0.445374
0.445309
0.445293
0.44521
0.445187
0.445123
0.444992
0.444799
0.444693
0.444611
0.444367
0.444334
0.444421
0.444279
0.444322
0.444457
0.444408
0.444425
0.444423
0.444396
0.444404
0.44441
0.44436
0.444269
0.444068
0.444059
0.444133
0.444106
0.443952
0.443951
0.444093
0.44403
0.44409
0.444118
0.444093
0.444095
0.44398
0.444122
0.444326
0.444245
0.444239
0.444247
0.444243
0.444178
0.444108
0.444143
0.444138
0.444261
0.444485
0.444477
0.444482
0.444473
0.44444
0.444392
0.444354
0.444284
0.444046
0.381714
0.393774
0.406467
0.419309
0.430292
0.43813
0.442619
0.444248
0.444424
0.444337
0.444425
0.444791
0.444819
0.444778
0.444632
0.444617
0.444781
0.444998
0.444983
0.444969
0.444969
0.444912
0.444903
0.444772
0.444863
0.445004
0.444949
0.444946
0.444887
0.444902
0.444889
0.444984
0.445012
0.444983
0.444984
0.444955
0.444936
0.444859
0.444842
0.44477
0.444535
0.444546
0.444568
0.444555
0.444553
0.444514
0.444494
0.44439
0.444337
0.44427
0.44413
0.443989
0.443882
0.443855
0.44385
0.443729
0.443777
0.443818
0.443721
0.44366
0.443817
0.444079
0.443996
0.444064
0.4441
0.444083
0.444076
0.443885
0.443882
0.444042
0.444044
0.444049
0.44405
0.444023
0.444029
0.443993
0.443924
0.443854
0.44402
0.44425
0.444247
0.444233
0.444041
0.44405
0.444221
0.444162
0.444254
0.444318
0.444269
0.444093
0.381673
0.393834
0.406496
0.419248
0.430258
0.438163
0.442695
0.44428
0.444378
0.444448
0.44467
0.444655
0.444622
0.444527
0.444599
0.44466
0.444565
0.444652
0.44491
0.444898
0.445124
0.4453
0.445307
0.445309
0.445223
0.445197
0.445042
0.444988
0.445128
0.445163
0.44513
0.445087
0.444994
0.444953
0.444842
0.444918
0.444975
0.444797
0.444841
0.444906
0.444899
0.444895
0.444824
0.444812
0.444757
0.444661
0.444388
0.444065
0.44406
0.44409
0.443923
0.44397
0.444083
0.444023
0.444043
0.444043
0.444024
0.443996
0.443987
0.443847
0.443898
0.44404
0.444049
0.44405
0.443903
0.443985
0.444086
0.444079
0.444076
0.443907
0.443958
0.44403
0.443868
0.443873
0.444108
0.444192
0.444182
0.444176
0.444005
0.444008
0.444108
0.44398
0.443976
0.444229
0.44434
0.444279
0.444309
0.444319
0.444275
0.444073
0.381643
0.39386
0.406493
0.419242
0.430311
0.438088
0.442608
0.444572
0.444918
0.44495
0.444915
0.444852
0.444778
0.444905
0.44513
0.445007
0.445094
0.445169
0.44513
0.445142
0.445084
0.445254
0.44537
0.445356
0.445357
0.445237
0.445335
0.445429
0.445371
0.445396
0.44545
0.445427
0.4454
0.445394
0.445358
0.445284
0.445216
0.44518
0.445173
0.445138
0.445071
0.444951
0.444859
0.444675
0.44446
0.444294
0.444237
0.444202
0.444171
0.444127
0.444041
0.443871
0.443913
0.444037
0.444144
0.44415
0.443994
0.444058
0.444165
0.444105
0.44411
0.444121
0.444104
0.443885
0.443855
0.444099
0.444179
0.444158
0.444158
0.444038
0.444117
0.444247
0.444234
0.444225
0.444077
0.444145
0.444219
0.444201
0.444193
0.444044
0.444107
0.444225
0.444196
0.444091
0.444095
0.444228
0.444221
0.444222
0.444213
0.44405
0.381684
0.39378
0.406563
0.419302
0.430151
0.438019
0.442791
0.444664
0.444871
0.444845
0.444989
0.445117
0.445133
0.445105
0.445117
0.445033
0.445079
0.445441
0.445476
0.445433
0.445289
0.445334
0.445461
0.445301
0.445335
0.445513
0.445397
0.445469
0.445587
0.445419
0.445476
0.445525
0.445506
0.445502
0.445454
0.44539
0.445265
0.445178
0.445118
0.445056
0.444925
0.444839
0.444781
0.444735
0.444676
0.44455
0.44446
0.444227
0.444159
0.44423
0.444279
0.444259
0.444236
0.444202
0.444173
0.444172
0.444163
0.444168
0.444138
0.444098
0.444011
0.444006
0.443949
0.444051
0.444201
0.44417
0.444169
0.444183
0.444183
0.444083
0.443987
0.444087
0.444251
0.444228
0.444196
0.444026
0.444033
0.444268
0.444306
0.444282
0.444264
0.444156
0.444187
0.444286
0.444249
0.444252
0.444255
0.444269
0.444212
0.444018
0.381667
0.393856
0.406455
0.419208
0.430429
0.438103
0.442555
0.444221
0.444345
0.444361
0.444416
0.444314
0.444369
0.444536
0.444547
0.444574
0.444519
0.444631
0.444904
0.445022
0.444977
0.444983
0.444914
0.444938
0.4453
0.445461
0.445253
0.445244
0.445343
0.445251
0.445317
0.445388
0.445291
0.445282
0.44529
0.445287
0.445229
0.44506
0.444906
0.444817
0.444649
0.444501
0.444454
0.444365
0.444372
0.444376
0.444335
0.444216
0.44425
0.444364
0.444378
0.444343
0.444307
0.444279
0.444234
0.444136
0.444078
0.444034
0.4439
0.443987
0.4441
0.444091
0.444088
0.443936
0.443962
0.444041
0.444012
0.444024
0.444009
0.443864
0.443858
0.44414
0.444247
0.444239
0.444257
0.44423
0.444202
0.444159
0.444144
0.444107
0.443981
0.444075
0.444389
0.444363
0.444371
0.444371
0.444326
0.444315
0.444271
0.44411
0.381671
0.393814
0.406517
0.419338
0.430164
0.437958
0.442788
0.444768
0.445043
0.445117
0.445185
0.445131
0.445098
0.445084
0.445065
0.445175
0.445238
0.445166
0.445234
0.445261
0.445153
0.445152
0.445408
0.445501
0.445405
0.445528
0.445681
0.445494
0.445554
0.445613
0.445419
0.445471
0.445492
0.445363
0.445321
0.445331
0.445352
0.445318
0.445287
0.445198
0.445091
0.444973
0.444719
0.444487
0.444305
0.444221
0.444179
0.444106
0.444007
0.443984
0.443989
0.443979
0.443967
0.44386
0.443832
0.443815
0.44392
0.444137
0.444136
0.444137
0.444075
0.443956
0.444029
0.444182
0.444161
0.444087
0.444135
0.444304
0.444308
0.444294
0.444089
0.444102
0.444206
0.444231
0.444197
0.443993
0.444038
0.444292
0.444314
0.444287
0.444271
0.444229
0.444047
0.4441
0.444269
0.444289
0.444255
0.444209
0.444191
0.443963
0.381639
0.393889
0.406536
0.419152
0.430363
0.43806
0.442584
0.444536
0.444889
0.444874
0.444822
0.444761
0.444785
0.444793
0.444728
0.444712
0.444915
0.445067
0.445048
0.444976
0.445014
0.445069
0.444968
0.445091
0.445283
0.445117
0.445143
0.44537
0.445414
0.445382
0.445379
0.445324
0.445132
0.445083
0.44503
0.444916
0.444889
0.444864
0.444819
0.444782
0.444773
0.444728
0.444695
0.444679
0.44469
0.444664
0.444621
0.444498
0.44444
0.444321
0.444015
0.443903
0.443975
0.444
0.443961
0.443835
0.443865
0.443923
0.443921
0.444315
0.444521
0.444514
0.44451
0.444451
0.444394
0.444209
0.444227
0.444376
0.444296
0.44438
0.444432
0.444365
0.444393
0.444446
0.444424
0.444359
0.444164
0.444093
0.444156
0.444213
0.444174
0.444033
0.444148
0.444316
0.444289
0.44423
0.444169
0.44415
0.444146
0.444056
0.38166
0.393834
0.406509
0.41935
0.430199
0.437884
0.442673
0.444977
0.445445
0.445444
0.445431
0.445329
0.445309
0.445273
0.4453
0.445488
0.445557
0.445528
0.445528
0.445394
0.445411
0.445527
0.445544
0.445548
0.445432
0.445484
0.445555
0.445599
0.445605
0.445466
0.445534
0.44555
0.445459
0.445458
0.445438
0.445432
0.445413
0.445371
0.445291
0.445222
0.445153
0.445054
0.44484
0.444628
0.444462
0.444369
0.444306
0.444272
0.444226
0.444124
0.443859
0.443735
0.443786
0.44387
0.443835
0.4437
0.443821
0.444125
0.444087
0.444154
0.444185
0.444146
0.444011
0.444067
0.444171
0.444061
0.444041
0.444188
0.444248
0.444244
0.444245
0.444205
0.444089
0.44409
0.44431
0.444338
0.444284
0.44428
0.444262
0.44414
0.444068
0.444207
0.44433
0.4443
0.444295
0.444269
0.444278
0.444287
0.444224
0.444002
0.381659
0.393846
0.40647
0.419382
0.430179
0.437887
0.442776
0.444913
0.445266
0.445379
0.445528
0.44552
0.44552
0.445459
0.445329
0.445345
0.445393
0.445284
0.445375
0.445522
0.445381
0.445446
0.445668
0.445541
0.445537
0.445793
0.445868
0.445822
0.445831
0.445839
0.445851
0.445808
0.445718
0.445691
0.445655
0.445608
0.445553
0.445486
0.445353
0.445162
0.445014
0.444899
0.444743
0.444615
0.444522
0.444459
0.444346
0.444071
0.443822
0.443885
0.444048
0.444023
0.444031
0.444018
0.443859
0.443862
0.444033
0.444029
0.444014
0.44398
0.443916
0.443944
0.444236
0.444356
0.44428
0.444328
0.444399
0.444381
0.444371
0.444301
0.444107
0.444174
0.444401
0.444367
0.444373
0.444316
0.444391
0.444427
0.444313
0.444337
0.444347
0.444307
0.444115
0.444112
0.444277
0.444315
0.444288
0.444274
0.444224
0.443982
0.381669
0.39381
0.406541
0.419332
0.430159
0.43798
0.442669
0.444876
0.445297
0.445253
0.445262
0.445262
0.445229
0.445188
0.445331
0.445377
0.445344
0.445342
0.445228
0.445337
0.445618
0.445631
0.445644
0.445566
0.445562
0.445547
0.445553
0.445469
0.44553
0.445553
0.445481
0.445501
0.445451
0.445414
0.445392
0.445321
0.445082
0.444827
0.444709
0.444596
0.444593
0.444596
0.444542
0.444544
0.444555
0.444569
0.44454
0.444483
0.444355
0.444014
0.443806
0.443853
0.44393
0.443917
0.443913
0.443758
0.443816
0.444065
0.444007
0.443973
0.443995
0.443957
0.443965
0.444229
0.444379
0.444353
0.444307
0.444216
0.444172
0.444088
0.444046
0.444094
0.444113
0.444047
0.444149
0.444279
0.444285
0.444285
0.444102
0.444161
0.444323
0.444225
0.444287
0.444312
0.444288
0.444282
0.444271
0.444242
0.444175
0.443955
0.381612
0.393889
0.406533
0.419273
0.430191
0.438064
0.442724
0.444653
0.444939
0.444889
0.444884
0.444875
0.44483
0.444892
0.444979
0.444948
0.444842
0.444842
0.445108
0.445203
0.445183
0.445117
0.445143
0.445525
0.445812
0.445685
0.445776
0.445844
0.445753
0.445763
0.44576
0.445717
0.445685
0.445675
0.445626
0.445576
0.445482
0.445395
0.445277
0.445184
0.445034
0.444907
0.444801
0.444647
0.444548
0.444351
0.444186
0.44404
0.443981
0.443925
0.443815
0.443612
0.443728
0.444182
0.444207
0.444195
0.444308
0.444596
0.444601
0.444603
0.444548
0.444546
0.444523
0.444408
0.444327
0.444375
0.444446
0.444433
0.444452
0.444415
0.444248
0.444315
0.444449
0.444434
0.444437
0.444381
0.44437
0.444364
0.444378
0.444336
0.444195
0.444221
0.444258
0.444098
0.444146
0.444173
0.444127
0.444124
0.444074
0.4439
0.381662
0.393852
0.406496
0.419236
0.430275
0.438222
0.442635
0.444089
0.444223
0.444302
0.444626
0.444636
0.444668
0.444675
0.44457
0.444624
0.444833
0.44481
0.444814
0.444798
0.444927
0.445487
0.445551
0.445667
0.445871
0.445782
0.445791
0.445833
0.445825
0.445802
0.445781
0.445729
0.445715
0.445681
0.44563
0.445531
0.44529
0.445093
0.444969
0.444875
0.444798
0.444736
0.44468
0.444636
0.444553
0.444366
0.444208
0.444109
0.443885
0.443777
0.443785
0.443727
0.44382
0.443892
0.443885
0.443883
0.443786
0.443721
0.443741
0.443751
0.443616
0.443669
0.443789
0.443798
0.4438
0.443627
0.443699
0.443841
0.44384
0.443866
0.443802
0.443949
0.444285
0.444327
0.44429
0.444274
0.444289
0.444304
0.444256
0.444097
0.444085
0.444199
0.444221
0.444235
0.444219
0.444204
0.444155
0.444098
0.444042
0.443873
0.381687
0.393772
0.406575
0.419294
0.430154
0.438034
0.442761
0.4448
0.44517
0.445166
0.445133
0.445014
0.444996
0.445212
0.445325
0.445213
0.445302
0.445376
0.445344
0.445346
0.445269
0.445419
0.445715
0.445842
0.445871
0.445809
0.445799
0.445675
0.44575
0.445778
0.445747
0.445741
0.44569
0.445658
0.445546
0.445469
0.44533
0.445212
0.445104
0.445028
0.444931
0.444852
0.444764
0.444685
0.444634
0.444576
0.44447
0.444266
0.443972
0.443856
0.443824
0.44378
0.443635
0.443613
0.443996
0.444208
0.444127
0.444114
0.444211
0.444232
0.444346
0.444446
0.444268
0.444268
0.444485
0.444517
0.444441
0.44451
0.444536
0.444491
0.444485
0.444415
0.444347
0.444317
0.444224
0.444293
0.444515
0.444359
0.444352
0.444486
0.444496
0.444596
0.444635
0.444595
0.444625
0.444594
0.444559
0.444546
0.444451
0.44411
0.381666
0.393826
0.406495
0.419375
0.43013
0.437992
0.442795
0.444728
0.445401
0.445427
0.445204
0.445226
0.445331
0.445323
0.445324
0.445197
0.445302
0.445491
0.445358
0.445384
0.44568
0.445756
0.445656
0.445719
0.445927
0.445818
0.445904
0.446002
0.445952
0.445943
0.44588
0.445882
0.445871
0.44583
0.44577
0.445665
0.445488
0.445334
0.44519
0.444883
0.444612
0.444501
0.444358
0.444278
0.444235
0.444201
0.444128
0.443942
0.443854
0.443939
0.443981
0.443946
0.443882
0.443803
0.443964
0.444429
0.444428
0.444353
0.444419
0.444635
0.44465
0.444622
0.444586
0.444549
0.444396
0.444445
0.444483
0.444425
0.44442
0.44441
0.444297
0.444299
0.444455
0.444373
0.444352
0.444542
0.444633
0.444598
0.444533
0.444464
0.44442
0.444277
0.444315
0.44453
0.444533
0.444503
0.444484
0.444453
0.444378
0.444123
0.381666
0.393879
0.406407
0.419321
0.430291
0.43812
0.442623
0.444383
0.444608
0.444474
0.444515
0.444634
0.444577
0.444577
0.444544
0.44469
0.445063
0.445057
0.445223
0.44571
0.445835
0.445813
0.445733
0.445777
0.445808
0.445768
0.445644
0.445648
0.445729
0.445643
0.445645
0.445639
0.445632
0.445575
0.445533
0.445471
0.445431
0.44535
0.445191
0.444935
0.444792
0.444528
0.444318
0.444224
0.444179
0.4441
0.443839
0.44381
0.443848
0.443733
0.443793
0.44382
0.443667
0.443733
0.443793
0.443703
0.443694
0.443693
0.44362
0.443696
0.443871
0.443843
0.443841
0.443767
0.443902
0.444266
0.444288
0.444278
0.444257
0.444226
0.444088
0.444065
0.444181
0.444191
0.444254
0.44427
0.44426
0.444249
0.444082
0.444116
0.444248
0.444203
0.444199
0.444193
0.444108
0.444082
0.444244
0.444291
0.444247
0.444067
0.38164
0.393842
0.406562
0.419225
0.430247
0.43806
0.442714
0.444695
0.445046
0.444995
0.444996
0.444995
0.444922
0.445012
0.445182
0.445156
0.445156
0.445028
0.445065
0.445274
0.445268
0.445273
0.44526
0.445413
0.445628
0.445467
0.44545
0.445731
0.445859
0.445843
0.445839
0.445793
0.445749
0.445671
0.445564
0.445442
0.445332
0.445222
0.44512
0.445048
0.444922
0.444788
0.44468
0.44461
0.44449
0.444337
0.444162
0.444052
0.444009
0.443931
0.44375
0.443571
0.443695
0.443859
0.443775
0.443838
0.443867
0.443831
0.443779
0.443616
0.443616
0.443887
0.443908
0.443792
0.44374
0.443904
0.444094
0.444116
0.444084
0.443999
0.443994
0.443949
0.443798
0.44381
0.443965
0.443965
0.443932
0.443912
0.444042
0.44415
0.444112
0.443966
0.444004
0.444061
0.443964
0.444108
0.444277
0.444275
0.444272
0.44403
0.38168
0.393789
0.406552
0.419315
0.430147
0.438027
0.442809
0.444688
0.444936
0.444968
0.445155
0.445172
0.445078
0.445191
0.445405
0.445273
0.445358
0.445576
0.445432
0.445511
0.445704
0.445636
0.445583
0.445668
0.445762
0.445853
0.445972
0.445816
0.445871
0.44594
0.445923
0.445918
0.44587
0.44585
0.445772
0.445622
0.445386
0.445213
0.445055
0.444916
0.44481
0.444715
0.444648
0.444598
0.444558
0.444522
0.444458
0.444332
0.444076
0.443785
0.44372
0.443701
0.443704
0.443645
0.443702
0.443881
0.443859
0.443827
0.443656
0.443655
0.443754
0.443752
0.443787
0.443798
0.443712
0.443788
0.444013
0.443958
0.443953
0.443927
0.443965
0.443973
0.443944
0.443868
0.443978
0.444201
0.444184
0.444152
0.444084
0.444176
0.44422
0.444202
0.444197
0.444032
0.444061
0.444168
0.444113
0.444119
0.444102
0.443948
0.381659
0.393846
0.406468
0.419387
0.430172
0.437917
0.44273
0.44499
0.445426
0.445393
0.445393
0.44539
0.44535
0.445266
0.445355
0.445435
0.445342
0.445429
0.445596
0.445463
0.445542
0.445776
0.445702
0.445663
0.445738
0.445756
0.445869
0.445951
0.445799
0.445838
0.445869
0.445808
0.445823
0.445807
0.445761
0.445676
0.445547
0.44536
0.445198
0.445073
0.444968
0.444894
0.444805
0.444748
0.444678
0.444521
0.444449
0.444301
0.444206
0.444169
0.444136
0.444059
0.443794
0.443791
0.444192
0.444551
0.444603
0.444497
0.44458
0.444629
0.444586
0.444438
0.44442
0.444508
0.444399
0.444462
0.444544
0.444487
0.444521
0.44458
0.444556
0.4445
0.444312
0.444321
0.444359
0.444261
0.444252
0.444251
0.444175
0.444216
0.444399
0.444406
0.444373
0.444243
0.444197
0.444297
0.44437
0.444355
0.44434
0.444128
0.381666
0.393826
0.406495
0.419375
0.430129
0.437991
0.442796
0.44473
0.445405
0.445432
0.44527
0.445202
0.445308
0.44541
0.445379
0.445265
0.445313
0.445486
0.445462
0.445464
0.44538
0.445445
0.445686
0.445635
0.445645
0.445927
0.446068
0.446014
0.446009
0.446016
0.446031
0.445986
0.445943
0.445861
0.445782
0.445623
0.445457
0.445326
0.445187
0.444881
0.444647
0.444431
0.44434
0.444257
0.444216
0.444182
0.444119
0.443963
0.443874
0.443945
0.444017
0.443973
0.443789
0.443761
0.44404
0.444125
0.444076
0.444253
0.444482
0.444444
0.444494
0.444553
0.444526
0.444466
0.444323
0.444258
0.444346
0.444438
0.444398
0.444397
0.444387
0.444318
0.444288
0.444184
0.444272
0.444446
0.44429
0.444362
0.444436
0.444393
0.44439
0.4444
0.444401
0.444325
0.444287
0.444063
0.444045
0.444179
0.444184
0.444068
0.381689
0.393769
0.406577
0.419295
0.43014
0.43808
0.442697
0.444796
0.445169
0.445034
0.445096
0.445221
0.445185
0.445187
0.445129
0.445222
0.445244
0.445354
0.445461
0.445369
0.44535
0.445544
0.44578
0.445708
0.445775
0.445848
0.445833
0.445815
0.4456
0.445608
0.44563
0.445558
0.445546
0.445495
0.445457
0.445418
0.445416
0.445413
0.445367
0.445231
0.445018
0.444846
0.444717
0.444611
0.444549
0.444492
0.444375
0.444097
0.4438
0.443766
0.443849
0.44384
0.443701
0.443683
0.444071
0.444305
0.444291
0.444223
0.444264
0.444521
0.444589
0.44456
0.444364
0.444359
0.444448
0.444389
0.444388
0.444508
0.444534
0.444489
0.444388
0.444327
0.444371
0.444368
0.444436
0.444501
0.444488
0.444476
0.444323
0.444277
0.444371
0.444349
0.444445
0.444527
0.444527
0.444528
0.444475
0.444468
0.444392
0.444117
0.381669
0.393844
0.40649
0.419253
0.430285
0.438143
0.442647
0.44433
0.444529
0.444425
0.444465
0.44466
0.444635
0.444743
0.444803
0.444793
0.444777
0.444859
0.445037
0.444949
0.44494
0.445193
0.445625
0.44562
0.445552
0.44561
0.445714
0.445526
0.445478
0.445527
0.445596
0.445558
0.445466
0.445477
0.445463
0.445417
0.445318
0.445283
0.445193
0.445001
0.444778
0.444647
0.444554
0.44436
0.44426
0.444175
0.443912
0.443879
0.443958
0.443952
0.443874
0.443889
0.443977
0.443968
0.443932
0.443981
0.444051
0.44405
0.444048
0.443887
0.443806
0.443948
0.444069
0.444029
0.443914
0.443856
0.443963
0.443952
0.444078
0.444227
0.444245
0.444212
0.444091
0.444028
0.444055
0.444029
0.444106
0.44427
0.444208
0.444163
0.444264
0.444438
0.444416
0.444385
0.444325
0.444252
0.444326
0.44439
0.44434
0.444158
0.381646
0.393888
0.406525
0.419156
0.430373
0.438067
0.442571
0.444539
0.444857
0.444742
0.444834
0.444911
0.444905
0.444906
0.444736
0.444818
0.445007
0.44514
0.445182
0.445098
0.445101
0.445076
0.445253
0.445762
0.44578
0.445696
0.445692
0.445678
0.44547
0.445447
0.445441
0.445436
0.445433
0.44538
0.445366
0.445315
0.445248
0.445139
0.445043
0.444955
0.444842
0.444751
0.44467
0.444601
0.444559
0.444489
0.444328
0.444259
0.444098
0.444042
0.444015
0.444028
0.444031
0.443974
0.443969
0.443944
0.443899
0.443747
0.443858
0.444215
0.444215
0.444203
0.444048
0.44404
0.444156
0.444207
0.444178
0.444115
0.444107
0.444077
0.444001
0.444022
0.444261
0.444307
0.444273
0.444213
0.444131
0.44424
0.44431
0.444223
0.444227
0.444222
0.444076
0.444092
0.44419
0.444182
0.444179
0.444156
0.444145
0.44393
0.381639
0.393889
0.406535
0.419153
0.430366
0.438058
0.442615
0.444501
0.444757
0.444652
0.444712
0.444816
0.444807
0.444806
0.444652
0.444748
0.445187
0.445246
0.445211
0.445089
0.445156
0.445389
0.445387
0.445347
0.445392
0.445562
0.445482
0.445582
0.445626
0.445603
0.445596
0.445528
0.445498
0.445423
0.445271
0.445128
0.445015
0.444914
0.444838
0.444757
0.444702
0.444663
0.444624
0.444588
0.444524
0.444415
0.44429
0.444239
0.444163
0.443999
0.443795
0.443754
0.443657
0.443635
0.443972
0.44428
0.444214
0.444295
0.44434
0.444297
0.444153
0.444132
0.444215
0.444153
0.444244
0.44431
0.44429
0.444279
0.444133
0.444218
0.444321
0.444201
0.44425
0.444267
0.444217
0.444226
0.444218
0.444105
0.444165
0.44425
0.444209
0.444203
0.444072
0.444148
0.44421
0.44418
0.444145
0.444035
0.443998
0.443888
0.381664
0.393832
0.406491
0.419368
0.43016
0.437943
0.442747
0.444911
0.445295
0.445248
0.445244
0.445242
0.445147
0.445168
0.445375
0.445439
0.445415
0.445347
0.445343
0.445316
0.445446
0.445558
0.445401
0.445432
0.445628
0.445526
0.445595
0.445733
0.445552
0.445612
0.445642
0.445609
0.4456
0.445518
0.445482
0.445366
0.445287
0.445152
0.445046
0.44496
0.44488
0.444822
0.44475
0.444675
0.444542
0.444261
0.444119
0.444056
0.443883
0.443904
0.444112
0.444028
0.444122
0.444195
0.444191
0.444191
0.444131
0.444029
0.444066
0.444118
0.444113
0.444097
0.444129
0.444176
0.444163
0.444161
0.444022
0.444081
0.444131
0.444099
0.444075
0.444154
0.444424
0.444454
0.444389
0.444396
0.444396
0.44435
0.44434
0.444289
0.444295
0.444252
0.444099
0.444047
0.444216
0.44432
0.444257
0.444263
0.444251
0.44404
0.381654
0.39385
0.406479
0.419402
0.430134
0.43792
0.442717
0.444878
0.44542
0.445423
0.44539
0.44534
0.445334
0.445257
0.445262
0.445358
0.445361
0.445284
0.445352
0.445633
0.445609
0.445737
0.445829
0.44564
0.445632
0.445714
0.44564
0.445719
0.445742
0.445717
0.445715
0.445681
0.445672
0.445631
0.445604
0.44555
0.445448
0.445348
0.44527
0.445115
0.444994
0.444924
0.444855
0.444709
0.444598
0.444537
0.444454
0.44441
0.444334
0.444251
0.44405
0.44393
0.444062
0.444165
0.444127
0.44399
0.443975
0.444105
0.44406
0.444151
0.444197
0.444107
0.444099
0.444099
0.444061
0.444019
0.444073
0.444067
0.444164
0.444473
0.444522
0.444497
0.444453
0.444318
0.444375
0.444501
0.444368
0.444443
0.44449
0.444382
0.444431
0.44445
0.444428
0.444457
0.444419
0.444316
0.444252
0.444214
0.444154
0.443962
0.381629
0.393853
0.406567
0.419266
0.430147
0.438117
0.442717
0.444588
0.444949
0.444945
0.444911
0.444724
0.444742
0.444798
0.444676
0.444628
0.444827
0.445045
0.445028
0.444991
0.444968
0.44517
0.445474
0.445456
0.445316
0.445376
0.44547
0.445469
0.445462
0.44521
0.445203
0.445219
0.445193
0.445192
0.445125
0.445065
0.44497
0.444813
0.444745
0.444725
0.444689
0.444651
0.444634
0.444586
0.444478
0.44432
0.44423
0.444152
0.443998
0.443755
0.443778
0.444017
0.44406
0.443995
0.444004
0.444003
0.443949
0.443853
0.443959
0.444122
0.444227
0.444299
0.444182
0.444208
0.444214
0.444182
0.44413
0.444114
0.444056
0.444118
0.44415
0.444138
0.444103
0.444122
0.44416
0.444018
0.444073
0.44423
0.444215
0.444221
0.444169
0.444166
0.444071
0.444163
0.44427
0.444252
0.444236
0.444187
0.444145
0.443984
0.381669
0.393816
0.40652
0.419325
0.430189
0.437955
0.442695
0.444906
0.445391
0.445383
0.445322
0.44526
0.445277
0.445267
0.445281
0.445285
0.445267
0.445197
0.445275
0.445454
0.445438
0.445411
0.445341
0.445398
0.44566
0.445622
0.445686
0.445751
0.445744
0.44574
0.445659
0.445597
0.445539
0.445437
0.44538
0.445316
0.445254
0.445211
0.445164
0.44511
0.445048
0.444957
0.444878
0.444721
0.444555
0.444473
0.444373
0.444316
0.44422
0.443981
0.443834
0.443963
0.44408
0.444072
0.444071
0.44394
0.443989
0.444076
0.443975
0.443994
0.443958
0.443931
0.443847
0.443923
0.444051
0.443868
0.443902
0.444036
0.444041
0.444051
0.443996
0.444141
0.444187
0.444297
0.444365
0.444226
0.444278
0.44435
0.444349
0.444347
0.444228
0.444129
0.444104
0.444094
0.444114
0.444116
0.444067
0.444024
0.444006
0.4439
0.381664
0.393847
0.406466
0.419263
0.430303
0.438185
0.442618
0.444133
0.444251
0.444247
0.444516
0.444788
0.444788
0.444742
0.444563
0.44457
0.444875
0.444946
0.444858
0.444937
0.445191
0.445155
0.445136
0.445277
0.445421
0.445469
0.445707
0.44576
0.445729
0.44571
0.445678
0.445681
0.445681
0.44563
0.445545
0.445403
0.445293
0.445219
0.445091
0.444984
0.444911
0.444862
0.444778
0.444724
0.444678
0.444586
0.444359
0.444217
0.444172
0.444056
0.444133
0.444206
0.444202
0.444199
0.444073
0.443963
0.443976
0.443992
0.443959