/*--------------------------------*- C++ -*----------------------------------*\
  =========                 |
  \\      /  F ield         | OpenFOAM: The Open Source CFD Toolbox
   \\    /   O peration     | Website:  https://openfoam.org
    \\  /    A nd           | Version:  11
     \\/     M anipulation  |
\*---------------------------------------------------------------------------*/
FoamFile
{
    format      ascii;
    class       volScalarField;
    location    "0.092";
    object      nut;
}
// * * * * * * * * * * * * * * * * * * * * * * * * * * * * * * * * * * * * * //

dimensions      [0 2 -1 0 0 0 0];

internalField   nonuniform List<scalar> 
287084
(
0.000836712
0.000864311
0.000893655
0.000923656
0.00094994
0.000969149
0.000980144
0.000984317
0.000985275
0.00098568
0.000985896
0.00098568
0.000985668
0.00098597
0.0009859
0.000986059
0.000986215
0.000985985
0.000986023
0.000986003
0.000985853
0.00098564
0.000985447
0.000985885
0.000986193
0.000986196
0.000986217
0.000986059
0.000985915
0.000986004
0.000986379
0.000986471
0.000986364
0.0009867
0.000987044
0.000987162
0.000987371
0.00098763
0.000987874
0.000988013
0.000988091
0.000988181
0.000988136
0.000988192
0.000988167
0.000988187
0.000988228
0.000988199
0.000988201
0.000988101
0.000987746
0.000987543
0.000987827
0.000988031
0.00098799
0.000987908
0.000987946
0.00098794
0.000987833
0.000987487
0.000987531
0.000987738
0.000987655
0.000987458
0.000987349
0.000987918
0.000988148
0.000988022
0.000987723
0.000987566
0.000987787
0.000987898
0.000987756
0.000987341
0.000987276
0.000987547
0.000987395
0.000987586
0.000987863
0.000987831
0.000987804
0.000987628
0.000987386
0.000987529
0.000987906
0.000987729
0.00098783
0.000987853
0.000987707
0.000987116
0.00118264
0.00122055
0.00126001
0.00129999
0.00133493
0.00136043
0.00137502
0.00137991
0.00138038
0.00138082
0.00138181
0.00138146
0.00138165
0.00138214
0.00138206
0.00138198
0.00138175
0.00138134
0.00138107
0.00138091
0.00138069
0.00138025
0.00138034
0.00138131
0.00138119
0.00138157
0.00138188
0.00138174
0.00138188
0.00138209
0.00138223
0.00138207
0.00138214
0.00138221
0.00138184
0.00138224
0.00138272
0.00138299
0.00138328
0.00138289
0.00138326
0.00138373
0.00138397
0.00138421
0.00138428
0.0013844
0.00138404
0.00138391
0.00138438
0.00138483
0.00138486
0.00138492
0.0013848
0.00138481
0.00138485
0.00138475
0.00138461
0.00138442
0.00138428
0.00138415
0.00138395
0.0013834
0.00138357
0.0013843
0.00138429
0.0013841
0.00138353
0.00138367
0.00138415
0.00138396
0.00138392
0.00138362
0.00138383
0.00138424
0.00138442
0.00138432
0.00138404
0.00138406
0.00138392
0.0013834
0.00138344
0.00138368
0.00138364
0.0013836
0.00138328
0.00138326
0.00138312
0.00138322
0.00138324
0.00138276
0.00118268
0.00122075
0.00126009
0.00130032
0.00133515
0.00136019
0.00137507
0.00138086
0.0013818
0.00138192
0.00138196
0.00138149
0.00138157
0.00138177
0.00138162
0.00138149
0.00138085
0.0013809
0.00138177
0.00138169
0.00138152
0.00138141
0.00138086
0.00138102
0.0013816
0.00138151
0.00138159
0.00138167
0.0013818
0.00138174
0.00138194
0.00138201
0.00138219
0.00138241
0.0013827
0.00138297
0.00138328
0.00138361
0.00138387
0.00138406
0.00138408
0.00138368
0.00138344
0.00138377
0.00138415
0.00138428
0.0013844
0.00138402
0.00138417
0.00138463
0.00138469
0.00138468
0.00138473
0.00138478
0.0013846
0.00138459
0.0013846
0.00138454
0.00138451
0.00138427
0.0013835
0.00138345
0.00138392
0.00138404
0.0013839
0.00138333
0.00138354
0.00138431
0.00138398
0.00138422
0.00138435
0.00138425
0.00138419
0.00138418
0.00138417
0.00138404
0.00138397
0.00138326
0.00138315
0.00138326
0.00138327
0.00138324
0.00138299
0.00138309
0.00138293
0.00138324
0.00138378
0.00138377
0.00138373
0.00138295
0.00118268
0.00122078
0.00126043
0.00130059
0.00133532
0.00136043
0.00137539
0.00138148
0.00138241
0.0013823
0.00138213
0.00138235
0.00138255
0.00138241
0.00138229
0.00138193
0.00138173
0.00138107
0.00138106
0.00138144
0.00138107
0.00138102
0.00138091
0.00138045
0.00138048
0.00138099
0.00138105
0.00138105
0.00138102
0.00138081
0.00138127
0.00138205
0.0013819
0.00138243
0.00138292
0.00138314
0.00138346
0.00138381
0.00138414
0.00138428
0.00138453
0.0013847
0.00138499
0.00138513
0.00138509
0.00138463
0.00138444
0.00138442
0.0013845
0.00138447
0.00138401
0.00138417
0.00138446
0.00138438
0.00138433
0.00138439
0.00138446
0.00138431
0.00138398
0.00138382
0.00138428
0.0013844
0.00138431
0.00138427
0.00138414
0.00138389
0.00138386
0.0013838
0.00138345
0.00138362
0.00138424
0.00138394
0.00138409
0.00138414
0.00138401
0.00138384
0.00138353
0.0013836
0.00138356
0.0013839
0.00138429
0.00138418
0.00138401
0.00138372
0.00138381
0.00138402
0.00138393
0.00138398
0.00138384
0.00138301
0.00118269
0.00122085
0.00126068
0.00130052
0.00133543
0.00136106
0.00137499
0.00138129
0.00138255
0.00138258
0.00138249
0.0013818
0.00138185
0.00138203
0.00138161
0.00138153
0.00138126
0.00138065
0.0013805
0.00138088
0.0013809
0.00138066
0.00138007
0.00138018
0.00138081
0.00138066
0.00138077
0.00138086
0.00138071
0.00138106
0.00138163
0.00138139
0.00138187
0.00138236
0.00138267
0.00138301
0.00138316
0.00138293
0.00138325
0.00138382
0.00138382
0.00138435
0.0013847
0.0013847
0.00138497
0.00138519
0.00138521
0.00138539
0.00138553
0.00138554
0.00138562
0.00138549
0.00138543
0.00138521
0.00138504
0.00138492
0.00138466
0.00138403
0.00138352
0.00138375
0.00138403
0.00138395
0.00138396
0.00138383
0.00138367
0.00138346
0.00138289
0.00138284
0.00138353
0.00138369
0.00138352
0.00138304
0.00138309
0.0013839
0.00138373
0.00138404
0.00138441
0.00138387
0.001384
0.00138427
0.00138383
0.00138405
0.00138418
0.00138409
0.00138403
0.00138339
0.00138349
0.00138369
0.00138354
0.00138303
0.0011827
0.00122091
0.00126053
0.00130059
0.00133594
0.00136106
0.00137488
0.00138011
0.00138231
0.00138232
0.00138187
0.00138196
0.00138199
0.00138181
0.00138164
0.0013811
0.00138067
0.00138079
0.00138122
0.00138109
0.00138091
0.00138079
0.00138056
0.00138006
0.0013802
0.00138042
0.00138011
0.00138012
0.0013809
0.00138147
0.0013813
0.00138181
0.00138226
0.00138254
0.00138288
0.00138308
0.00138332
0.00138306
0.00138308
0.00138329
0.00138325
0.00138377
0.00138429
0.00138439
0.00138461
0.00138483
0.00138496
0.00138471
0.00138432
0.00138433
0.0013846
0.00138473
0.00138477
0.00138443
0.00138438
0.00138475
0.00138486
0.00138477
0.00138467
0.00138456
0.00138441
0.00138405
0.00138414
0.0013842
0.00138403
0.00138371
0.0013835
0.00138382
0.00138373
0.00138405
0.00138461
0.00138454
0.00138441
0.00138428
0.0013841
0.00138354
0.0013834
0.00138364
0.00138347
0.00138378
0.00138403
0.00138398
0.00138395
0.00138357
0.00138356
0.00138331
0.00138356
0.00138386
0.00138372
0.00138321
0.00118268
0.00122089
0.00126065
0.00130055
0.00133624
0.00136079
0.00137501
0.00138109
0.00138214
0.0013822
0.001382
0.00138171
0.00138122
0.00138128
0.00138161
0.00138111
0.00138131
0.00138243
0.00138229
0.00138192
0.00138201
0.00138214
0.00138201
0.00138194
0.00138168
0.00138165
0.00138131
0.00138153
0.00138177
0.00138185
0.00138213
0.00138234
0.00138258
0.00138264
0.00138261
0.00138299
0.00138339
0.00138364
0.0013838
0.00138371
0.00138411
0.00138451
0.0013847
0.00138485
0.0013849
0.00138486
0.00138502
0.00138522
0.00138528
0.00138538
0.00138528
0.00138494
0.00138448
0.00138444
0.00138462
0.00138455
0.00138456
0.00138441
0.00138384
0.0013839
0.00138432
0.00138424
0.00138421
0.0013842
0.00138413
0.00138347
0.0013834
0.00138385
0.00138401
0.00138384
0.0013833
0.0013834
0.00138373
0.00138362
0.00138349
0.00138336
0.00138356
0.00138343
0.00138357
0.00138358
0.00138348
0.00138324
0.00138346
0.00138394
0.00138398
0.00138385
0.00138323
0.00138336
0.00138363
0.00138299
0.00118276
0.00122075
0.00126074
0.00130102
0.00133546
0.00136054
0.00137555
0.00138265
0.00138424
0.00138416
0.00138369
0.00138347
0.00138354
0.00138331
0.00138311
0.00138266
0.00138276
0.0013828
0.00138254
0.00138232
0.00138179
0.00138159
0.00138122
0.00138139
0.00138179
0.00138146
0.00138179
0.00138206
0.00138207
0.0013823
0.00138242
0.00138277
0.00138312
0.00138345
0.00138387
0.00138429
0.00138459
0.0013848
0.00138439
0.00138435
0.0013845
0.00138487
0.00138521
0.00138542
0.00138563
0.00138555
0.00138569
0.00138573
0.00138566
0.0013856
0.00138556
0.00138546
0.00138493
0.00138505
0.00138539
0.00138529
0.0013851
0.00138482
0.0013848
0.00138461
0.00138487
0.00138518
0.00138486
0.00138498
0.00138514
0.00138504
0.00138497
0.00138463
0.00138444
0.00138398
0.00138354
0.00138393
0.00138447
0.00138436
0.00138422
0.00138375
0.0013836
0.00138412
0.00138444
0.00138422
0.0013842
0.00138416
0.00138392
0.00138358
0.0013837
0.00138398
0.00138376
0.00138376
0.00138372
0.00138307
0.00118271
0.00122091
0.00126056
0.00130092
0.00133587
0.0013609
0.00137541
0.00138137
0.00138225
0.00138222
0.00138208
0.00138129
0.00138127
0.00138206
0.00138165
0.00138175
0.00138191
0.00138115
0.00138091
0.00138129
0.00138111
0.00138137
0.00138173
0.00138115
0.00138102
0.00138125
0.00138111
0.00138152
0.00138211
0.00138191
0.00138246
0.00138299
0.00138335
0.00138376
0.00138401
0.00138442
0.00138463
0.00138501
0.00138525
0.00138526
0.00138504
0.00138506
0.00138511
0.00138463
0.00138476
0.00138523
0.00138495
0.00138521
0.00138574
0.00138566
0.00138576
0.00138578
0.00138571
0.00138572
0.00138573
0.00138554
0.00138521
0.00138454
0.00138447
0.00138465
0.0013845
0.00138396
0.0013839
0.00138428
0.00138403
0.00138415
0.00138418
0.00138405
0.00138399
0.00138359
0.00138398
0.00138457
0.00138427
0.0013842
0.00138419
0.00138413
0.00138389
0.00138364
0.00138372
0.00138367
0.00138403
0.0013847
0.00138465
0.00138465
0.00138459
0.00138447
0.00138431
0.00138418
0.00138395
0.00138314
0.00118289
0.00122066
0.00126056
0.00130102
0.00133589
0.00136097
0.00137543
0.00138075
0.00138136
0.00138101
0.00138114
0.00138209
0.00138197
0.00138161
0.00138091
0.00138062
0.00138089
0.00138132
0.00138104
0.00138077
0.00138057
0.00138022
0.00138006
0.00137957
0.00137981
0.00138026
0.00138017
0.0013803
0.00138032
0.00138064
0.00138094
0.00138162
0.00138213
0.00138251
0.001383
0.00138341
0.00138385
0.0013841
0.00138451
0.00138473
0.0013844
0.0013848
0.00138519
0.00138543
0.00138566
0.00138573
0.00138583
0.00138562
0.00138555
0.00138541
0.00138501
0.00138458
0.00138425
0.00138415
0.0013841
0.00138368
0.00138378
0.00138386
0.0013835
0.00138324
0.00138366
0.00138442
0.0013841
0.00138424
0.00138428
0.00138417
0.00138408
0.00138343
0.00138336
0.0013838
0.00138376
0.00138372
0.00138367
0.00138354
0.00138352
0.00138337
0.00138311
0.00138286
0.00138334
0.00138403
0.00138399
0.00138392
0.0013833
0.0013833
0.00138381
0.00138361
0.00138389
0.00138407
0.0013839
0.0013833
0.00118276
0.00122085
0.00126066
0.00130084
0.00133579
0.00136109
0.00137568
0.00138086
0.00138122
0.00138135
0.00138189
0.00138163
0.0013813
0.00138076
0.00138072
0.00138065
0.00138008
0.0013801
0.00138064
0.00138036
0.00138084
0.0013812
0.00138108
0.00138098
0.00138067
0.0013806
0.00138021
0.00138019
0.00138085
0.00138126
0.00138152
0.00138181
0.001382
0.00138238
0.00138257
0.00138335
0.00138407
0.00138404
0.00138467
0.00138534
0.00138574
0.00138611
0.00138622
0.00138646
0.00138653
0.00138642
0.00138572
0.00138483
0.00138489
0.00138504
0.00138455
0.0013847
0.00138503
0.00138482
0.00138484
0.00138478
0.00138466
0.00138451
0.00138442
0.00138391
0.00138399
0.00138436
0.00138432
0.00138425
0.00138372
0.0013839
0.00138415
0.00138407
0.00138399
0.0013834
0.00138351
0.00138368
0.00138312
0.00138309
0.00138378
0.001384
0.00138393
0.00138387
0.0013833
0.00138328
0.00138356
0.00138314
0.0013831
0.00138386
0.00138419
0.00138398
0.00138406
0.00138407
0.00138393
0.00138324
0.00118267
0.00122093
0.00126065
0.00130082
0.00133596
0.00136086
0.00137541
0.00138177
0.00138289
0.0013829
0.00138262
0.00138221
0.00138173
0.00138186
0.00138228
0.00138161
0.00138158
0.00138153
0.00138113
0.00138091
0.00138049
0.00138081
0.00138101
0.00138085
0.0013808
0.00138045
0.00138085
0.00138131
0.00138138
0.00138178
0.00138235
0.00138275
0.00138318
0.00138372
0.00138419
0.00138455
0.00138492
0.00138537
0.00138588
0.00138626
0.0013865
0.00138652
0.00138657
0.00138629
0.00138585
0.00138552
0.00138549
0.00138549
0.00138546
0.00138536
0.0013851
0.00138456
0.00138467
0.00138501
0.00138529
0.00138525
0.00138469
0.00138481
0.00138506
0.0013848
0.00138473
0.00138468
0.00138455
0.00138378
0.00138361
0.0013843
0.00138448
0.00138435
0.00138428
0.00138384
0.00138403
0.00138438
0.00138429
0.00138421
0.0013837
0.00138386
0.00138406
0.00138396
0.0013839
0.0013834
0.00138356
0.00138391
0.00138379
0.00138344
0.00138343
0.00138382
0.00138379
0.00138378
0.00138373
0.00138316
0.0011828
0.00122068
0.00126087
0.00130101
0.00133546
0.00136064
0.00137598
0.00138205
0.00138273
0.00138254
0.00138281
0.00138298
0.00138276
0.00138239
0.00138212
0.00138155
0.00138138
0.0013822
0.001382
0.00138159
0.00138088
0.0013808
0.00138101
0.00138039
0.00138044
0.00138101
0.00138075
0.00138116
0.0013818
0.00138164
0.00138226
0.00138292
0.00138343
0.00138403
0.00138451
0.00138495
0.00138518
0.00138552
0.0013859
0.00138622
0.00138628
0.00138642
0.00138659
0.00138674
0.00138679
0.00138658
0.00138644
0.0013858
0.00138565
0.0013859
0.00138605
0.00138596
0.00138585
0.00138568
0.00138552
0.00138544
0.00138533
0.00138526
0.00138508
0.00138486
0.0013845
0.00138439
0.00138413
0.00138436
0.00138474
0.00138457
0.00138449
0.00138446
0.00138439
0.00138401
0.00138365
0.0013839
0.00138436
0.00138423
0.00138408
0.00138351
0.00138348
0.00138418
0.00138426
0.00138415
0.00138406
0.00138369
0.00138377
0.00138405
0.00138392
0.0013839
0.00138389
0.00138392
0.00138374
0.00138307
0.00118274
0.00122092
0.00126053
0.00130071
0.00133633
0.00136089
0.00137523
0.00138065
0.00138106
0.001381
0.00138098
0.00138041
0.00138031
0.00138052
0.00138023
0.00137998
0.00137948
0.0013795
0.00138002
0.00138007
0.00137966
0.00137943
0.00137902
0.00137897
0.00138003
0.00138055
0.00138001
0.00138019
0.00138079
0.0013809
0.00138159
0.00138237
0.00138269
0.00138332
0.00138403
0.00138471
0.0013852
0.00138532
0.00138544
0.0013857
0.00138567
0.00138563
0.00138584
0.00138585
0.00138611
0.0013863
0.0013863
0.00138601
0.00138616
0.00138653
0.00138656
0.00138641
0.00138624
0.00138608
0.00138586
0.00138546
0.00138519
0.00138495
0.00138443
0.0013846
0.00138485
0.00138473
0.00138462
0.00138405
0.00138405
0.00138421
0.00138404
0.00138399
0.00138387
0.00138335
0.00138327
0.00138409
0.00138436
0.00138428
0.00138429
0.00138416
0.00138402
0.00138385
0.00138376
0.00138361
0.00138319
0.00138345
0.0013844
0.0013843
0.0013843
0.00138428
0.00138412
0.00138407
0.00138392
0.00138336
0.00118276
0.00122079
0.00126072
0.00130112
0.0013355
0.00136043
0.00137594
0.00138233
0.0013832
0.00138331
0.00138331
0.00138289
0.00138249
0.00138212
0.00138172
0.00138171
0.00138155
0.00138097
0.00138083
0.00138058
0.00137994
0.00137968
0.00138026
0.00138041
0.00138004
0.00138045
0.00138104
0.00138068
0.0013812
0.00138181
0.00138173
0.0013825
0.00138324
0.00138355
0.00138416
0.00138493
0.00138571
0.00138629
0.00138683
0.00138712
0.0013873
0.00138737
0.00138693
0.00138651
0.00138617
0.00138608
0.00138607
0.00138591
0.00138564
0.00138556
0.00138555
0.00138546
0.00138535
0.00138493
0.00138475
0.00138459
0.00138481
0.00138538
0.00138526
0.00138515
0.00138485
0.00138437
0.0013845
0.00138488
0.00138472
0.00138439
0.00138446
0.0013849
0.00138484
0.00138472
0.00138401
0.00138399
0.00138425
0.00138427
0.00138411
0.00138343
0.00138352
0.00138427
0.00138431
0.00138418
0.0013841
0.00138393
0.00138334
0.00138348
0.00138399
0.00138403
0.0013839
0.00138374
0.00138367
0.0013829
0.00118266
0.00122102
0.00126078
0.00130053
0.0013361
0.00136074
0.00137528
0.00138158
0.00138269
0.0013825
0.00138212
0.00138166
0.00138143
0.00138111
0.00138055
0.00138012
0.00138037
0.00138046
0.00138003
0.00137945
0.00137924
0.00137914
0.0013786
0.00137882
0.00137935
0.00137886
0.00137907
0.00138002
0.00138052
0.00138088
0.00138144
0.00138193
0.00138205
0.00138267
0.0013833
0.00138373
0.00138441
0.00138506
0.00138558
0.00138606
0.00138656
0.00138687
0.00138713
0.00138738
0.00138764
0.00138773
0.0013877
0.00138737
0.00138721
0.00138682
0.00138582
0.0013854
0.00138554
0.00138552
0.00138529
0.00138478
0.00138475
0.00138481
0.00138468
0.00138579
0.00138632
0.00138618
0.00138606
0.00138577
0.00138549
0.00138482
0.00138478
0.00138516
0.00138483
0.00138502
0.00138511
0.00138483
0.00138485
0.00138496
0.00138484
0.00138458
0.00138393
0.00138366
0.00138382
0.00138396
0.0013838
0.00138333
0.00138366
0.00138416
0.00138405
0.00138384
0.00138364
0.00138356
0.00138354
0.00138319
0.00118272
0.00122085
0.00126069
0.00130115
0.00133559
0.00136017
0.00137554
0.00138292
0.00138438
0.00138424
0.00138396
0.00138336
0.00138297
0.0013825
0.0013822
0.00138239
0.0013822
0.00138171
0.00138131
0.00138052
0.00138022
0.00138029
0.00138009
0.00137994
0.00137951
0.0013797
0.00138006
0.00138047
0.00138087
0.00138094
0.00138177
0.00138253
0.00138302
0.00138384
0.00138461
0.00138543
0.00138618
0.00138681
0.00138726
0.00138766
0.00138799
0.00138814
0.00138785
0.00138748
0.00138719
0.00138706
0.00138696
0.0013869
0.00138676
0.00138641
0.00138552
0.00138505
0.00138511
0.00138526
0.00138503
0.00138448
0.00138472
0.00138554
0.00138529
0.00138537
0.00138534
0.0013851
0.00138456
0.00138462
0.00138484
0.0013844
0.00138424
0.00138461
0.00138471
0.00138462
0.00138454
0.00138435
0.00138392
0.00138386
0.00138449
0.00138453
0.00138431
0.00138425
0.00138415
0.00138374
0.00138348
0.00138388
0.00138424
0.00138411
0.00138407
0.00138397
0.00138398
0.00138399
0.00138378
0.00138303
0.00118272
0.00122089
0.00126057
0.00130124
0.00133551
0.00136017
0.00137584
0.0013827
0.00138379
0.00138399
0.00138421
0.00138388
0.00138354
0.00138297
0.00138217
0.0013818
0.00138153
0.00138076
0.00138063
0.00138069
0.00137989
0.00137977
0.0013802
0.00137963
0.00137954
0.00138037
0.00138076
0.0013809
0.00138135
0.00138191
0.00138261
0.00138323
0.00138378
0.00138457
0.00138534
0.00138608
0.00138676
0.00138734
0.00138766
0.0013877
0.0013878
0.00138791
0.0013878
0.00138769
0.00138762
0.00138758
0.00138731
0.00138649
0.0013857
0.00138586
0.00138629
0.00138612
0.00138603
0.00138586
0.00138523
0.0013851
0.00138549
0.00138533
0.00138514
0.0013849
0.00138457
0.00138453
0.00138532
0.00138557
0.00138522
0.00138526
0.00138539
0.00138524
0.00138512
0.00138481
0.00138413
0.00138427
0.00138491
0.00138474
0.0013847
0.00138447
0.00138465
0.00138472
0.00138432
0.00138436
0.00138436
0.0013842
0.00138357
0.00138353
0.00138402
0.00138412
0.00138402
0.00138395
0.00138378
0.00138296
0.00118275
0.00122078
0.00126079
0.00130108
0.00133545
0.00136044
0.00137549
0.00138256
0.00138385
0.00138355
0.00138332
0.00138301
0.00138254
0.00138203
0.00138206
0.00138177
0.00138122
0.00138077
0.00137998
0.0013799
0.00138039
0.00138009
0.00137986
0.00137944
0.00137934
0.00137934
0.00137953
0.00137957
0.00138021
0.00138086
0.00138133
0.00138219
0.00138291
0.00138371
0.00138458
0.00138528
0.00138542
0.00138545
0.00138583
0.00138615
0.00138671
0.00138719
0.00138741
0.00138771
0.00138796
0.00138814
0.00138813
0.00138798
0.00138756
0.00138644
0.0013857
0.00138574
0.00138585
0.00138567
0.00138551
0.00138487
0.0013849
0.00138553
0.0013852
0.00138495
0.00138488
0.00138462
0.00138452
0.00138522
0.00138557
0.00138538
0.00138513
0.00138475
0.00138452
0.00138417
0.00138396
0.00138404
0.00138403
0.00138376
0.00138401
0.00138437
0.00138433
0.00138429
0.00138367
0.00138381
0.00138429
0.00138395
0.00138411
0.00138416
0.00138406
0.00138401
0.00138396
0.00138386
0.00138364
0.00138289
0.00118257
0.00122102
0.00126076
0.00130089
0.00133554
0.00136069
0.00137565
0.00138184
0.0013827
0.00138238
0.00138209
0.00138174
0.00138123
0.00138102
0.00138086
0.00138032
0.00137952
0.00137906
0.00137942
0.00137928
0.00137882
0.00137827
0.00137807
0.00137907
0.00137988
0.00137953
0.00138
0.00138053
0.00138072
0.00138136
0.00138209
0.0013828
0.00138361
0.00138454
0.00138536
0.00138617
0.00138679
0.00138737
0.00138778
0.00138817
0.00138828
0.00138837
0.00138842
0.00138824
0.00138814
0.00138766
0.00138721
0.00138677
0.00138656
0.00138632
0.00138587
0.00138511
0.00138534
0.00138661
0.00138654
0.00138634
0.00138653
0.00138727
0.00138712
0.00138698
0.00138666
0.00138651
0.0013863
0.00138582
0.00138544
0.00138548
0.00138559
0.00138545
0.00138542
0.00138521
0.00138461
0.00138474
0.00138509
0.00138498
0.00138493
0.00138469
0.00138461
0.00138454
0.00138454
0.00138437
0.00138389
0.00138394
0.00138402
0.00138349
0.00138362
0.00138368
0.00138352
0.00138349
0.00138332
0.00138272
0.00118273
0.00122091
0.00126065
0.00130077
0.00133579
0.00136118
0.00137535
0.00138006
0.00138044
0.00138051
0.00138125
0.00138094
0.00138066
0.00138027
0.0013795
0.0013792
0.00137937
0.00137882
0.00137836
0.00137786
0.00137784
0.00137922
0.00137913
0.0013793
0.00137984
0.00137962
0.00137984
0.00138032
0.00138079
0.00138136
0.00138206
0.00138277
0.00138368
0.00138457
0.00138542
0.00138611
0.0013863
0.00138656
0.00138696
0.00138737
0.00138772
0.00138801
0.00138823
0.00138838
0.00138833
0.00138788
0.00138745
0.00138715
0.00138641
0.00138599
0.00138591
0.00138559
0.00138574
0.0013858
0.00138561
0.00138544
0.00138497
0.00138459
0.00138449
0.00138437
0.00138379
0.00138381
0.00138405
0.00138394
0.00138382
0.00138316
0.00138328
0.00138362
0.00138352
0.00138351
0.00138323
0.00138361
0.00138459
0.00138465
0.00138447
0.00138437
0.00138436
0.00138436
0.00138416
0.00138363
0.00138355
0.00138387
0.00138391
0.00138393
0.00138385
0.00138378
0.00138361
0.00138341
0.00138323
0.00138263
0.00118281
0.00122066
0.00126089
0.00130095
0.00133541
0.00136058
0.00137573
0.00138225
0.00138337
0.00138317
0.00138279
0.00138207
0.00138163
0.00138187
0.00138176
0.00138094
0.00138072
0.00138046
0.00137987
0.00137942
0.00137875
0.00137885
0.00137947
0.00137966
0.00137967
0.00137953
0.0013797
0.00137968
0.00138043
0.00138118
0.00138188
0.00138277
0.00138359
0.00138452
0.0013852
0.00138598
0.00138651
0.00138704
0.00138751
0.00138798
0.00138828
0.00138852
0.00138864
0.00138868
0.00138873
0.00138868
0.0013884
0.00138776
0.00138679
0.00138635
0.00138613
0.00138585
0.00138524
0.00138501
0.00138603
0.00138652
0.00138609
0.00138588
0.00138601
0.00138591
0.00138611
0.00138627
0.00138557
0.00138544
0.00138599
0.00138597
0.00138562
0.00138573
0.00138571
0.00138548
0.00138537
0.00138508
0.00138479
0.00138463
0.00138428
0.00138443
0.00138507
0.00138454
0.00138447
0.00138484
0.00138484
0.00138512
0.00138521
0.00138505
0.00138512
0.001385
0.00138487
0.00138481
0.0013845
0.00138337
0.00118274
0.00122083
0.00126064
0.0013012
0.00133532
0.00136044
0.00137582
0.00138202
0.00138406
0.00138396
0.00138298
0.0013827
0.00138262
0.00138217
0.00138171
0.00138082
0.00138065
0.00138073
0.00137982
0.00137942
0.0013799
0.00137976
0.00137915
0.00137915
0.00137971
0.00137943
0.00137991
0.00138059
0.00138097
0.00138163
0.00138224
0.00138317
0.00138414
0.00138506
0.00138593
0.00138664
0.00138708
0.00138751
0.00138787
0.00138763
0.00138739
0.00138754
0.00138748
0.00138753
0.00138759
0.00138761
0.00138744
0.00138685
0.00138652
0.00138669
0.0013867
0.00138645
0.00138608
0.00138566
0.00138599
0.00138726
0.00138708
0.00138667
0.0013867
0.00138721
0.00138709
0.00138685
0.00138659
0.00138634
0.00138573
0.00138576
0.00138576
0.00138548
0.00138536
0.00138524
0.0013848
0.00138472
0.00138514
0.00138481
0.00138468
0.00138521
0.00138544
0.00138529
0.00138504
0.00138478
0.0013846
0.00138412
0.00138421
0.00138485
0.00138483
0.00138472
0.00138464
0.00138452
0.00138427
0.00138342
0.00118274
0.00122099
0.00126036
0.00130103
0.00133583
0.00136083
0.00137528
0.00138093
0.00138159
0.00138097
0.00138081
0.00138083
0.00138025
0.00137981
0.00137923
0.00137919
0.00137985
0.00137932
0.00137933
0.00138035
0.00138031
0.00137985
0.0013793
0.00137923
0.00137925
0.00137918
0.00137901
0.00137941
0.0013802
0.00138063
0.00138147
0.00138239
0.00138339
0.00138428
0.00138522
0.00138608
0.00138695
0.00138762
0.00138794
0.00138786
0.00138802
0.0013877
0.00138744
0.00138743
0.00138749
0.00138737
0.0013866
0.0013865
0.00138656
0.00138611
0.00138617
0.0013861
0.00138546
0.00138548
0.00138549
0.00138503
0.00138481
0.00138463
0.00138423
0.00138429
0.00138468
0.00138443
0.00138428
0.00138391
0.0013842
0.00138521
0.00138516
0.00138502
0.00138486
0.00138467
0.00138415
0.001384
0.00138429
0.00138425
0.00138438
0.00138437
0.00138428
0.0013842
0.00138363
0.0013837
0.00138407
0.00138389
0.00138385
0.0013838
0.00138351
0.0013834
0.00138389
0.00138402
0.00138387
0.00138324
0.00118266
0.00122087
0.00126085
0.00130073
0.00133569
0.00136064
0.00137556
0.0013819
0.00138294
0.00138259
0.0013823
0.00138194
0.00138131
0.00138114
0.0013812
0.00138062
0.00138011
0.0013792
0.00137881
0.00137897
0.0013785
0.00137813
0.00137779
0.00137805
0.00137864
0.00137821
0.00137836
0.00137962
0.00138057
0.00138122
0.00138205
0.00138286
0.00138375
0.00138458
0.00138533
0.001386
0.00138666
0.00138724
0.00138775
0.00138825
0.00138847
0.00138855
0.0013886
0.00138868
0.0013885
0.00138814
0.00138764
0.00138729
0.0013871
0.00138675
0.00138606
0.00138534
0.00138557
0.0013859
0.00138546
0.00138546
0.00138537
0.00138507
0.00138473
0.00138405
0.00138389
0.00138458
0.0013845
0.00138399
0.0013837
0.00138409
0.00138456
0.00138452
0.00138432
0.00138396
0.00138386
0.00138364
0.00138309
0.00138306
0.00138348
0.00138342
0.00138326
0.00138315
0.00138351
0.0013838
0.00138365
0.00138315
0.00138324
0.00138339
0.00138306
0.00138348
0.00138399
0.00138397
0.00138395
0.00138313
0.00118278
0.00122071
0.00126082
0.00130101
0.00133537
0.00136054
0.00137585
0.00138188
0.0013826
0.0013825
0.00138279
0.00138249
0.00138179
0.0013817
0.00138189
0.00138099
0.00138074
0.0013809
0.00137995
0.0013797
0.00137986
0.00137926
0.00137879
0.00137884
0.00137905
0.00137941
0.00137998
0.00137988
0.00138061
0.00138152
0.00138231
0.00138325
0.00138413
0.00138514
0.00138598
0.00138656
0.00138683
0.00138721
0.00138755
0.00138784
0.00138812
0.00138832
0.0013885
0.00138864
0.00138872
0.00138872
0.00138857
0.00138816
0.0013873
0.00138629
0.00138596
0.00138575
0.00138559
0.00138523
0.00138523
0.0013856
0.00138534
0.00138506
0.00138435
0.00138417
0.00138432
0.00138416
0.00138412
0.00138401
0.00138361
0.00138373
0.00138431
0.00138403
0.00138391
0.00138374
0.00138377
0.00138371
0.00138355
0.00138324
0.00138352
0.00138415
0.00138405
0.00138389
0.00138364
0.00138388
0.00138398
0.00138389
0.00138384
0.00138329
0.00138336
0.00138367
0.00138348
0.00138348
0.00138342
0.00138287
0.00118272
0.00122089
0.00126056
0.00130123
0.00133545
0.0013602
0.00137561
0.00138282
0.00138414
0.00138384
0.00138354
0.00138318
0.00138265
0.00138195
0.00138176
0.00138151
0.00138071
0.00138047
0.00138049
0.00137959
0.0013794
0.00137973
0.0013792
0.00137888
0.00137903
0.00137915
0.00137971
0.00138035
0.00138042
0.00138124
0.00138216
0.00138292
0.00138399
0.001385
0.00138593
0.00138671
0.00138731
0.00138764
0.00138796
0.00138829
0.00138858
0.00138884
0.00138896
0.00138907
0.00138905
0.00138868
0.00138851
0.00138803
0.00138768
0.00138747
0.00138724
0.00138685
0.00138585
0.00138567
0.00138674
0.00138768
0.00138766
0.00138714
0.00138723
0.00138721
0.00138691
0.00138629
0.00138609
0.00138622
0.00138575
0.00138582
0.00138596
0.00138568
0.00138568
0.00138577
0.00138561
0.00138536
0.00138469
0.00138465
0.00138471
0.00138434
0.00138426
0.00138421
0.00138392
0.00138401
0.00138454
0.00138453
0.00138439
0.00138396
0.00138378
0.00138407
0.00138428
0.00138422
0.00138416
0.00138343
0.00118274
0.00122083
0.00126064
0.0013012
0.00133532
0.00136044
0.00137582
0.00138203
0.00138408
0.00138397
0.00138319
0.00138262
0.00138255
0.00138244
0.00138187
0.00138103
0.00138068
0.00138071
0.00138014
0.00137967
0.00137897
0.00137879
0.00137924
0.00137889
0.00137884
0.00137976
0.00138042
0.00138062
0.00138114
0.00138185
0.00138271
0.00138349
0.00138437
0.00138516
0.00138597
0.00138651
0.00138698
0.00138748
0.00138787
0.00138762
0.0013875
0.00138732
0.00138743
0.00138746
0.00138753
0.00138755
0.00138741
0.00138691
0.00138658
0.00138671
0.00138682
0.00138653
0.00138579
0.00138553
0.00138623
0.00138631
0.00138598
0.00138635
0.00138689
0.00138661
0.0013866
0.00138663
0.0013864
0.00138608
0.0013855
0.00138518
0.00138534
0.00138551
0.00138529
0.0013852
0.00138508
0.00138478
0.00138461
0.00138422
0.00138443
0.00138492
0.00138438
0.00138455
0.00138473
0.00138456
0.00138451
0.0013845
0.00138447
0.00138421
0.00138407
0.00138334
0.00138327
0.00138367
0.00138367
0.00138324
0.00118281
0.00122065
0.0012609
0.00130095
0.00133536
0.00136072
0.00137553
0.00138224
0.00138337
0.00138276
0.00138267
0.00138272
0.00138221
0.00138179
0.00138116
0.00138097
0.00138054
0.0013804
0.00138024
0.00137949
0.001379
0.00137923
0.00137967
0.00137925
0.00137937
0.00137965
0.00137981
0.00138012
0.00137996
0.00138065
0.00138152
0.0013822
0.00138314
0.00138401
0.00138493
0.00138582
0.00138678
0.00138767
0.00138833
0.00138861
0.00138855
0.0013885
0.00138849
0.00138845
0.00138846
0.00138841
0.0013881
0.00138723
0.00138625
0.00138607
0.00138621
0.00138604
0.00138545
0.00138522
0.00138627
0.00138683
0.0013866
0.00138622
0.00138618
0.00138681
0.00138687
0.00138663
0.00138587
0.00138572
0.00138587
0.00138557
0.00138545
0.00138572
0.0013857
0.00138547
0.00138507
0.0013848
0.00138487
0.00138479
0.00138494
0.00138508
0.00138499
0.0013849
0.00138438
0.00138419
0.00138445
0.00138435
0.00138461
0.00138484
0.00138481
0.00138479
0.00138461
0.00138457
0.00138432
0.00138339
0.00118275
0.00122088
0.00126063
0.00130082
0.00133582
0.00136093
0.00137539
0.00138081
0.0013814
0.00138089
0.00138074
0.00138101
0.00138056
0.00138048
0.00138022
0.00137972
0.00137919
0.00137897
0.00137905
0.00137833
0.00137788
0.00137831
0.00137936
0.00137915
0.00137886
0.00137909
0.00137961
0.00137937
0.00137971
0.0013805
0.00138149
0.00138224
0.00138291
0.00138394
0.0013849
0.00138575
0.00138639
0.00138715
0.00138766
0.00138776
0.00138765
0.00138773
0.00138783
0.00138752
0.00138741
0.00138728
0.00138652
0.00138643
0.00138663
0.00138654
0.00138618
0.0013861
0.00138622
0.00138604
0.00138576
0.00138575
0.00138579
0.00138562
0.00138545
0.00138479
0.00138438
0.00138468
0.00138492
0.00138467
0.00138418
0.00138388
0.00138411
0.00138397
0.00138427
0.00138464
0.00138461
0.00138443