/*--------------------------------*- C++ -*----------------------------------*\
  =========                 |
  \\      /  F ield         | OpenFOAM: The Open Source CFD Toolbox
   \\    /   O peration     | Website:  https://openfoam.org
    \\  /    A nd           | Version:  11
     \\/     M anipulation  |
\*---------------------------------------------------------------------------*/
FoamFile
{
    format      ascii;
    class       volScalarField;
    location    "0.092";
    object      omega;
}
// * * * * * * * * * * * * * * * * * * * * * * * * * * * * * * * * * * * * * //

dimensions      [0 0 -1 0 0 0 0];

internalField   nonuniform List<scalar> 
287084
(
55.0174
55.8954
56.804
57.6953
58.4345
58.9376
59.1976
59.2725
59.2765
59.2752
59.2747
59.2667
59.2675
59.2785
59.2763
59.2815
59.2871
59.2835
59.2859
59.2871
59.2849
59.2777
59.2749
59.2921
59.2999
59.2997
59.2996
59.2929
59.2886
59.2912
59.2998
59.2975
59.2879
59.2905
59.2924
59.2872
59.2866
59.2875
59.2879
59.2849
59.2786
59.2751
59.2681
59.2647
59.2593
59.2559
59.2533
59.2492
59.2464
59.2414
59.2277
59.2232
59.2334
59.2382
59.2378
59.2354
59.2361
59.2362
59.2349
59.2247
59.2273
59.2342
59.232
59.2242
59.2237
59.2451
59.2504
59.2475
59.2371
59.2357
59.2446
59.2479
59.2452
59.2332
59.2339
59.2437
59.2383
59.2446
59.2527
59.2515
59.2511
59.2452
59.2394
59.2462
59.2574
59.2534
59.2564
59.2576
59.254
59.2376
55.018
55.8955
56.793
57.6777
58.4188
58.9339
59.2094
59.2863
59.2865
59.2945
59.3139
59.3055
59.3107
59.3222
59.3212
59.3191
59.3179
59.3109
59.3065
59.3055
59.3039
59.2983
59.3037
59.3268
59.3227
59.3298
59.3348
59.3318
59.3329
59.3317
59.3288
59.3196
59.3152
59.3112
59.299
59.302
59.3054
59.3042
59.3035
59.289
59.291
59.295
59.2942
59.2941
59.2903
59.2884
59.2755
59.2713
59.2806
59.2869
59.286
59.2831
59.2809
59.281
59.2813
59.2778
59.2724
59.2685
59.2662
59.264
59.2611
59.2519
59.2583
59.2722
59.2736
59.2713
59.2594
59.2645
59.2752
59.2732
59.2734
59.2671
59.2721
59.2788
59.2827
59.283
59.2769
59.2763
59.2761
59.2665
59.2684
59.2742
59.2725
59.2723
59.2675
59.2686
59.2655
59.2664
59.2666
59.2575
55.0182
55.8955
56.7898
57.6792
58.4163
58.9228
59.208
59.306
59.3164
59.3154
59.3147
59.3058
59.3085
59.314
59.3122
59.3119
59.3016
59.3072
59.327
59.3271
59.3253
59.3248
59.3157
59.3208
59.3336
59.3319
59.3325
59.332
59.3321
59.3244
59.3223
59.3217
59.3222
59.3212
59.3215
59.3205
59.3206
59.3183
59.3146
59.3125
59.3062
59.2899
59.2823
59.2852
59.2886
59.2865
59.2837
59.2742
59.2762
59.2843
59.2814
59.2798
59.2799
59.28
59.2776
59.2776
59.2771
59.2732
59.2709
59.2667
59.2529
59.2547
59.2641
59.2648
59.2649
59.2543
59.2611
59.2786
59.272
59.2773
59.2802
59.2783
59.2778
59.2783
59.2788
59.2763
59.2753
59.2611
59.2613
59.2647
59.2637
59.2608
59.2575
59.2632
59.2594
59.2662
59.2773
59.2767
59.2754
59.2597
55.0174
55.8936
56.7928
57.6777
58.4105
58.9178
59.2054
59.3111
59.3223
59.3174
59.3148
59.3223
59.3277
59.3266
59.3264
59.3207
59.3192
59.3096
59.3134
59.3246
59.3189
59.3206
59.3181
59.3086
59.311
59.3199
59.3201
59.3197
59.3132
59.3057
59.3134
59.3245
59.3157
59.321
59.3242
59.3237
59.3238
59.322
59.3213
59.3169
59.3167
59.3138
59.3125
59.3097
59.3042
59.2892
59.2818
59.2785
59.2776
59.2768
59.2661
59.2684
59.2733
59.2699
59.2687
59.2702
59.2716
59.2686
59.2593
59.2586
59.2709
59.2726
59.2713
59.2712
59.2713
59.2667
59.2674
59.265
59.2582
59.2642
59.278
59.2726
59.2758
59.2771
59.2745
59.2691
59.2656
59.2707
59.2703
59.2776
59.2854
59.283
59.2771
59.2735
59.2768
59.2813
59.2794
59.2783
59.2775
59.2612
55.0171
55.893
56.7952
57.672
58.4099
58.9265
59.1915
59.3045
59.3233
59.322
59.3197
59.3083
59.3126
59.3187
59.3114
59.3111
59.3107
59.3021
59.303
59.3135
59.3155
59.3126
59.3015
59.3065
59.3207
59.3169
59.3189
59.3165
59.31
59.3147
59.3217
59.3116
59.3157
59.3192
59.3186
59.3183
59.3131
59.3012
59.3027
59.3082
59.3011
59.3055
59.3067
59.3029
59.3046
59.3033
59.2997
59.3003
59.3005
59.2983
59.2965
59.292
59.2893
59.2837
59.28
59.2774
59.2719
59.2577
59.25
59.2575
59.2635
59.2621
59.2607
59.2586
59.2558
59.2531
59.2438
59.2456
59.2609
59.2639
59.2613
59.2516
59.2555
59.275
59.2706
59.2779
59.2856
59.2748
59.2783
59.2841
59.276
59.281
59.2836
59.2816
59.2801
59.2677
59.2705
59.2747
59.2717
59.2616
55.0173
55.8938
56.791
57.673
58.418
58.9218
59.1835
59.2749
59.3135
59.3136
59.3069
59.3111
59.3141
59.3132
59.3128
59.3035
59.2991
59.3073
59.3168
59.3188
59.3177
59.3175
59.3138
59.3046
59.3092
59.313
59.3036
59.3026
59.3188
59.3252
59.317
59.3221
59.3247
59.3231
59.3228
59.3187
59.3155
59.3006
59.2929
59.2923
59.2862
59.2907
59.2954
59.2938
59.2939
59.2921
59.2903
59.2802
59.2711
59.2717
59.2767
59.2761
59.2758
59.267
59.2668
59.2763
59.2778
59.2761
59.2721
59.2702
59.27
59.2647
59.2668
59.2688
59.2661
59.2578
59.2563
59.2675
59.2655
59.2732
59.2826
59.2837
59.2814
59.277
59.2759
59.2632
59.2628
59.272
59.2678
59.2745
59.2795
59.2785
59.2782
59.2693
59.268
59.2654
59.2724
59.2785
59.2757
59.2655
55.0168
55.8926
56.7923
57.6707
58.4222
58.9137
59.1862
59.2939
59.3067
59.3073
59.3074
59.3036
59.2969
59.3036
59.314
59.3078
59.3179
59.3435
59.3437
59.3409
59.3453
59.3501
59.349
59.3488
59.3429
59.3423
59.3349
59.3368
59.3383
59.3352
59.3346
59.3326
59.3315
59.3241
59.3168
59.3173
59.3173
59.3138
59.3063
59.2993
59.3014
59.303
59.3003
59.2957
59.2917
59.2894
59.2899
59.2914
59.2897
59.2874
59.2836
59.2745
59.2666
59.2676
59.2717
59.2686
59.2683
59.2671
59.2556
59.2589
59.2691
59.2688
59.2694
59.2679
59.2668
59.2545
59.2556
59.2657
59.2692
59.2671
59.256
59.2597
59.2672
59.2658
59.2614
59.2612
59.2692
59.2661
59.2683
59.2687
59.2669
59.2625
59.2691
59.2767
59.2771
59.2772
59.2647
59.2681
59.2738
59.2615
55.0185
55.8894
56.795
57.6793
58.4031
58.9089
59.1989
59.3282
59.3535
59.3523
59.3441
59.3443
59.3504
59.3467
59.3466
59.3429
59.3491
59.3535
59.3516
59.3493
59.3407
59.3386
59.3353
59.3423
59.351
59.3441
59.3493
59.3519
59.3477
59.3476
59.3465
59.348
59.3455
59.3443
59.3446
59.3448
59.3417
59.3347
59.316
59.3075
59.3061
59.3073
59.3083
59.307
59.3054
59.2989
59.298
59.2958
59.2915
59.2887
59.2866
59.2855
59.275
59.2781
59.2853
59.2829
59.2767
59.2737
59.2767
59.2731
59.2793
59.2864
59.2816
59.2846
59.2886
59.2872
59.286
59.279
59.2747
59.2654
59.2598
59.2719
59.2807
59.2809
59.2807
59.2681
59.2668
59.2809
59.287
59.2841
59.2848
59.2838
59.2758
59.2701
59.2744
59.2804
59.2772
59.2781
59.2768
59.2627
55.0174
55.8927
56.7901
57.6772
58.4119
58.9149
59.1925
59.2969
59.3089
59.3084
59.308
59.2957
59.3012
59.324
59.3183
59.3248
59.3324
59.3209
59.3215
59.3356
59.3342
59.3426
59.3518
59.3385
59.338
59.3455
59.3399
59.3455
59.3535
59.3444
59.3497
59.353
59.3518
59.3515
59.3468
59.3456
59.3397
59.3372
59.3327
59.3235
59.3107
59.3042
59.2994
59.2852
59.2855
59.2924
59.2813
59.2846
59.2937
59.291
59.2927
59.29
59.2883
59.289
59.2894
59.2856
59.2764
59.2653
59.2668
59.2721
59.2692
59.2584
59.26
59.2704
59.2652
59.2681
59.2695
59.2674
59.2647
59.2594
59.2716
59.2841
59.2793
59.2793
59.28
59.2793
59.2718
59.268
59.2733
59.2726
59.2807
59.2947
59.2941
59.2921
59.2902
59.2878
59.2845
59.2838
59.2792
59.2635
55.0217
55.8865
56.7905
57.6791
58.4119
58.916
59.1913
59.2816
59.2886
59.2837
59.2907
59.3138
59.3149
59.3128
59.3025
59.3031
59.3141
59.325
59.3254
59.3243
59.3242
59.3198
59.3192
59.3117
59.3183
59.3269
59.3245
59.3247
59.3202
59.3219
59.3209
59.3262
59.3274
59.3253
59.3249
59.3229
59.3222
59.3168
59.3142
59.3099
59.2963
59.2979
59.2994
59.2985
59.2983
59.2953
59.2917
59.2847
59.2813
59.2767
59.2668
59.2574
59.2533
59.254
59.2536
59.2445
59.2473
59.2496
59.2417
59.2384
59.2518
59.268
59.2628
59.2666
59.2683
59.2668
59.266
59.254
59.2553
59.2672
59.2666
59.2669
59.2667
59.2623
59.2615
59.2589
59.2531
59.2509
59.2649
59.2789
59.2776
59.2755
59.2639
59.2662
59.2785
59.2736
59.2792
59.2827
59.2792
59.2671
55.0188
55.8911
56.792
57.6746
58.4101
58.9187
59.1965
59.2832
59.2843
59.2903
59.3033
59.3036
59.3036
59.2966
59.3008
59.3042
59.2989
59.3055
59.3224
59.3218
59.3375
59.3472
59.3468
59.3467
59.3399
59.3378
59.3263
59.3247
59.3359
59.337
59.3345
59.3291
59.3229
59.3211
59.3162
59.3226
59.3259
59.3148
59.3178
59.322
59.3213
59.321
59.3157
59.315
59.3107
59.3025
59.2827
59.2645
59.2658
59.2679
59.2574
59.2608
59.268
59.2651
59.2672
59.2646
59.2632
59.2635
59.2624
59.252
59.2561
59.2653
59.2649
59.2648
59.2559
59.2616
59.2676
59.2666
59.2662
59.2557
59.2592
59.2636
59.2532
59.2547
59.2703
59.2744
59.2733
59.2724
59.262
59.2633
59.2706
59.2608
59.2616
59.2789
59.2844
59.2816
59.2821
59.2825
59.2806
59.2661
55.0166
55.8931
56.7917
57.6744
58.4134
58.913
59.1923
59.3058
59.3204
59.3209
59.3209
59.3161
59.3116
59.3227
59.3366
59.3285
59.3341
59.3383
59.3372
59.3384
59.3337
59.3452
59.3514
59.3496
59.3472
59.3413
59.3494
59.3549
59.3525
59.353
59.3539
59.3549
59.3531
59.3506
59.348
59.3432
59.3417
59.3419
59.3417
59.3367
59.3298
59.3218
59.3154
59.3026
59.2883
59.2779
59.2747
59.2726
59.2705
59.2674
59.261
59.2524
59.2569
59.263
59.2696
59.2719
59.2623
59.2667
59.2733
59.2705
59.2714
59.2698
59.2673
59.2536
59.2537
59.2706
59.2739
59.2719
59.269
59.2633
59.2705
59.2784
59.2768
59.2746
59.2665
59.2718
59.2762
59.2744
59.273
59.2645
59.2693
59.2767
59.2747
59.2675
59.2692
59.2788
59.2781
59.2783
59.2768
59.2648
55.0194
55.8875
56.7972
57.6775
58.4018
58.9099
59.2054
59.3109
59.3188
59.3184
59.3279
59.333
59.336
59.3338
59.3318
59.3286
59.3343
59.3576
59.3585
59.3556
59.3456
59.3495
59.3574
59.3469
59.35
59.3624
59.3535
59.3582
59.3657
59.3549
59.3587
59.3617
59.3603
59.36
59.3564
59.3501
59.3418
59.3366
59.3329
59.3288
59.32
59.3146
59.3111
59.3081
59.3041
59.2955
59.29
59.2737
59.2722
59.2781
59.2785
59.2793
59.2774
59.2753
59.2756
59.2753
59.2723
59.2706
59.2683
59.2667
59.2606
59.2593
59.2579
59.2666
59.2758
59.275
59.2751
59.2739
59.2731
59.2652
59.26
59.2687
59.2763
59.2764
59.2764
59.2637
59.2654
59.2807
59.2819
59.2798
59.2758
59.271
59.2743
59.2807
59.2798
59.2803
59.2782
59.2765
59.273
59.2619
55.0184
55.8925
56.7888
57.6728
58.4217
58.9132
59.187
59.2797
59.2806
59.2824
59.2888
59.2821
59.2861
59.2972
59.2967
59.2955
59.2939
59.3038
59.319
59.3281
59.3264
59.327
59.3216
59.3237
59.3488
59.357
59.3429
59.3437
59.3512
59.3441
59.3481
59.3526
59.3475
59.3479
59.3478
59.3472
59.3419
59.3283
59.3182
59.3123
59.301
59.2917
59.289
59.2858
59.2868
59.2871
59.2848
59.2767
59.2795
59.2846
59.2849
59.2849
59.2822
59.278
59.2748
59.268
59.2642
59.2625
59.2553
59.2621
59.2689
59.2677
59.2672
59.2581
59.2601
59.2653
59.2643
59.2654
59.2624
59.2522
59.2538
59.2731
59.2783
59.2774
59.276
59.274
59.2731
59.2701
59.2681
59.2651
59.2592
59.2684
59.2891
59.2875
59.2884
59.2877
59.282
59.2795
59.2782
59.2688
55.0185
55.8898
56.794
57.6803
58.4022
58.9056
59.206
59.3187
59.3286
59.3327
59.3395
59.3351
59.3334
59.3347
59.3333
59.3397
59.3428
59.3392
59.3427
59.3437
59.3375
59.3381
59.3553
59.3594
59.3539
59.3625
59.3717
59.3593
59.3635
59.3671
59.3547
59.3584
59.3596
59.3497
59.3484
59.3498
59.3514
59.3489
59.3445
59.3384
59.3313
59.3232
59.3055
59.2902
59.2787
59.2738
59.271
59.2659
59.262
59.2622
59.2627
59.2627
59.2591
59.2521
59.2527
59.2516
59.2585
59.2721
59.271
59.2701
59.2649
59.2582
59.2649
59.2745
59.2731
59.2679
59.2721
59.2834
59.2821
59.28
59.2673
59.2692
59.274
59.2743
59.2743
59.2612
59.2657
59.2811
59.2824
59.2801
59.2766
59.2758
59.2647
59.269
59.2776
59.278
59.278
59.2745
59.2731
59.2585
55.0164
55.8954
56.7941
57.6683
58.4172
58.9107
59.1906
59.3033
59.3207
59.3188
59.3126
59.3105
59.3126
59.3129
59.3077
59.3071
59.3232
59.3314
59.3299
59.3248
59.3272
59.3303
59.3245
59.3331
59.3448
59.3337
59.3367
59.3508
59.3534
59.3509
59.3485
59.3467
59.3328
59.3293
59.3267
59.3192
59.3174
59.316
59.3132
59.3111
59.3107
59.3104
59.3105
59.3075
59.3068
59.3049
59.3012
59.2927
59.2886
59.2803
59.259
59.255
59.2611
59.2621
59.2601
59.2512
59.2533
59.2545
59.2565
59.287
59.2978
59.2963
59.2934
59.2891
59.2859
59.2754
59.2783
59.2887
59.283
59.2879
59.2907
59.2876
59.2883
59.289
59.2897
59.2854
59.2692
59.267
59.2724
59.2757
59.2735
59.2636
59.2728
59.2831
59.2808
59.2741
59.2721
59.2732
59.273
59.2661
55.0178
55.8912
56.7934
57.6813
58.4042
58.8999
59.1995
59.3351
59.3586
59.3575
59.3537
59.3485
59.3498
59.3471
59.349
59.3603
59.3641
59.3638
59.3638
59.3535
59.355
59.3631
59.3618
59.3618
59.3553
59.3582
59.3603
59.363
59.3659
59.3579
59.3623
59.3631
59.3588
59.3599
59.3563
59.3539
59.3528
59.3518
59.3462
59.3405
59.336
59.3291
59.3142
59.3001
59.2896
59.2838
59.2799
59.2777
59.2745
59.2676
59.2488
59.2437
59.2485
59.2537
59.2519
59.2423
59.2524
59.2717
59.2697
59.273
59.2744
59.2723
59.2628
59.2671
59.2736
59.2646
59.2642
59.2757
59.2784
59.2778
59.2778
59.275
59.2673
59.2693
59.2832
59.2841
59.2821
59.2823
59.2795
59.2682
59.2653
59.2768
59.2838
59.2809
59.2808
59.2812
59.2798
59.2783
59.2744
59.2607
55.0177
55.8919
56.7908
57.6837
58.4027
58.9007
59.2061
59.3295
59.3441
59.3508
59.3629
59.3617
59.3608
59.3557
59.3481
59.35
59.3529
59.3466
59.3525
59.3614
59.3521
59.3571
59.3718
59.3624
59.3631
59.3805
59.3835
59.3822
59.3835
59.3819
59.3802
59.3772
59.3716
59.3704
59.3682
59.3654
59.362
59.3575
59.3483
59.3356
59.3262
59.3187
59.3083
59.3
59.2942
59.2899
59.2821
59.2625
59.2491
59.2558
59.2662
59.2658
59.2666
59.2644
59.2529
59.2547
59.2672
59.2638
59.2602
59.2601
59.2577
59.2603
59.2799
59.2862
59.2821
59.2844
59.2887
59.2873
59.2839
59.278
59.2677
59.2747
59.2895
59.2857
59.2854
59.2835
59.2883
59.29
59.2835
59.284
59.2845
59.2831
59.2691
59.2704
59.2805
59.2824
59.2801
59.2767
59.2752
59.2597
55.0183
55.8896
56.7957
57.6797
58.402
58.9066
59.1983
59.3277
59.3484
59.3456
59.3467
59.3445
59.3396
59.3391
59.3503
59.3519
59.349
59.3488
59.3423
59.3505
59.3684
59.368
59.367
59.3633
59.3647
59.3613
59.359
59.356
59.3613
59.3625
59.3574
59.357
59.3564
59.3565
59.353
59.3457
59.3288
59.3123
59.3053
59.3011
59.3016
59.302
59.3004
59.3011
59.2998
59.2982
59.296
59.292
59.2831
59.2586
59.2483
59.2531
59.2578
59.2565
59.2559
59.2465
59.2517
59.2689
59.2618
59.2599
59.264
59.2609
59.2616
59.2799
59.2878
59.2852
59.2794
59.273
59.2713
59.2652
59.2642
59.2682
59.269
59.2661
59.2727
59.2806
59.2804
59.2802
59.2687
59.2733
59.2839
59.2777
59.281
59.2821
59.2801
59.2774
59.2766
59.275
59.2709
59.2575
55.0143
55.8955
56.7945
57.6759
58.4049
58.9124
59.2006
59.3107
59.3237
59.3186
59.3163
59.3156
59.315
59.3203
59.3255
59.3233
59.3158
59.3174
59.3351
59.3395
59.3382
59.3333
59.3367
59.3636
59.3804
59.3719
59.3779
59.3818
59.3748
59.3741
59.3739
59.3739
59.372
59.3693
59.3663
59.3641
59.3578
59.3515
59.3438
59.3377
59.3277
59.3196
59.3125
59.3022
59.2955
59.282
59.2711
59.2618
59.2582
59.2542
59.2461
59.2352
59.2471
59.2775
59.2771
59.276
59.2851
59.3035
59.3026
59.3026
59.3006
59.3008
59.2972
59.2865
59.2833
59.2876
59.2919
59.2907
59.2894
59.289
59.2788
59.2837
59.2921
59.2904
59.2902
59.2883
59.2883
59.2857
59.2848
59.2823
59.2742
59.2764
59.2785
59.2685
59.2714
59.2728
59.2691
59.2689
59.2661
59.2543
55.018
55.8924
56.7919
57.6738
58.4115
58.9223
59.1912
59.2698
59.2728
59.2796
59.3046
59.3046
59.3047
59.3048
59.2989
59.303
59.3171
59.3152
59.3155
59.3139
59.3236
59.3601
59.3613
59.3705
59.3839
59.3787
59.3793
59.3824
59.3816
59.3777
59.3775
59.374
59.3717
59.3712
59.369
59.3603
59.3429
59.3306
59.3231
59.3173
59.3125
59.3087
59.3051
59.3022
59.2964
59.2833
59.273
59.2666
59.2511
59.2469
59.2503
59.2458
59.2513
59.2553
59.2543
59.2541
59.2464
59.2429
59.2448
59.2452
59.2371
59.2406
59.2483
59.2482
59.2482
59.2372
59.2425
59.2514
59.2508
59.2497
59.2477
59.2607
59.2798
59.2835
59.2803
59.2796
59.2808
59.2817
59.2784
59.2676
59.2686
59.2771
59.2762
59.2759
59.2745
59.2743
59.2705
59.2646
59.2614
59.2521
55.0196
55.887
56.7981
57.6769
58.4021
58.9107
59.2038
59.3215
59.3371
59.3377
59.3376
59.3265
59.3263
59.3433
59.3488
59.342
59.3475
59.3514
59.3507
59.3509
59.3447
59.3554
59.3719
59.3792
59.383
59.3782
59.3776
59.371
59.3761
59.3775
59.3754
59.3749
59.3715
59.3685
59.361
59.3556
59.3465
59.3391
59.3324
59.3276
59.3214
59.3163
59.3105
59.3055
59.3023
59.2982
59.2904
59.2758
59.2563
59.2497
59.2479
59.2453
59.2377
59.2383
59.2662
59.2772
59.2699
59.2697
59.2772
59.2775
59.2865
59.2924
59.2806
59.2818
59.2959
59.2966
59.2929
59.2966
59.2977
59.2941
59.2935
59.2879
59.2818
59.2803
59.2763
59.2827
59.2973
59.2863
59.2869
59.297
59.2969
59.3023
59.304
59.3009
59.3007
59.3005
59.2979
59.2952
59.289
59.2672
55.0182
55.8906
56.7926
57.6827
58.3999
58.9081
59.206
59.3175
59.3542
59.3554
59.3408
59.3432
59.3503
59.3482
59.3482
59.3407
59.3481
59.3596
59.3507
59.3533
59.3726
59.3757
59.37
59.3747
59.3887
59.3808
59.3864
59.3924
59.3884
59.3879
59.3836
59.3826
59.3821
59.3813
59.3772
59.3686
59.3569
59.347
59.3373
59.3161
59.2989
59.2923
59.283
59.2782
59.2756
59.2735
59.2689
59.2555
59.2523
59.2594
59.2614
59.2592
59.2522
59.2487
59.2633
59.2933
59.293
59.2873
59.2921
59.3042
59.3058
59.3036
59.2988
59.2981
59.2891
59.2922
59.2943
59.2919
59.292
59.2895
59.2815
59.2833
59.2947
59.2855
59.2849
59.2998
59.3042
59.3013
59.2943
59.2894
59.2884
59.2803
59.2841
59.2967
59.2969
59.2946
59.2909
59.2889
59.2843
59.2686
55.0185
55.8939
56.7859
57.6802
58.4117
58.9152
59.1922
59.2914
59.3011
59.2922
59.2953
59.3032
59.3
59.3004
59.2977
59.3083
59.3293
59.3294
59.344
59.3731
59.3814
59.3799
59.3743
59.3771
59.3787
59.376
59.3678
59.3694
59.3754
59.3699
59.3712
59.3687
59.366
59.3624
59.3614
59.3574
59.354
59.3484
59.3373
59.3204
59.311
59.2931
59.28
59.2745
59.2716
59.2668
59.251
59.2514
59.2544
59.2459
59.2492
59.2504
59.2409
59.2451
59.2486
59.2437
59.2437
59.2436
59.238
59.2431
59.2543
59.251
59.2509
59.2476
59.2579
59.279
59.2795
59.281
59.2791
59.274
59.2667
59.2674
59.274
59.2741
59.2789
59.2795
59.2785
59.2768
59.2669
59.2702
59.2791
59.2766
59.2767
59.2756
59.2669
59.2664
59.2791
59.2808
59.2785
59.2657
55.0163
55.8921
56.7965
57.6726
58.4089
58.9118
59.2001
59.314
59.3311
59.3281
59.3287
59.3286
59.3231
59.3289
59.3394
59.3364
59.3363
59.3288
59.3318
59.3463
59.3451
59.3452
59.3441
59.3543
59.3674
59.3567
59.3568
59.3767
59.3831
59.3816
59.3812
59.378
59.3736
59.3685
59.3615
59.3538
59.3469
59.3399
59.3336
59.329
59.3204
59.3118
59.3049
59.3003
59.292
59.2814
59.2698
59.263
59.2603
59.2549
59.2419
59.2327
59.2437
59.2535
59.2487
59.252
59.2533
59.2503
59.2439
59.2354
59.238
59.2557
59.2557
59.2464
59.2439
59.2575
59.2664
59.2669
59.2669
59.2606
59.2583
59.2557
59.2476
59.2501
59.2612
59.2608
59.2558
59.2551
59.2656
59.2717
59.2692
59.2589
59.2619
59.2654
59.2601
59.2703
59.2804
59.2795
59.2792
59.2631
55.0191
55.8881
56.7965
57.6784
58.4014
58.9105
59.2066
59.3126
59.3209
59.3238
59.3374
59.3383
59.3334
59.3414
59.3546
59.3457
59.3519
59.3657
59.3556
59.3611
59.3732
59.3664
59.3633
59.3704
59.3738
59.38
59.3902
59.3804
59.3842
59.3886
59.3873
59.387
59.3838
59.3823
59.3767
59.3652
59.3496
59.3388
59.3286
59.3198
59.3132
59.3072
59.3031
59.3
59.2974
59.2949
59.2902
59.2809
59.2628
59.244
59.2433
59.2444
59.2428
59.2386
59.2435
59.2525
59.2526
59.2524
59.2396
59.2405
59.2478
59.2474
59.2478
59.2482
59.2438
59.2494
59.2643
59.2605
59.2605
59.2586
59.2594
59.2596
59.2586
59.2533
59.2617
59.2757
59.274
59.2691
59.2665
59.274
59.2761
59.2745
59.2738
59.2638
59.2664
59.2735
59.2704
59.2713
59.2685
59.2576
55.0177
55.8919
56.7907
57.6839
58.4023
58.9025
59.2032
59.3356
59.3571
59.355
59.3554
59.3544
59.3487
59.344
59.3514
59.3558
59.3505
59.356
59.3662
59.3574
59.3633
59.3785
59.3707
59.3687
59.3747
59.375
59.384
59.3889
59.3795
59.3819
59.384
59.3797
59.3791
59.3785
59.3771
59.3708
59.3609
59.3486
59.3383
59.3305
59.3239
59.3192
59.3135
59.3099
59.3051
59.2945
59.2896
59.2795
59.2735
59.2713
59.2692
59.2643
59.2478
59.2504
59.2797
59.2988
59.303
59.2969
59.3021
59.3046
59.3016
59.2914
59.2919
59.2986
59.2899
59.2937
59.2986
59.2961
59.2971
59.2982
59.2988
59.2951
59.2821
59.2833
59.2857
59.2802
59.2804
59.2802
59.2744
59.2774
59.2877
59.2884
59.288
59.2759
59.274
59.2822
59.2862
59.2847
59.283
59.2697
55.0182
55.8906
56.7926
57.6828
58.3998
58.908
59.2061
59.3177
59.3544
59.3557
59.343
59.3399
59.3488
59.3546
59.3524
59.3443
59.3486
59.3599
59.3563
59.3561
59.3519
59.3566
59.373
59.369
59.3701
59.3894
59.3969
59.3947
59.395
59.3936
59.3922
59.3893
59.387
59.3817
59.3762
59.3655
59.3549
59.3467
59.3372
59.3162
59.301
59.2873
59.282
59.2768
59.2743
59.272
59.2683
59.2572
59.2537
59.2598
59.264
59.2612
59.2482
59.2482
59.2678
59.271
59.2691
59.2817
59.2955
59.2938
59.2959
59.2968
59.2971
59.2929
59.2807
59.2787
59.286
59.2914
59.2902
59.2905
59.2877
59.2804
59.2791
59.2741
59.2811
59.292
59.2817
59.2865
59.2908
59.2895
59.2896
59.2881
59.2874
59.2815
59.2788
59.265
59.2659
59.276
59.2752
59.2665
55.0197
55.8867
56.7983
57.6769
58.4013
58.9136
59.1993
59.3215
59.3396
59.33
59.3342
59.3421
59.3412
59.3415
59.337
59.3421
59.3424
59.3509
59.357
59.3491
59.3483
59.364
59.3779
59.3738
59.3774
59.3818
59.3802
59.3784
59.3653
59.3662
59.3679
59.3626
59.3622
59.3587
59.3577
59.3577
59.3573
59.3554
59.3508
59.3407
59.3263
59.3153
59.3071
59.3004
59.2966
59.2926
59.2844
59.2643
59.2477
59.2483
59.2547
59.2526
59.2425
59.243
59.2715
59.2838
59.2826
59.2778
59.2819
59.2979
59.2994
59.2994
59.2869
59.2877
59.2943
59.2896
59.2899
59.2967
59.2975
59.2945
59.285
59.2831
59.289
59.2883
59.2915
59.2952
59.2938
59.2924
59.2809
59.2795
59.2892
59.2867
59.2923
59.2969
59.2965
59.2965
59.2924
59.2918
59.2867
59.2681
55.0185
55.8918
56.7916
57.6751
58.4117
58.9169
59.1935
59.2874
59.2957
59.2893
59.2926
59.3063
59.3043
59.3105
59.3135
59.3121
59.3109
59.3178
59.3288
59.3209
59.3208
59.3418
59.3685
59.368
59.363
59.3665
59.373
59.3581
59.3568
59.3614
59.3632
59.3632
59.3568
59.3562
59.3555
59.3546
59.3478
59.3443
59.3381
59.3247
59.3102
59.3022
59.296
59.2829
59.2766
59.2716
59.2558
59.2561
59.2623
59.2588
59.2535
59.2558
59.2617
59.261
59.2584
59.2617
59.2658
59.2654
59.2651
59.2524
59.2484
59.2601
59.2669
59.2642
59.2536
59.2516
59.2623
59.2604
59.2685
59.275
59.2754
59.2754
59.266
59.2629
59.2675
59.2652
59.2699
59.2804
59.2743
59.2718
59.2806
59.2888
59.289
59.2889
59.282
59.2777
59.2839
59.2875
59.2841
59.2715
55.0169
55.8952
56.7934
57.6686
58.4179
58.9111
59.1897
59.3034
59.3183
59.3105
59.3166
59.3211
59.3203
59.3202
59.3096
59.3156
59.3255
59.3336
59.3381
59.3336
59.3343
59.3321
59.3455
59.3763
59.377
59.373
59.3735
59.3719
59.3568
59.3575
59.3575
59.3551
59.3547
59.3511
59.3502
59.3467
59.3413
59.3342
59.3282
59.3225
59.3151
59.3093
59.3041
59.2998
59.2971
59.2924
59.2813
59.2775
59.2662
59.265
59.2654
59.2643
59.2641
59.2597
59.2575
59.2556
59.2533
59.245
59.2551
59.2786
59.2785
59.2765
59.2654
59.2662
59.2727
59.2732
59.2734
59.2686
59.2686
59.2686
59.2631
59.265
59.2803
59.2821
59.28
59.2732
59.2696
59.2786
59.2823
59.2777
59.2787
59.2778
59.2669
59.2687
59.2756
59.2732
59.273
59.2736
59.2726
59.2565
55.0164
55.8954
56.794
57.6683
58.4173
58.9107
59.1925
59.3001
59.3113
59.3046
59.3082
59.3148
59.3148
59.3147
59.3041
59.3124
59.3404
59.3428
59.3403
59.3317
59.3376
59.3529
59.3526
59.3496
59.3528
59.3646
59.3588
59.365
59.3673
59.3656
59.3651
59.3603
59.3568
59.3516
59.3414
59.3324
59.3254
59.3191
59.3144
59.3094
59.3061
59.3038
59.3038
59.3032
59.2961
59.2868
59.2787
59.2755
59.2702
59.2583
59.2449
59.2426
59.2386
59.2396
59.2644
59.2823
59.2782
59.2829
59.2851
59.2822
59.2722
59.2726
59.279
59.2737
59.2792
59.2828
59.2808
59.2783
59.2704
59.2773
59.2834
59.2761
59.2786
59.2793
59.2777
59.2788
59.2764
59.2684
59.2732
59.2783
59.2748
59.2743
59.2668
59.2719
59.2754
59.2727
59.2676
59.2628
59.2629
59.2547
55.0181
55.891
56.7922
57.6824
58.4017
58.9045
59.2039
59.3297
59.3481
59.3452
59.3454
59.3452
59.3381
59.3401
59.3529
59.3536
59.3541
59.3512
59.3513
59.349
59.357
59.3631
59.3528
59.3558
59.3697
59.3617
59.3661
59.3748
59.363
59.3672
59.3689
59.3666
59.3659
59.3601
59.3567
59.3489
59.3436
59.3348
59.3282
59.3228
59.3178
59.3141
59.3094
59.3041
59.2943
59.2755
59.2669
59.2635
59.254
59.2576
59.2724
59.2657
59.2716
59.2756
59.275
59.2749
59.2698
59.2635
59.2669
59.27
59.2693
59.2682
59.2709
59.2737
59.2725
59.2723
59.264
59.2677
59.2705
59.2676
59.2663
59.2736
59.289
59.2919
59.2892
59.2902
59.2896
59.2837
59.2832
59.2794
59.2789
59.2776
59.2657
59.2639
59.2775
59.283
59.2801
59.2811
59.2795
59.2638
55.0174
55.8923
56.7914
57.6848
58.3997
58.9029
59.2018
59.3282
59.3549
59.3551
59.3547
59.349
59.3485
59.3453
59.3462
59.3531
59.3523
59.3464
59.352
59.3711
59.3687
59.3764
59.3812
59.3687
59.3693
59.3755
59.3697
59.3742
59.3752
59.3735
59.3732
59.3709
59.3703
59.3676
59.3649
59.3612
59.3545
59.3482
59.343
59.3327
59.3251
59.3209
59.3162
59.3063
59.2991
59.2952
59.2898
59.2869
59.2816
59.2762
59.262
59.2569
59.2679
59.2737
59.271
59.2615
59.2622
59.272
59.2678
59.273
59.2753
59.2705
59.2706
59.2704
59.265
59.2626
59.2691
59.2682
59.2749
59.2935
59.2942
59.2947
59.2921
59.2828
59.2875
59.2955
59.2871
59.2919
59.2943
59.2882
59.2906
59.2914
59.2898
59.2893
59.2883
59.2806
59.2751
59.2725
59.269
59.2581
55.0155
55.893
56.797
57.675
58.4022
58.9162
59.1996
59.3065
59.3223
59.3229
59.3226
59.3089
59.3103
59.314
59.3035
59.3012
59.3175
59.3302
59.3289
59.3236
59.3233
59.3401
59.3585
59.3571
59.3469
59.3512
59.3571
59.3567
59.3561
59.3397
59.3402
59.3417
59.3391
59.3367
59.3323
59.3285
59.322
59.3118
59.3082
59.3073
59.307
59.3045
59.3017
59.2998
59.2916
59.28
59.2744
59.269
59.2578
59.2445
59.2488
59.2635
59.2663
59.2634
59.2647
59.2639
59.2571
59.2516
59.2608
59.2688
59.2754
59.2822
59.2752
59.2759
59.276
59.2742
59.2683
59.2664
59.2649
59.27
59.2715
59.2703
59.268
59.2698
59.2721
59.2634
59.2676
59.278
59.2778
59.2783
59.272
59.271
59.2665
59.2732
59.2797
59.2777
59.2741
59.2707
59.2705
59.2607
55.0184
55.8899
56.7941
57.6795
58.404
58.9049
59.2003
59.3301
59.3551
59.3537
59.3467
59.344
59.348
59.3471
59.3482
59.3478
59.3435
59.3393
59.3462
59.3548
59.3552
59.3533
59.3485
59.3542
59.372
59.369
59.3722
59.3761
59.3754
59.3749
59.3688
59.3631
59.3594
59.3529
59.3495
59.3455
59.3417
59.3393
59.3363
59.3329
59.3287
59.3227
59.3173
59.3064
59.2957
59.2905
59.284
59.2802
59.2738
59.2569
59.2501
59.2612
59.2679
59.2668
59.2668
59.2591
59.262
59.2674
59.2593
59.2589
59.2588
59.2591
59.2529
59.2577
59.2656
59.2533
59.2563
59.2654
59.2645
59.2624
59.2608
59.2723
59.2735
59.2817
59.2861
59.2775
59.2806
59.285
59.2849
59.2845
59.2747
59.2693
59.2701
59.2695
59.2711
59.2711
59.2648
59.2624
59.2636
59.2556
55.0182
55.8919
56.7899
57.676
58.4132
58.9196
59.1904
59.273
59.2741
59.2757
59.2972
59.3113
59.3126
59.3103
59.2976
59.2999
59.3203
59.3231
59.3183
59.3241
59.3411
59.3358
59.3347
59.346
59.352
59.3563
59.3735
59.3741
59.3744
59.3731
59.3714
59.372
59.3723
59.3683
59.3601
59.3507
59.344
59.3392
59.3307
59.3239
59.3195
59.3164
59.3108
59.3075
59.3045
59.2982
59.2822
59.2732
59.2717
59.2661
59.2719
59.2762
59.2755
59.2751
59.2651
59.2589
59.2605
59.2614
59.2591
59.2528
59.2556
59.2632
59.2612
59.2542
59.2555
59.2708
59.2743
59.2726
59.2705
59.2688
59.2621
59.2548
59.2641
59.2732
59.2732
59.2732
59.2618
59.2645
59.2676
59.2654
59.2668
59.2654
59.2601
59.2662
59.279
59.2679
59.2724
59.2801
59.2772
59.266
55.0191
55.8882
56.7967
57.678
58.4006
58.9148
59.1926
59.3248
59.3557
59.356
59.3566
59.3513
59.349
59.3467
59.3359
59.3324
59.3388
59.3334
59.3389
59.3508
59.3467
59.3473
59.3472
59.3412
59.3435
59.3559
59.3482
59.3541
59.3591
59.3583
59.3583
59.356
59.3554
59.3525
59.3502
59.3475
59.3437
59.3369
59.3229
59.3149
59.3116
59.3071
59.3045
59.3014
59.2993
59.2966
59.2914
59.2839
59.2806
59.2714
59.274
59.2783
59.2777
59.2761
59.2779
59.2804
59.28
59.2799
59.2726
59.2717
59.2678
59.2651
59.2566
59.2592
59.2625
59.2602
59.254
59.2554
59.2641
59.2616
59.2585
59.2661
59.2814
59.2813
59.2803
59.2673
59.2691
59.2827
59.2843
59.2823
59.2794
59.2767
59.2652
59.2694
59.2778
59.2782
59.2782
59.2748
59.2734
59.2587
55.0166
55.8931
56.7917
57.6744
58.4134
58.913
59.1924
59.3047
59.3242
59.3231
59.3208
59.3173
59.3125
59.321
59.3431
59.3364
59.3434
59.3507
59.3462
59.3494
59.3506
59.3487
59.3404
59.341
59.3531
59.354
59.3517
59.3481
59.3539
59.3576
59.3532
59.355
59.3552
59.3534
59.3519
59.3496
59.3468
59.342
59.3396
59.3316
59.3114
59.2998
59.296
59.2917
59.2812
59.2778
59.2863
59.2889
59.2875
59.2875
59.2818
59.2798
59.2799
59.2762
59.2763
59.2769
59.2767
59.2776
59.2777
59.2726
59.2589
59.2531
59.2524
59.2483
59.2467
59.2578
59.2647
59.2633
59.2624
59.2544
59.2642
59.2767
59.2754
59.2732
59.2652
59.2717
59.2768
59.2754
59.2746
59.2629
59.2667
59.2866
59.2877
59.287
59.2881
59.286
59.2827
59.2801
59.276
59.2628
55.0191
55.8911
56.7899
57.6746
58.414
58.9245
59.185
59.269
59.2801
59.2914
59.3109
59.3173
59.3173
59.3067
59.3081
59.3187
59.3198
59.3181
59.3207
59.326
59.3237
59.3241
59.3182
59.3206
59.3418
59.3446
59.3417
59.3353
59.3312
59.3327
59.3259
59.3309
59.3359
59.333
59.332
59.3321
59.332
59.33
59.329
59.3216
59.3192
59.3159
59.3138
59.3127
59.308
59.3019
59.2958
59.2837
59.2655
59.2603
59.2561
59.2538
59.2516
59.2574
59.2707
59.2715
59.2712
59.2581
59.2578
59.2653
59.2624
59.2634
59.2636
59.264
59.2569
59.2577
59.2592
59.2511
59.2491
59.258
59.2607
59.2687
59.2764
59.268
59.2729
59.2758
59.2728
59.2657
59.2629
59.2731
59.2719
59.2799
59.2889
59.2878
59.2875
59.277
59.2818
59.2864
59.2826
59.2685
55.0171
55.8928
56.7935
57.6714
58.4173
58.9117
59.188
59.2962
59.3089
59.3069
59.3027
59.2975
59.3018
59.3005
59.309
59.3164
59.3144
59.31
59.3127
59.3363
59.3386
59.3356
59.3252
59.3246
59.335
59.3437
59.3436
59.3462
59.3437
59.3283
59.3302
59.3323
59.328
59.3285
59.3241
59.3224
59.322
59.3217
59.3159
59.3138
59.3108
59.3084
59.3036
59.3001
59.2969
59.2901
59.273
59.2604
59.2616
59.2591
59.264
59.2749
59.2711
59.2753
59.2766
59.273
59.2736
59.2742
59.2747
59.2708
59.2581
59.2585
59.2706
59.2713
59.2689
59.2651
59.2597
59.2725
59.285
59.2761
59.2819
59.2906
59.2844
59.2885
59.291
59.2896
59.2887
59.276
59.2772
59.2848
59.2837
59.2791
59.2771
59.2793
59.2774
59.2773
59.2757
59.276
59.2733
59.2626
55.0187
55.892
56.7905
57.6777
58.4103
58.9118
59.1937
59.3025
59.3152
59.3153
59.3151
59.3072
59.3036
59.3208
59.3348
59.3304
59.3338
59.3351
59.333
59.3268
59.3323
59.3562
59.357
59.3577