/*--------------------------------*- C++ -*----------------------------------*\
  =========                 |
  \\      /  F ield         | OpenFOAM: The Open Source CFD Toolbox
   \\    /   O peration     | Website:  https://openfoam.org
    \\  /    A nd           | Version:  11
     \\/     M anipulation  |
\*---------------------------------------------------------------------------*/
FoamFile
{
    format      ascii;
    class       volScalarField;
    location    "0.092";
    object      p;
}
// * * * * * * * * * * * * * * * * * * * * * * * * * * * * * * * * * * * * * //

dimensions      [0 2 -2 0 0 0 0];

internalField   nonuniform List<scalar> 
287084
(
1.6813
1.39458
1.33857
1.2681
1.19911
1.14596
1.09488
1.0477
1.00236
0.957918
0.914243
0.869997
0.825552
0.781196
0.736252
0.691018
0.645036
0.59859
0.552318
0.506418
0.460925
0.416353
0.372775
0.330258
0.288396
0.250923
0.219117
0.18826
0.161534
0.140373
0.119742
0.0991858
0.0818022
0.0691262
0.0598326
0.0535676
0.0501312
0.0491309
0.0502468
0.0531726
0.0576025
0.0632428
0.0698131
0.0770601
0.0847506
0.0926827
0.100638
0.108561
0.116089
0.123483
0.130226
0.136372
0.142349
0.147498
0.152032
0.155785
0.159124
0.161649
0.163421
0.164636
0.165071
0.164958
0.164225
0.162923
0.161094
0.158693
0.155804
0.152387
0.148577
0.144332
0.139623
0.134544
0.12911
0.123348
0.117304
0.110903
0.104249
0.0973671
0.0902071
0.0828535
0.0752722
0.0675125
0.0595383
0.0513864
0.0429801
0.0343307
0.0252306
0.015461
0.00520204
0.00100852
1.54584
1.35321
1.30638
1.24809
1.18736
1.13774
1.08912
1.04334
0.998903
0.955099
0.911731
0.867761
0.823563
0.779123
0.733802
0.688023
0.641871
0.595462
0.549036
0.502931
0.457247
0.412542
0.368902
0.326807
0.286604
0.249269
0.215535
0.183938
0.156862
0.132789
0.110597
0.0916155
0.0760329
0.0639813
0.0551396
0.0492746
0.0461665
0.0454862
0.0469107
0.0501359
0.0548541
0.0607687
0.0675954
0.0750863
0.0829985
0.0911333
0.0992914
0.107355
0.115125
0.122573
0.129585
0.136006
0.141865
0.147
0.151532
0.155402
0.158648
0.161181
0.163029
0.164266
0.164822
0.164749
0.164059
0.162793
0.16097
0.158608
0.15571
0.152334
0.148512
0.144266
0.139587
0.134506
0.12908
0.123315
0.117272
0.110874
0.10422
0.0973571
0.090192
0.0828414
0.0752818
0.0675336
0.0595675
0.0514799
0.0431361
0.0346661
0.0258247
0.0168884
0.00747848
0.0020534
1.51899
1.34712
1.29857
1.24174
1.18326
1.13434
1.08644
1.04095
0.99646
0.952491
0.908742
0.864507
0.819894
0.774891
0.72927
0.683089
0.636478
0.589593
0.54266
0.496015
0.449857
0.404629
0.360598
0.318144
0.277779
0.240013
0.205522
0.173978
0.145521
0.121052
0.0996544
0.081261
0.0661709
0.0545103
0.0461626
0.0408189
0.0382477
0.0381266
0.0401264
0.0439286
0.0492097
0.0556683
0.0630161
0.0709888
0.079351
0.0878966
0.0964318
0.104826
0.112891
0.120599
0.127762
0.13432
0.140445
0.145844
0.150576
0.154602
0.15796
0.160632
0.162564
0.163852
0.164442
0.164419
0.163766
0.162532
0.160739
0.158386
0.155543
0.152184
0.148386
0.144143
0.139467
0.134432
0.129035
0.123274
0.117218
0.110845
0.104208
0.097321
0.0901916
0.0828529
0.0752966
0.0675576
0.0596397
0.0515272
0.0432297
0.0347058
0.0259344
0.0168428
0.00763105
0.00238857
1.47113
1.31233
1.26914
1.21727
1.16454
1.11922
1.07424
1.03078
0.987772
0.944778
0.901619
0.857709
0.813183
0.767973
0.721987
0.675315
0.628125
0.580608
0.532994
0.485605
0.43871
0.392749
0.348027
0.305015
0.264167
0.225928
0.190701
0.158721
0.130208
0.105173
0.0835641
0.0654578
0.0509731
0.0400417
0.032463
0.0279687
0.0262725
0.0270501
0.0299522
0.0346435
0.0407862
0.0480705
0.0561946
0.0648957
0.0739301
0.0830912
0.0921946
0.101088
0.109633
0.117732
0.125305
0.132266
0.138598
0.144223
0.149137
0.153345
0.156842
0.159625
0.161692
0.163084
0.163799
0.163856
0.163288
0.162125
0.160376
0.158094
0.155278
0.151966
0.148194
0.143976
0.139347
0.13431
0.128917
0.123174
0.117132
0.110778
0.104152
0.0972856
0.0901641
0.0828329
0.0752915
0.0675674
0.0596562
0.0515994
0.0433649
0.0349082
0.0262764
0.0171741
0.00820064
0.00294015
1.44787
1.29789
1.25719
1.20738
1.15691
1.11258
1.0683
1.0251
0.982035
0.938796
0.895173
0.850792
0.805683
0.759753
0.713012
0.665512
0.617431
0.568954
0.520332
0.4719
0.423957
0.37695
0.331251
0.287331
0.245653
0.206627
0.170728
0.138129
0.109133
0.0839769
0.0626523
0.0451252
0.031386
0.0212943
0.0146658
0.0112099
0.0106155
0.0125337
0.0165932
0.0224323
0.0296974
0.0380564
0.0472001
0.0568562
0.0667735
0.0767441
0.0865819
0.0961385
0.105275
0.113905
0.121935
0.129303
0.136004
0.141971
0.147192
0.151669
0.155384
0.158366
0.160607
0.162141
0.162974
0.16315
0.162675
0.161587
0.159919
0.157685
0.15493
0.151668
0.147934
0.14375
0.139144
0.134148
0.128792
0.123072
0.117041
0.110708
0.1041
0.0972351
0.0901372
0.0828262
0.0753011
0.0675986
0.0597267
0.0516561
0.0434475
0.0349795
0.0263168
0.0172541
0.00833438
0.00303811
1.42304
1.27469
1.23563
1.18775
1.13965
1.09729
1.05475
1.01292
0.970881
0.92829
0.884979
0.840644
0.795294
0.748867
0.701429
0.653081
0.603994
0.554399
0.504575
0.454855
0.405628
0.357307
0.310368
0.265265
0.222523
0.182563
0.145851
0.112748
0.0834849
0.0582469
0.037116
0.0200897
0.00710735
-0.00198665
-0.00744646
-0.00958922
-0.00878676
-0.00542087
0.000104868
0.0073921
0.0160599
0.0257632
0.036173
0.047009
0.0580175
0.0689848
0.0797317
0.0901041
0.0999832
0.10927
0.117895
0.125796
0.132944
0.139306
0.144869
0.149637
0.153617
0.156825
0.159268
0.160977
0.161971
0.162274
0.16192
0.160937
0.159348
0.157198
0.154508
0.151303
0.14762
0.143478
0.138913
0.133944
0.128605
0.122917
0.116909
0.110598
0.104011
0.097171
0.0900877
0.0827862
0.0752823
0.0675904
0.0597283
0.0516906
0.0435151
0.0350412
0.0264443
0.0174082
0.0085224
0.00323661
1.40479
1.25921
1.22192
1.17559
1.12901
1.08758
1.04566
1.00407
0.961989
0.919136
0.875328
0.830358
0.784217
0.736849
0.688344
0.638783
0.588387
0.53736
0.486022
0.434743
0.383908
0.334016
0.285533
0.239001
0.19495
0.153868
0.116264
0.0824783
0.052861
0.0276002
0.00681671
-0.00951958
-0.0215158
-0.0293848
-0.0334271
-0.0340103
-0.0315499
-0.0264739
-0.0192281
-0.0102391
8.14809e-05
0.0113594
0.023256
0.0354803
0.0477697
0.0599086
0.0717153
0.0830465
0.0937802
0.103831
0.113127
0.121624
0.1293
0.136129
0.142104
0.14724
0.151536
0.155016
0.1577
0.159618
0.160792
0.161254
0.161036
0.160168
0.158688
0.156621
0.154009
0.150872
0.147245
0.143156
0.138639
0.133716
0.128416
0.122757
0.116776
0.110488
0.103922
0.0970964
0.0900337
0.082755
0.0752675
0.0676009
0.0597636
0.0517344
0.0435707
0.0351171
0.026499
0.0174509
0.00858535
0.00326199
1.38753
1.24223
1.20547
1.15998
1.11429
1.07372
1.03256
0.991548
0.949829
0.907082
0.863131
0.817761
0.770966
0.722712
0.673103
0.622261
0.570391
0.517762
0.464707
0.411609
0.35895
0.307202
0.256955
0.208743
0.163189
0.120819
0.0821845
0.0477155
0.0177563
-0.00746344
-0.0278375
-0.0433937
-0.0542776
-0.0607465
-0.0631552
-0.0619267
-0.0575354
-0.0504706
-0.0412236
-0.0302639
-0.0180402
-0.00494948
0.00865129
0.0224575
0.0362021
0.0496693
0.0626822
0.0750963
0.0868043
0.0977213
0.10779
0.11697
0.125244
0.1326
0.139036
0.144566
0.149211
0.152998
0.15595
0.158098
0.159476
0.160112
0.160044
0.159311
0.157943
0.155978
0.153449
0.150385
0.146825
0.142792
0.138326
0.133445
0.128177
0.122555
0.116602
0.110345
0.103807
0.0970062
0.089962
0.0826995
0.0752337
0.0675803
0.0597563
0.0517525
0.0436088
0.0351723
0.0265941
0.0174976
0.00860843
0.00330493
1.37256
1.22809
1.19215
1.14736
1.10245
1.06238
1.02153
0.980567
0.938669
0.895526
0.850951
0.804773
0.756965
0.707503
0.656507
0.604086
0.550497
0.495989
0.440944
0.385786
0.330999
0.277167
0.224869
0.174756
0.127493
0.0836653
0.0439079
0.00865631
-0.0216508
-0.0468034
-0.0666564
-0.0812835
-0.0908606
-0.095697
-0.0962231
-0.0929243
-0.0863461
-0.0770369
-0.0655456
-0.0523855
-0.0380368
-0.0229275
-0.0074339
0.00812757
0.0234876
0.0384246
0.052765
0.0663743
0.0791466
0.0910137
0.101922
0.111847
0.120773
0.1287
0.135641
0.141615
0.146649
0.150772
0.154016
0.156418
0.158017
0.158848
0.158954
0.158365
0.157125
0.155269
0.152835
0.149857
0.146368
0.142402
0.13799
0.133157
0.127935
0.12235
0.11643
0.110197
0.103683
0.0969067
0.0898853
0.0826439
0.075195
0.0675619
0.0597539
0.0517592
0.0436254
0.0351842
0.0266036
0.0175243
0.00865865
0.00337599
1.35867
1.2143
1.17858
1.13412
1.08951
1.04971
1.00902
0.968087
0.926042
0.882544
0.837401
0.79041
0.741559
0.690825
0.638328
0.584214
0.528718
0.472151
0.414905
0.35744
0.300328
0.244145
0.189608
0.137379
0.0882276
0.0428088
0.0018028
-0.0342543
-0.0649241
-0.0899434
-0.109192
-0.122747
-0.13084
-0.133853
-0.13227
-0.126667
-0.117658
-0.105862
-0.0918871
-0.0763012
-0.0596215
-0.0423038
-0.0247479
-0.0072798
0.00982664
0.026352
0.0421231
0.0570178
0.0709422
0.0838296
0.0956465
0.106371
0.116003
0.124549
0.13203
0.138476
0.143921
0.148402
0.151958
0.154635
0.156473
0.157506
0.157784
0.157353
0.156248
0.15451
0.152177
0.149288
0.145878
0.141975
0.137618
0.132835
0.127658
0.122115
0.11623
0.110032
0.103545
0.0967955
0.0897965
0.0825734
0.0751426
0.067526
0.0597333
0.0517593
0.0436388
0.0352216
0.0266565
0.0175424
0.00864636
0.00334297
1.34596
1.20178
1.16632
1.12213
1.07774
1.03805
0.997317
0.95617
0.913712
0.869606
0.823627
0.775606
0.725489
0.673275
0.619084
0.56305
0.505461
0.446612
0.386948
0.32697
0.267276
0.208551
0.151531
0.097004
0.0457957
-0.00135719
-0.0436727
-0.0805982
-0.111601
-0.13644
-0.154961
-0.167298
-0.173726
-0.174697
-0.17079
-0.162653
-0.150989
-0.136492
-0.119834
-0.101638
-0.0824593
-0.0627848
-0.0430279
-0.0235294
-0.00456679
0.0136405
0.0309319
0.047189
0.0623248
0.0762876
0.0890526
0.100617
0.110984
0.120175
0.128224
0.135167
0.141047
0.145906
0.149792
0.152751
0.154837
0.15609
0.15656
0.15629
0.155327
0.153712
0.151486
0.14869
0.145359
0.141529
0.137235
0.132507
0.127377
0.121877
0.116028
0.109859
0.1034
0.0966737
0.0896971
0.0824966
0.0750822
0.0674848
0.0597091
0.0517478
0.0436282
0.0352299
0.0266496
0.0175134
0.00865806
0.00337219
1.33413
1.18994
1.15452
1.11043
1.06602
1.02626
0.985346
0.943876
0.900934
0.856136
0.809272
0.760133
0.70867
0.65487
0.598851
0.54078
0.480924
0.419636
0.357374
0.29469
0.232254
0.17078
0.111132
0.0541348
0.000737192
-0.0482409
-0.0919551
-0.129751
-0.161084
-0.185654
-0.203351
-0.214332
-0.218927
-0.217683
-0.211253
-0.200392
-0.185884
-0.168505
-0.148993
-0.128027
-0.106209
-0.0840484
-0.0619823
-0.0403601
-0.0194627
0.000501395
0.0193708
0.037037
0.0534288
0.0685054
0.0822571
0.0946892
0.10582
0.11568
0.124315
0.131767
0.138091
0.143338
0.14756
0.150814
0.153154
0.154629
0.15529
0.155192
0.154379
0.15289
0.150774
0.148073
0.144826
0.141069
0.136839
0.132166
0.127081
0.121621
0.11581
0.109676
0.103245
0.0965435
0.0895908
0.0824132
0.0750205
0.0674389
0.0596734
0.05173
0.0436292
0.0352334
0.0267001
0.0175516
0.00865425
0.00338171
1.32312
1.17894
1.14353
1.09944
1.05496
1.01503
0.973817
0.931903
0.888331
0.84271
0.794829
0.744453
0.691496
0.635982
0.578017
0.517757
0.455513
0.391626
0.326618
0.261068
0.195711
0.131356
0.0689073
0.00932857
-0.0463637
-0.0972522
-0.142388
-0.181067
-0.212665
-0.236905
-0.253655
-0.263139
-0.265753
-0.262123
-0.253008
-0.239256
-0.22175
-0.201349
-0.17886
-0.15502
-0.130466
-0.105743
-0.0812996
-0.0574962
-0.0346111
-0.0128524
0.00762813
0.0267329
0.0444059
0.0606144
0.0753609
0.0886705
0.100571
0.111112
0.120339
0.128309
0.135086
0.140727
0.145297
0.148849
0.15145
0.153151
0.154011
0.154081
0.153412
0.152053
0.150049
0.147446
0.144282
0.140597
0.136432
0.131818
0.126785
0.121367
0.115592
0.109492
0.103092
0.0964165
0.0894833
0.0823233
0.0749462
0.0673834
0.0596343
0.0517003
0.0436024
0.0352349
0.026671
0.017498
0.00864358
0.00337876
1.31286
1.16866
1.13319
1.08901
1.04433
1.00412
0.96252
0.920074
0.875815
0.829312
0.780327
0.728612
0.674129
0.616824
0.556824
0.4943
0.42955
0.36298
0.295105
0.226592
0.158212
0.0908501
0.0255279
-0.0367247
-0.0947779
-0.147612
-0.194187
-0.233709
-0.265544
-0.289365
-0.305082
-0.312957
-0.31346
-0.307318
-0.295392
-0.278639
-0.258031
-0.234517
-0.208975
-0.182192
-0.154852
-0.127521
-0.100669
-0.0746601
-0.0497742
-0.0262118
-0.0041161
0.0164326
0.0353879
0.0527321
0.0684826
0.0826721
0.0953453
0.106559
0.116379
0.124867
0.132095
0.138129
0.143041
0.146892
0.149749
0.151673
0.152725
0.152968
0.152448
0.151218
0.149327
0.14682
0.14374
0.14013
0.136031
0.13147
0.126483
0.121107
0.11537
0.109302
0.102929
0.0962785
0.0893703
0.0822316
0.0748763
0.0673317
0.0595913
0.0516752
0.0435856
0.0352429
0.026701
0.0175042
0.00862606
0.00335834
1.30336
1.15911
1.12354
1.07923
1.03432
0.993788
0.951729
0.908689
0.863657
0.816212
0.766057
0.712973
0.656875
0.597725
0.535633
0.470773
0.403472
0.334133
0.263347
0.191786
0.120319
0.0499112
-0.0183557
-0.083312
-0.14375
-0.198513
-0.246491
-0.286825
-0.318812
-0.342138
-0.356722
-0.362885
-0.361187
-0.352448
-0.337637
-0.317817
-0.294061
-0.267402
-0.238791
-0.209065
-0.178939
-0.149017
-0.119773
-0.0915763
-0.064706
-0.0393562
-0.0156585
0.00631399
0.0265301
0.044992
0.0617241
0.0767765
0.0902068
0.102088
0.112489
0.121486
0.129159
0.135577
0.140821
0.144962
0.148075
0.150223
0.151472
0.151879
0.151502
0.150398
0.148617
0.146204
0.143205
0.139666
0.135627
0.131123
0.126188
0.120856
0.115155
0.10912
0.102778
0.0961519
0.0892615
0.0821415
0.0747984
0.0672665
0.0595425
0.0516384
0.0435677
0.0352262
0.0267145
0.0175081
0.00860727
0.00336512
1.29458
1.1503
1.11459
1.07011
1.02491
0.984002
0.941435
0.897768
0.851937
0.803514
0.752181
0.697699
0.63998
0.578965
0.514772
0.447576
0.377699
0.305605
0.231871
0.157283
0.0827168
0.00925138
-0.061934
-0.129582
-0.192367
-0.249021
-0.29835
-0.339422
-0.371506
-0.394257
-0.407645
-0.412042
-0.408091
-0.396723
-0.379013
-0.356132
-0.329245
-0.29947
-0.267828
-0.235197
-0.202337
-0.169869
-0.138284
-0.107955
-0.0791563
-0.0520744
-0.0268291
-0.00347646
0.0179651
0.0375059
0.0551941
0.0710852
0.0852515
0.0977737
0.108733
0.118222
0.126321
0.133112
0.138686
0.143111
0.146463
0.14882
0.15025
0.150821
0.150583
0.149601
0.147929
0.145608
0.142692
0.139224
0.135246
0.130792
0.125901
0.120608
0.114941
0.108934
0.102616
0.0960154
0.0891496
0.0820487
0.0747244
0.067207
0.0594955
0.0515992
0.0435321
0.0352005
0.0266707
0.0174666
0.00860631
0.00338356
1.28658
1.14222
1.10637
1.0617
1.01621
0.974906
0.931836
0.8875
0.840873
0.791448
0.738932
0.68306
0.623733
0.56088
0.494606
0.425096
0.352695
0.277863
0.201256
0.123663
0.0460697
-0.0303836
-0.104435
-0.174691
-0.239743
-0.29819
-0.348788
-0.390503
-0.422593
-0.444702
-0.456839
-0.459439
-0.45324
-0.439268
-0.41871
-0.392838
-0.362908
-0.33012
-0.295549
-0.260126
-0.224641
-0.189737
-0.155914
-0.123544
-0.0929007
-0.0641622
-0.0374364
-0.0127695
0.00983292
0.0304028
0.0489952
0.0656844
0.0805445
0.0936747
0.105169
0.115122
0.123628
0.13077
0.136645
0.141337
0.144927
0.147488
0.149099
0.149821
0.149717
0.148849
0.147275
0.145042
0.142201
0.138797
0.134875
0.130473
0.125628
0.120375
0.114745
0.108769
0.102476
0.0958967
0.0890462
0.0819645
0.0746552
0.0671513
0.0594486
0.0515665
0.0435132
0.0351845
0.0266766
0.0174598
0.00859339
0.00338213
1.27934
1.13493
1.09892
1.05406
1.00825
0.966562
0.922942
0.877995
0.830524
0.780163
0.726514
0.669282
0.608403
0.543768
0.475493
0.403761
0.328918
0.25148
0.172084
0.0916334
0.0111146
-0.0681914
-0.144974
-0.217707
-0.284879
-0.345008
-0.396753
-0.439026
-0.47105
-0.492477
-0.503358
-0.504189
-0.495799
-0.479317
-0.456031
-0.427305
-0.394484
-0.358844
-0.321505
-0.283445
-0.245488
-0.208293
-0.172367
-0.138085
-0.105717
-0.0754325
-0.0473278
-0.0214336
0.00226345
0.0237968
0.0432334
0.0606597
0.0761727
0.0898695
0.101856
0.112242
0.12112
0.128588
0.134753
0.139694
0.1435
0.146253
0.148023
0.148884
0.148903
0.148146
0.146664
0.144511
0.141741
0.1384
0.134536
0.130181
0.125374
0.120153
0.114553
0.108605
0.102336
0.0957752
0.0889443
0.0818774
0.0745802
0.0670875
0.0593986
0.051526
0.043485
0.0351633
0.0267122
0.0175121
0.00856393
0.00335509
1.27293
1.12845
1.09227
1.04723
1.00112
0.959033
0.914942
0.869349
0.82115
0.769864
0.715099
0.656615
0.594268
0.527965
0.457802
0.383976
0.306845
0.226934
0.144947
0.0617963
-0.0214359
-0.103419
-0.18274
-0.257751
-0.326888
-0.388517
-0.441275
-0.483981
-0.515873
-0.536586
-0.546232
-0.545362
-0.534903
-0.516066
-0.490235
-0.458864
-0.423369
-0.385093
-0.345208
-0.304729
-0.264505
-0.225213
-0.187366
-0.15134
-0.117397
-0.0856979
-0.0563321
-0.0293186
-0.00464051
0.0177646
0.0379724
0.0560769
0.0721779
0.0863901
0.0988304
0.10961
0.118836
0.126605
0.133025
0.138194
0.142198
0.145119
0.147045
0.148038
0.148167
0.147505
0.146109
0.144031
0.141325
0.138041
0.134223
0.12991
0.125141
0.119956
0.114386
0.108462
0.102213
0.0956708
0.0888577
0.0818088
0.0745223
0.0670431
0.059361
0.0514941
0.0434551
0.0351392
0.0266317
0.0174251
0.00858669
0.003395
1.26734
1.12281
1.08648
1.04125
0.99487
0.952423
0.907853
0.861704
0.812769
0.760666
0.704941
0.645271
0.581585
0.513754
0.441875
0.366142
0.286927
0.204789
0.120421
0.0348326
-0.0508856
-0.13527
-0.216873
-0.293927
-0.364794
-0.42776
-0.481366
-0.52442
-0.55613
-0.576146
-0.584627
-0.582188
-0.569833
-0.548858
-0.520728
-0.486973
-0.449083
-0.408456
-0.3663
-0.323666
-0.281423
-0.24026
-0.200699
-0.163116
-0.127771
-0.0948166
-0.064327
-0.0363163
-0.0107503
0.0124312
0.0333214
0.0520275
0.0686589
0.0833283
0.0961639
0.10729
0.116815
0.124848
0.131499
0.136866
0.141042
0.144116
0.146168
0.147276
0.14751
0.146936
0.145614
0.1436
0.140952
0.137718
0.133945
0.129671
0.124934
0.119774
0.114228
0.108329
0.102099
0.0955736
0.0887727
0.0817319
0.074458
0.0669884
0.0593144
0.051456
0.0434222
0.0351109
0.0266195
0.0174272
0.00858451
0.00338894
1.26263
1.11804
1.08157
1.0362
0.989553
0.946786
0.901808
0.855154
0.805599
0.752777
0.696154
0.635466
0.570603
0.50143
0.428036
0.350635
0.269591
0.185476
0.0990403
0.0113083
-0.076556
-0.163049
-0.246649
-0.325453
-0.397821
-0.46188
-0.516188
-0.559475
-0.590982
-0.61034
-0.617767
-0.613928
-0.599907
-0.577065
-0.54694
-0.511127
-0.471165
-0.428506
-0.384392
-0.339901
-0.295922
-0.253155
-0.212125
-0.17321
-0.136663
-0.102628
-0.0711779
-0.0423138
-0.0159979
0.00785121
0.0293246
0.048539
0.0656151
0.0806802
0.0938619
0.105284
0.115071
0.123334
0.130186
0.135727
0.140055
0.143259
0.145425
0.14663
0.146948
0.146449
0.145194
0.143238
0.140639
0.137447
0.13371
0.129469
0.124759
0.119626
0.114102
0.108219
0.102004
0.0954933
0.0887057
0.0816798
0.0744161
0.0669553
0.059288
0.0514361
0.043412
0.0350977
0.0266341
0.0174315
0.00856422
0.00337912
1.25882
1.11419
1.07761
1.03208
0.985238
0.942197
0.896888
0.849797
0.799737
0.746265
0.688905
0.627377
0.561527
0.491236
0.416588
0.337789
0.255218
0.169473
0.0812982
-0.00820586
-0.0978832
-0.186107
-0.271348
-0.351605
-0.425184
-0.490146
-0.544956
-0.588407
-0.619711
-0.638493
-0.645026
-0.640016
-0.624605
-0.600213
-0.568439
-0.530927
-0.489267
-0.444943
-0.399227
-0.353216
-0.307813
-0.263728
-0.221492
-0.18148
-0.143943
-0.109026
-0.0767886
-0.0472253
-0.0202848
0.00410833
0.0260613
0.0456971
0.0631455
0.0785349
0.0919939
0.103657
0.113654
0.122103
0.129117
0.134797
0.139246
0.142555
0.144811
0.146101
0.146492
0.146052
0.144847
0.142936
0.140375
0.137216
0.133509
0.12929
0.124607
0.119495
0.11399
0.108127
0.101925
0.0954249
0.0886488
0.0816289
0.0743727
0.0669147
0.0592541
0.0514061
0.0433819
0.0350816
0.0265973
0.0173983
0.00856645
0.00339489
1.25592
1.11129
1.07461
1.02896
0.981951
0.938709
0.893126
0.845721
0.795237
0.741293
0.683369
0.621165
0.554558
0.483396
0.407766
0.327886
0.244132
0.157111
0.0676007
-0.0232813
-0.114343
-0.203908
-0.290424
-0.371762
-0.446332
-0.511878
-0.567048
-0.610603
-0.641753
-0.660068
-0.665892
-0.659969
-0.643481
-0.617898
-0.58486
-0.546048
-0.503086
-0.45749
-0.410547
-0.363375
-0.316884
-0.271794
-0.228638
-0.187792
-0.149504
-0.11391
-0.0810727
-0.0509722
-0.0235572
0.00125209
0.0235685
0.0435238
0.0612486
0.0768827
0.0905601
0.102413
0.112571
0.121158
0.128297
0.134085
0.138627
0.142016
0.144345
0.145692
0.146136
0.145744
0.14458
0.142706
0.140178
0.137047
0.133361
0.129169
0.1245
0.119402
0.113912
0.108056
0.101864
0.0953726
0.0886029
0.0815939
0.0743416
0.066894
0.0592389
0.0513972
0.0433735
0.0350716
0.0266058
0.0174076
0.00855742
0.00337487
1.25399
1.10933
1.07259
1.02687
0.979747
0.936351
0.890579
0.842959
0.792158
0.737924
0.679624
0.616954
0.549825
0.478075
0.401785
0.321165
0.236602
0.148723
0.0582914
-0.0335203
-0.125551
-0.21601
-0.303418
-0.38548
-0.460802
-0.526737
-0.581964
-0.625534
-0.656654
-0.674652
-0.68
-0.673452
-0.656234
-0.629841
-0.595946
-0.556254
-0.512413
-0.465959
-0.418191
-0.370234
-0.323011
-0.277243
-0.233464
-0.192053
-0.153255
-0.117207
-0.0839658
-0.0534991
-0.0257621
-0.000672397
0.0218887
0.042056
0.0599715
0.0757708
0.0895897
0.101567
0.111838
0.120523
0.127743
0.133606
0.138211
0.141655
0.14403
0.145424
0.145907
0.145545
0.144405
0.142553
0.140044
0.136927
0.133259
0.129074
0.12442
0.119338
0.113855
0.108007
0.101822
0.0953375
0.0885755
0.0815688
0.0743206
0.0668702
0.0592174
0.051375
0.043359
0.0350593
0.0265951
0.0174063
0.00857144
0.00341065
1.25302
1.10834
1.07157
1.02582
0.978644
0.93517
0.889328
0.84156
0.790675
0.736217
0.677699
0.614839
0.547433
0.475383
0.398749
0.317755
0.232781
0.14446
0.0535695
-0.0387195
-0.131221
-0.222139
-0.309993
-0.392438
-0.468166
-0.534438
-0.589399
-0.632955
-0.664139
-0.681991
-0.687099
-0.68024
-0.662651
-0.635852
-0.601525
-0.561392
-0.517108
-0.470219
-0.422034
-0.373684
-0.326092
-0.279982
-0.235893
-0.194201
-0.155151
-0.118873
-0.0854564
-0.0547979
-0.0268474
-0.00161936
0.021047
0.0413248
0.0593355
0.0752154
0.0891067
0.10115
0.111475
0.120203
0.127464
0.133362
0.138002
0.141473
0.143871
0.14528
0.145781
0.145436
0.144312
0.142471
0.139974
0.136871
0.133207
0.129031
0.124383
0.119304
0.113825
0.107978
0.101801
0.0953234
0.0885635
0.0815592
0.074309
0.0668644
0.0592134
0.0513741
0.0433525
0.0350551
0.026573
0.0173674
0.00856116
0.00340311
1.25303
1.10834
1.07157
1.02582
0.978644
0.935171
0.889323
0.841556
0.790675
0.736221
0.677697
0.614843
0.547437
0.475386
0.398756
0.317762
0.232795
0.144473
0.0535771
-0.0387037
-0.131213
-0.222127
-0.309985
-0.392427
-0.468173
-0.534422
-0.589378
-0.632958
-0.664126
-0.68198
-0.687089
-0.680228
-0.662641
-0.635842
-0.601516
-0.561384
-0.517101
-0.470212
-0.422027
-0.373677
-0.326085
-0.279976
-0.235883
-0.19419
-0.155139
-0.118864
-0.0854481
-0.0547945
-0.0268477
-0.00161886
0.0210487
0.041322
0.0593294
0.0752091
0.0891023
0.101143
0.111468
0.120201
0.127463
0.13336
0.137998
0.141472
0.143872
0.145284
0.145783
0.145442
0.144317
0.142477
0.139979
0.136871
0.133208
0.129032
0.124385
0.119305
0.113826
0.107981
0.1018
0.0953203
0.088562
0.0815556
0.0743099
0.0668619
0.0592081
0.0513672
0.0433515
0.0350547
0.0265808
0.0173939
0.0085656
0.0033985
1.254
1.10933
1.07259
1.02687
0.979757
0.93636
0.890603
0.842972
0.792163
0.737937
0.679648
0.616972
0.549834
0.478085
0.401787
0.321171
0.236606
0.148728
0.0582984
-0.0335135
-0.125529
-0.215984
-0.303395
-0.385436
-0.460773
-0.526662
-0.581911
-0.625541
-0.656615
-0.674618
-0.679962
-0.673416
-0.656196
-0.629807
-0.595914
-0.556227
-0.512391
-0.465936
-0.418169
-0.370214
-0.322995
-0.27723
-0.233454
-0.192044
-0.153249
-0.117202
-0.0839602
-0.0534942
-0.0257556
-0.000666194
0.0218955
0.0420646
0.0599807
0.0757835
0.0896039
0.10158
0.111848
0.12053
0.127748
0.133606
0.138209
0.141652
0.144031
0.145419
0.145899
0.145539
0.144402
0.14255
0.140041
0.136929
0.133257
0.129072
0.124416
0.119332
0.11385
0.108
0.101821
0.0953404
0.0885781
0.0815724
0.074321
0.0668745
0.0592159
0.0513764
0.0433545
0.0350579
0.0265739
0.0173726
0.00856498
0.0033954
1.25594
1.11129
1.07462
1.02897
0.981962
0.938714
0.89314
0.845715
0.795267
0.741301
0.683364
0.62119
0.554573
0.483411
0.407788
0.327906
0.244159
0.157143
0.0676276
-0.0232447
-0.114311
-0.203856
-0.290382
-0.371706
-0.446284
-0.51181
-0.566993
-0.610559
-0.641686
-0.660011
-0.665835
-0.659913
-0.643425
-0.617845
-0.584811
-0.546003
-0.503044
-0.457453
-0.410513
-0.363345
-0.316858
-0.271771
-0.228615
-0.187771
-0.149483
-0.113891
-0.0810553
-0.0509579
-0.0235433
0.00126371
0.0235781
0.0435298
0.0612537
0.0768877
0.090563
0.102412
0.112573
0.121163
0.128296
0.134083
0.138625
0.142017
0.144345
0.145693
0.146137
0.14575
0.144587
0.142711
0.140182
0.137048
0.13336
0.129162
0.124495
0.1194
0.11391
0.108052
0.101862
0.0953753
0.088606
0.0815909
0.0743398
0.0668872
0.0592303
0.0513816
0.0433604
0.0350571
0.0265632
0.0173736
0.00858318
0.0034274
1.25882
1.11421
1.07762
1.03209
0.985253
0.942205
0.896911
0.849804
0.799754
0.746283
0.688931
0.627416
0.561551
0.491262
0.416611
0.337819
0.255249
0.169501
0.0813347
-0.00817332
-0.0978282
-0.186054
-0.271285
-0.351538
-0.425112
-0.49006
-0.544878
-0.588329
-0.619625
-0.638408
-0.64494
-0.639933
-0.624525
-0.600139
-0.56837
-0.530864
-0.489209
-0.44489
-0.39918
-0.353174
-0.307778
-0.263699
-0.221466
-0.181457
-0.143923
-0.109006
-0.0767702
-0.0472066
-0.0202669
0.00412472
0.0260755
0.0457078
0.0631527
0.0785435
0.0920057
0.10367
0.113666
0.122112
0.129125
0.134802
0.139249
0.142554
0.144811
0.146099
0.146488
0.146047
0.144843
0.142935
0.140376
0.137217
0.133507
0.129293
0.124607
0.119495
0.113987
0.108119
0.101922
0.0954251
0.0886485
0.0816335
0.0743732
0.0669167
0.0592518
0.0514073
0.0433829
0.0350784
0.0266212
0.0174123
0.00856227
0.00338455
1.26264
1.11806
1.0816
1.0362
0.98957
0.946796
0.901827
0.855153
0.805624
0.752783
0.69617
0.635509
0.570633
0.501459
0.428074
0.350671
0.269636
0.18553
0.0990879
0.0113706
-0.0764958
-0.16297
-0.246568
-0.325371
-0.397727
-0.461782
-0.516081
-0.55938
-0.590872
-0.610235
-0.617664
-0.613832
-0.599811
-0.576972
-0.546853
-0.511046
-0.47109
-0.42844
-0.384334
-0.339854
-0.29588
-0.253118
-0.212091
-0.173178
-0.136631
-0.1026
-0.0711512
-0.0422866
-0.0159706
0.00787262
0.0293464
0.0485597
0.065633
0.0806961
0.0938759
0.105297
0.115079
0.12334
0.130186
0.135724
0.140053
0.143259
0.145425
0.146631
0.14695
0.146454
0.145197
0.143241
0.140644
0.137448
0.133706
0.129461
0.124752
0.11962
0.114097
0.108215
0.102005
0.0954937
0.0887037
0.0816767
0.0744128
0.0669482
0.0592797
0.051424
0.0433946
0.0350829
0.0265843
0.0173887
0.0085876
0.00342053
1.26736
1.12284
1.08649
1.04126
0.994891
0.952432
0.907885
0.861709
0.812808
0.760697
0.704953
0.645318
0.581619
0.513792
0.441915
0.36619
0.286984
0.204834
0.120485
0.0348908
-0.0507976
-0.13519
-0.216779
-0.293834
-0.364688
-0.427646
-0.48125
-0.524299
-0.556006
-0.576018
-0.584504
-0.582068
-0.569717
-0.548749
-0.520627
-0.486881
-0.448997
-0.408375
-0.366228
-0.323601
-0.281366
-0.240208
-0.200653
-0.163077
-0.127733
-0.0947822
-0.064295
-0.0362849
-0.0107251
0.0124543
0.0333408
0.0520389
0.0686643
0.0833342
0.0961714
0.107294
0.116819
0.124857
0.131513
0.136876
0.141049
0.144118
0.14617
0.147279
0.147511
0.146935
0.145614
0.143605
0.140958
0.137721
0.133944
0.129671
0.124935
0.119776
0.114227
0.108324
0.102098
0.095575
0.0887742
0.0817361
0.0744591
0.0669865
0.0593102
0.0514578
0.0434239
0.0351104
0.0266398
0.017445
0.00857035
0.00336124
1.27294
1.12848
1.09229
1.04724
1.00114
0.95905
0.914952
0.869361
0.821155
0.769885
0.715143
0.656664
0.594311
0.528005
0.457851
0.384032
0.306909
0.227008
0.145017
0.0618814
-0.0213462
-0.103315
-0.182627
-0.257635
-0.326754
-0.388387
-0.441131
-0.483843
-0.515729
-0.536445
-0.546092
-0.545228
-0.534773
-0.515944
-0.490121
-0.458758
-0.423269
-0.385004
-0.345128
-0.30466
-0.264444
-0.225158
-0.187315
-0.151295
-0.117357
-0.0856629
-0.0562986
-0.029285
-0.00460645
0.0177953
0.0380015
0.0561035
0.0722045
0.0864201
0.0988567
0.109626
0.118843
0.126612
0.133031
0.138194
0.142196
0.14512
0.147041
0.148034
0.148168
0.147509
0.146113
0.144036
0.141333
0.138048
0.134225
0.129909
0.125139
0.11995
0.11438
0.108456
0.102209
0.0956681
0.088855
0.0818027
0.074514
0.0670327
0.0593483
0.0514868
0.0434415
0.0351323
0.0266402
0.0174322
0.00857824
0.00336516
1.27937
1.13496
1.09893
1.05409
1.00828
0.966574
0.922984
0.878
0.830569
0.780195
0.726536
0.669334
0.608448
0.543821
0.475553
0.403817
0.328995
0.251541
0.172176
0.0917105
0.0112234
-0.0680913
-0.144854
-0.217581
-0.284746
-0.34487
-0.396605
-0.438869
-0.470894
-0.492315
-0.5032
-0.504032
-0.495653
-0.479183
-0.455906
-0.427189
-0.394377
-0.358741
-0.321411
-0.28336
-0.245412
-0.208224
-0.172305
-0.138033
-0.105673
-0.0753924
-0.0472854
-0.0213932
0.00229485
0.0238255
0.0432605
0.0606841
0.0761916
0.0898858
0.101872
0.11225
0.121127
0.1286
0.134764
0.139702
0.143506
0.146254
0.148024
0.148885
0.148906
0.148147
0.146665
0.144516
0.141747
0.138406
0.134538
0.130185
0.125377
0.120156
0.114552
0.108604
0.102333
0.0957747
0.0889434
0.081877
0.0745785
0.0670843
0.0593928
0.0515165
0.0434787
0.0351376
0.0266538
0.0174625
0.00859255
0.00339981
1.28659
1.14225
1.10641
1.06173
1.01623
0.974939
0.931854
0.887534
0.840893
0.791488
0.738972
0.683113
0.623783
0.560929
0.494663
0.42516
0.352764
0.27795
0.201351
0.123773
0.0461868
-0.0302616
-0.104299
-0.174554
-0.239585
-0.298033
-0.348621
-0.390336
-0.422423
-0.44453
-0.456673
-0.459275
-0.453082
-0.439121
-0.418574
-0.392714
-0.362793
-0.330015
-0.295453
-0.260039
-0.224558
-0.189661
-0.155845
-0.123485
-0.0928485
-0.0641161
-0.0373958
-0.0127303
0.00987053
0.0304383
0.0490299
0.0657177
0.080578
0.0937055
0.105193
0.11514
0.123638
0.130778
0.13665
0.141341
0.14493
0.147489
0.149098
0.149821
0.149718
0.148854
0.147279
0.145049
0.142213
0.13881
0.134882
0.130477
0.125628
0.120373
0.114743
0.108764
0.10247
0.0958908
0.0890413
0.0819579
0.074643
0.0671375
0.0594351
0.0515532
0.0434932
0.0351674
0.0266467
0.0174251
0.00859876
0.00339209
1.29462
1.15032
1.11459
1.07015
1.02494
0.984035
0.941473
0.897795
0.851974
0.803558
0.752223
0.697751
0.640034
0.579022
0.51484
0.44764
0.377794
0.30568
0.231982
0.157381
0.0828438
0.0093799
-0.061795
-0.129436
-0.192211
-0.248854
-0.29818
-0.339244
-0.371327
-0.394073
-0.407466
-0.411863
-0.407924
-0.396566
-0.378866
-0.355995
-0.32912
-0.299354
-0.267721
-0.235099
-0.20225
-0.16979
-0.138214
-0.107894
-0.0791027
-0.0520279
-0.026783
-0.0034338
0.0180028
0.0375453
0.0552322
0.0711196
0.0852796
0.0977973
0.108756