/*--------------------------------*- C++ -*----------------------------------*\
  =========                 |
  \\      /  F ield         | OpenFOAM: The Open Source CFD Toolbox
   \\    /   O peration     | Website:  https://openfoam.org
    \\  /    A nd           | Version:  11
     \\/     M anipulation  |
\*---------------------------------------------------------------------------*/
FoamFile
{
    format      ascii;
    class       volScalarField;
    location    "0.012";
    object      nut;
}
// * * * * * * * * * * * * * * * * * * * * * * * * * * * * * * * * * * * * * //

dimensions      [0 2 -1 0 0 0 0];

internalField   nonuniform List<scalar> 
287084
(
0.000836539
0.000844872
0.000846284
0.000846438
0.000846501
0.000846437
0.000846255
0.000846352
0.000846522
0.000846402
0.00084635
0.000846025
0.000846011
0.000846422
0.000846633
0.000846524
0.000846495
0.000846353
0.000846225
0.00084601
0.000845888
0.00084586
0.00084584
0.000845822
0.000845557
0.000845647
0.000845862
0.000845768
0.000845774
0.000845467
0.000845686
0.000845811
0.000845495
0.0008458
0.00084599
0.000845698
0.000845747
0.000846258
0.000846401
0.000846307
0.00084642
0.000846497
0.000846359
0.000846578
0.000846735
0.000846426
0.000846707
0.000846853
0.000846781
0.000846798
0.000846601
0.00084657
0.000846954
0.0008471
0.000846975
0.000847017
0.00084697
0.000846776
0.000846737
0.000847202
0.000847249
0.000847008
0.000847129
0.000847198
0.000847136
0.000847124
0.000847157
0.000847074
0.000847005
0.000846769
0.00084673
0.000847206
0.000847341
0.00084721
0.00084721
0.000847162
0.000847149
0.000847057
0.000847047
0.000847066
0.000846861
0.00084676
0.00084664
0.000846845
0.000847053
0.000846771
0.000846897
0.000846927
0.000846851
0.000846643
0.00118234
0.00119375
0.001196
0.00119623
0.00119611
0.00119612
0.00119597
0.00119581
0.00119568
0.0011955
0.00119537
0.00119488
0.00119497
0.00119501
0.00119442
0.00119469
0.0011948
0.00119429
0.00119447
0.00119528
0.00119534
0.00119516
0.00119514
0.00119497
0.00119483
0.0011946
0.00119447
0.00119447
0.00119451
0.00119448
0.00119448
0.00119426
0.0011946
0.00119485
0.00119449
0.00119494
0.00119541
0.00119536
0.0011955
0.00119542
0.00119551
0.0011953
0.00119559
0.00119593
0.00119583
0.00119588
0.00119546
0.00119575
0.00119593
0.00119545
0.00119586
0.00119629
0.0011963
0.00119627
0.00119627
0.00119648
0.00119638
0.00119636
0.00119638
0.00119642
0.00119612
0.00119619
0.00119666
0.00119666
0.00119654
0.00119654
0.00119656
0.00119628
0.00119618
0.0011967
0.00119678
0.00119653
0.00119651
0.00119651
0.00119665
0.00119654
0.00119642
0.00119631
0.00119623
0.00119592
0.00119605
0.0011963
0.00119619
0.00119629
0.00119611
0.00119599
0.00119575
0.00119606
0.00119621
0.00119562
0.00118239
0.00119385
0.00119606
0.00119629
0.00119616
0.00119603
0.00119588
0.00119577
0.00119578
0.0011955
0.00119533
0.00119527
0.00119491
0.00119499
0.00119518
0.001195
0.0011949
0.00119443
0.0011944
0.001195
0.00119515
0.00119502
0.00119499
0.00119482
0.00119463
0.00119429
0.00119437
0.00119477
0.00119475
0.00119464
0.0011949
0.00119503
0.00119486
0.00119527
0.00119545
0.00119541
0.00119578
0.00119592
0.00119589
0.00119598
0.00119607
0.0011962
0.0011961
0.00119606
0.00119609
0.00119621
0.00119607
0.00119601
0.00119607
0.00119582
0.001196
0.00119629
0.00119631
0.00119628
0.00119637
0.00119645
0.00119612
0.00119631
0.00119638
0.00119609
0.00119612
0.00119673
0.00119695
0.00119684
0.00119685
0.00119668
0.00119654
0.00119637
0.00119647
0.00119648
0.00119622
0.00119621
0.00119619
0.00119625
0.00119592
0.00119587
0.00119653
0.00119672
0.00119663
0.00119661
0.00119648
0.00119646
0.00119649
0.00119616
0.00119621
0.00119626
0.00119606
0.00119611
0.0011961
0.00119573
0.00118242
0.00119391
0.00119612
0.00119647
0.00119647
0.00119645
0.00119626
0.00119607
0.00119601
0.00119586
0.00119569
0.00119556
0.00119555
0.00119524
0.00119506
0.00119498
0.00119461
0.00119447
0.00119506
0.00119507
0.00119469
0.00119459
0.00119448
0.00119445
0.00119441
0.00119446
0.00119414
0.00119435
0.00119452
0.00119452
0.00119457
0.00119422
0.00119465
0.00119487
0.00119459
0.00119499
0.00119542
0.00119549
0.00119567
0.00119567
0.00119562
0.0011956
0.00119571
0.00119583
0.00119588
0.00119584
0.00119562
0.00119605
0.00119628
0.00119626
0.00119622
0.00119622
0.00119644
0.00119634
0.00119645
0.00119648
0.00119649
0.00119639
0.00119627
0.00119617
0.00119607
0.00119648
0.00119706
0.00119698
0.00119685
0.00119685
0.00119668
0.00119654
0.00119652
0.00119625
0.00119633
0.00119653
0.00119652
0.00119649
0.00119655
0.0011966
0.00119652
0.00119633
0.00119621
0.00119636
0.00119631
0.00119645
0.00119632
0.00119615
0.00119615
0.00119613
0.00119617
0.00119615
0.00119599
0.00119562
0.00118243
0.00119394
0.00119616
0.0011965
0.00119651
0.00119632
0.00119613
0.00119599
0.00119582
0.00119569
0.00119568
0.00119538
0.00119521
0.00119508
0.00119488
0.00119467
0.00119447
0.00119432
0.00119475
0.00119526
0.00119515
0.00119513
0.00119496
0.00119462
0.00119443
0.00119441
0.00119425
0.00119452
0.00119464
0.00119426
0.00119458
0.00119509
0.00119513
0.00119519
0.00119517
0.00119526
0.0011954
0.00119549
0.00119565
0.00119555
0.00119555
0.00119572
0.00119591
0.00119587
0.00119556
0.0011958
0.00119615
0.00119618
0.00119617
0.00119628
0.00119638
0.00119598
0.00119628
0.00119657
0.00119652
0.0011966
0.00119653
0.00119638
0.00119629
0.00119613
0.00119607
0.00119657
0.00119666
0.0011963
0.00119646
0.00119649
0.00119624
0.00119636
0.00119664
0.00119651
0.00119652
0.00119656
0.0011966
0.00119653
0.00119641
0.00119631
0.0011962
0.00119617
0.00119623
0.0011959
0.00119586
0.00119643
0.00119644
0.00119634
0.0011963
0.00119632
0.00119637
0.0011963
0.00119628
0.00119575
0.00118243
0.00119384
0.00119564
0.00119556
0.00119552
0.00119519
0.00119545
0.00119556
0.0011953
0.00119531
0.0011951
0.00119547
0.00119569
0.00119554
0.0011955
0.00119532
0.00119499
0.0011948
0.00119473
0.00119466
0.0011946
0.00119419
0.00119425
0.0011943
0.00119383
0.00119415
0.00119451
0.0011945
0.00119448
0.00119451
0.00119476
0.00119488
0.00119499
0.00119499
0.00119509
0.00119475
0.00119505
0.00119529
0.00119497
0.00119548
0.00119576
0.00119553
0.00119599
0.0011962
0.00119604
0.00119642
0.00119658
0.00119638
0.00119641
0.00119647
0.00119623
0.00119633
0.00119639
0.00119637
0.00119638
0.00119591
0.00119614
0.00119642
0.0011963
0.00119629
0.00119589
0.00119613
0.00119641
0.00119629
0.00119627
0.00119587
0.0011959
0.00119652
0.00119704
0.00119696
0.00119684
0.00119684
0.00119683
0.00119669
0.00119658
0.00119639
0.00119652
0.00119655
0.00119648
0.00119652
0.00119642
0.00119636
0.00119625
0.00119613
0.00119604
0.0011961
0.00119622
0.00119601
0.00119586
0.00119563
0.00118243
0.00119404
0.00119571
0.0011956
0.00119567
0.00119544
0.00119527
0.0011952
0.0011951
0.00119538
0.00119605
0.0011961
0.00119604
0.00119596
0.00119588
0.0011958
0.00119572
0.00119562
0.00119539
0.00119519
0.00119502
0.00119484
0.00119471
0.00119453
0.00119435
0.00119417
0.00119419
0.00119455
0.00119467
0.00119472
0.0011946
0.00119489
0.00119506
0.00119492
0.00119535
0.00119556
0.00119555
0.0011958
0.00119596
0.00119621
0.00119631
0.00119628
0.00119635
0.00119647
0.00119635
0.0011963
0.00119637
0.0011963
0.0011963
0.00119619
0.00119612
0.00119612
0.00119603
0.00119591
0.00119631
0.0011965
0.00119634
0.00119632
0.00119592
0.00119615
0.00119643
0.0011963
0.0011964
0.00119624
0.00119613
0.00119586
0.00119613
0.00119642
0.00119616
0.00119609
0.00119595
0.00119586
0.00119615
0.00119641
0.00119629
0.00119614
0.00119599
0.00119648
0.00119658
0.00119639
0.00119638
0.00119626
0.00119614
0.00119629
0.0011964
0.00119617
0.00119618
0.00119625
0.00119625
0.00119574
0.00118244
0.00119396
0.0011962
0.00119654
0.00119654
0.00119649
0.00119644
0.00119638
0.00119633
0.00119626
0.00119619
0.00119611
0.00119604
0.00119595
0.00119586
0.00119578
0.00119569
0.0011956
0.00119536
0.00119515
0.00119497
0.00119477
0.00119465
0.00119447
0.0011943
0.00119418
0.00119411
0.00119436
0.00119453
0.00119447
0.00119476
0.00119493
0.00119479
0.00119523
0.00119544
0.00119544
0.00119569
0.00119589
0.00119616
0.00119639
0.0011965
0.0011966
0.0011967
0.00119678
0.00119686
0.00119676
0.00119669
0.00119671
0.00119678
0.00119663
0.00119655
0.00119653
0.0011966
0.00119641
0.00119631
0.00119626
0.0011963
0.001196
0.00119594
0.00119651
0.00119694
0.00119687
0.00119689
0.00119672
0.00119658
0.0011964
0.00119648
0.00119649
0.00119625
0.00119623
0.00119621
0.00119627
0.00119594
0.0011961
0.00119638
0.00119624
0.00119622
0.00119581
0.00119605
0.00119633
0.00119632
0.00119631
0.00119603
0.00119603
0.00119576
0.0011959
0.00119627
0.00119627
0.00119627
0.00119574
0.00118246
0.00119397
0.00119563
0.00119559
0.00119554
0.00119532
0.00119521
0.00119513
0.00119542
0.00119611
0.00119616
0.0011961
0.00119602
0.00119594
0.00119584
0.00119575
0.00119566
0.00119555
0.00119531
0.00119511
0.0011949
0.00119469
0.0011946
0.00119442
0.00119424
0.00119412
0.00119404
0.00119428
0.00119448
0.00119442
0.00119472
0.0011949
0.00119476
0.00119522
0.00119544
0.00119544
0.00119571
0.00119592
0.00119619
0.00119643
0.00119641
0.00119636
0.00119647
0.00119637
0.00119632
0.00119639
0.0011965
0.0011962
0.0011963
0.00119637
0.00119613
0.00119618
0.00119622
0.00119598
0.00119617
0.00119649
0.00119636
0.00119634
0.00119594
0.00119618
0.00119645
0.00119633
0.00119631
0.00119591
0.00119614
0.00119642
0.0011964
0.0011964
0.00119611
0.00119611
0.00119583
0.00119591
0.00119667
0.00119676
0.00119653
0.00119652
0.00119623
0.00119621
0.00119647
0.00119653
0.0011966
0.00119654
0.00119644
0.00119634
0.00119627
0.00119612
0.0011958
0.00119605
0.0011962
0.00119561
0.00118243
0.00119409
0.00119564
0.00119525
0.00119548
0.00119557
0.00119507
0.00119532
0.0011956
0.00119541
0.00119531
0.00119483
0.00119499
0.00119518
0.00119497
0.00119485
0.00119435
0.0011945
0.0011947
0.00119449
0.00119441
0.00119423
0.00119394
0.00119404
0.00119427
0.00119424
0.0011942
0.0011943
0.00119442
0.00119414
0.00119461
0.00119486
0.00119477
0.00119504
0.001195
0.00119504
0.00119524
0.00119521
0.00119539
0.00119555
0.0011953
0.00119569
0.00119595
0.00119562
0.00119593
0.00119607
0.00119576
0.00119609
0.00119642
0.00119618
0.00119624
0.00119622
0.00119632
0.00119601
0.00119618
0.0011963
0.00119585
0.00119611
0.00119638
0.00119621
0.00119624
0.00119593
0.00119615
0.00119646
0.00119619
0.0011962
0.00119626
0.00119633
0.00119627
0.00119604
0.0011959
0.00119575
0.00119604
0.00119617
0.00119572
0.00119597
0.00119625
0.00119608
0.00119611
0.0011958
0.00119598
0.00119622
0.00119606
0.0011961
0.00119578
0.0011959
0.00119627
0.00119627
0.00119627
0.00119574
0.00118244
0.00119406
0.00119574
0.00119574
0.00119568
0.00119524
0.00119523
0.0011958
0.00119624
0.00119625
0.00119604
0.00119581
0.00119559
0.00119536
0.00119524
0.00119519
0.00119486
0.00119463
0.00119453
0.00119414
0.00119418
0.00119438
0.00119418
0.0011941
0.00119366
0.00119389
0.00119418
0.0011942
0.00119421
0.00119427
0.00119457
0.00119472
0.00119489
0.00119479
0.00119493
0.00119478
0.00119515
0.00119541
0.00119512
0.00119566
0.00119596
0.00119574
0.00119621
0.00119643
0.00119626
0.00119653
0.00119672
0.00119666
0.00119664
0.00119638
0.00119646
0.00119651
0.0011963
0.00119637
0.00119646
0.00119649
0.00119605
0.00119617
0.0011964
0.00119623
0.00119626
0.00119594
0.0011962
0.00119637
0.00119617
0.00119622
0.00119608
0.00119648
0.00119706
0.00119698
0.00119687
0.00119688
0.00119673
0.00119645
0.00119649
0.0011968
0.00119674
0.00119662
0.00119668
0.00119662
0.00119651
0.0011963
0.00119622
0.00119606
0.0011963
0.0011964
0.00119621
0.00119627
0.00119617
0.00119577
0.00118244
0.00119406
0.00119575
0.00119572
0.00119583
0.00119563
0.00119543
0.00119519
0.00119545
0.0011961
0.00119614
0.00119607
0.00119598
0.00119588
0.00119578
0.00119567
0.00119556
0.00119544
0.00119519
0.00119495
0.0011947
0.00119446
0.00119439
0.00119437
0.00119416
0.00119379
0.001194
0.00119417
0.0011938
0.00119407
0.00119423
0.00119399
0.00119446
0.00119477
0.00119451
0.00119509
0.00119544
0.00119527
0.0011958
0.00119607
0.00119595
0.00119639
0.00119658
0.00119641
0.00119647
0.00119656
0.00119633
0.00119644
0.00119649
0.00119632
0.00119632
0.00119593
0.00119605
0.00119643
0.00119637
0.00119633
0.0011963
0.00119633
0.00119624
0.00119627
0.00119634
0.00119641
0.00119636
0.00119601
0.00119612
0.00119656
0.00119631
0.0011965
0.00119654
0.0011963
0.00119631
0.00119599
0.00119618
0.00119629
0.00119609
0.00119614
0.001196
0.00119646
0.00119659
0.00119637
0.00119632
0.0011963
0.00119641
0.00119639
0.00119645
0.00119629
0.00119616
0.00119598
0.00119587
0.00119563
0.00118245
0.00119397
0.00119622
0.00119656
0.00119656
0.00119651
0.00119645
0.00119639
0.00119632
0.00119624
0.00119615
0.00119606
0.00119596
0.00119586
0.00119575
0.00119564
0.00119552
0.00119542
0.00119515
0.0011949
0.00119466
0.00119442
0.00119431
0.00119428
0.00119407
0.00119384
0.0011938
0.00119403
0.00119423
0.00119419
0.00119454
0.00119476
0.00119468
0.00119506
0.00119549
0.00119584
0.00119598
0.00119615
0.00119647
0.00119662
0.00119675
0.00119687
0.00119681
0.00119676
0.00119681
0.0011969
0.00119676
0.00119668
0.00119667
0.00119672
0.00119659
0.0011963
0.00119635
0.00119683
0.00119687
0.00119685
0.0011968
0.0011967
0.00119692
0.00119694
0.0011968
0.00119676
0.00119674
0.00119692
0.00119676
0.00119646
0.00119655
0.00119656
0.00119628
0.00119626
0.00119624
0.00119629
0.00119596
0.00119612
0.00119639
0.00119625
0.00119623
0.00119582
0.00119606
0.00119633
0.00119621
0.0011962
0.00119579
0.00119603
0.00119631
0.0011963
0.0011963
0.00119602
0.00119601
0.00119565
0.00118243
0.0011941
0.00119565
0.00119558
0.00119561
0.00119543
0.00119573
0.00119576
0.00119546
0.00119536
0.00119529
0.0011949
0.00119494
0.00119511
0.00119487
0.00119473
0.00119421
0.00119413
0.00119466
0.0011949
0.0011947
0.00119463
0.00119442
0.00119422
0.00119402
0.00119389
0.00119378
0.00119392
0.00119414
0.00119413
0.00119449
0.00119472
0.00119466
0.00119505
0.00119552
0.0011959
0.00119602
0.00119608
0.00119625
0.00119624
0.00119625
0.00119631
0.00119647
0.00119635
0.00119631
0.00119637
0.00119613
0.00119611
0.00119667
0.00119701
0.00119692
0.00119679
0.00119665
0.00119655
0.00119621
0.00119633
0.00119658
0.00119646
0.00119644
0.00119602
0.00119604
0.00119669
0.00119676
0.00119654
0.00119654
0.00119634
0.0011963
0.00119628
0.00119633
0.00119599
0.00119594
0.00119658
0.00119691
0.00119681
0.00119683
0.00119682
0.00119667
0.00119651
0.00119643
0.00119631
0.00119606
0.00119623
0.00119659
0.00119658
0.00119662
0.00119651
0.00119635
0.00119617
0.00119616
0.00119573
0.00118245
0.00119397
0.00119622
0.00119656
0.00119656
0.00119651
0.00119645
0.00119638
0.00119631
0.00119622
0.00119613
0.00119603
0.00119593
0.00119581
0.00119569
0.00119557
0.00119544
0.00119532
0.00119504
0.00119477
0.0011945
0.00119424
0.00119416
0.00119396
0.00119375
0.00119354
0.00119379
0.00119394
0.00119385
0.00119401
0.00119406
0.00119399
0.00119442
0.00119476
0.00119454
0.00119515
0.00119554
0.0011954
0.00119595
0.00119623
0.00119613
0.00119657
0.00119676
0.00119672
0.00119694
0.00119683
0.00119676
0.00119675
0.00119665
0.00119655
0.00119633
0.00119645
0.00119677
0.00119673
0.00119676
0.00119648
0.0011967
0.00119724
0.00119732
0.00119716
0.001197
0.001197
0.0011968
0.00119678
0.00119678
0.00119648
0.00119655
0.00119656
0.0011963
0.00119627
0.00119625
0.0011963
0.00119597
0.00119612
0.0011964
0.00119626
0.00119623
0.00119583
0.00119606
0.00119634
0.00119622
0.0011962
0.00119579
0.00119603
0.00119631
0.00119617
0.00119615
0.00119601
0.00119601
0.00119565
0.00118245
0.00119378
0.00119615
0.00119641
0.00119627
0.00119625
0.00119606
0.00119588
0.00119557
0.00119536
0.00119526
0.00119487
0.0011949
0.00119506
0.00119481
0.00119466
0.00119412
0.00119423
0.00119439
0.00119403
0.00119384
0.00119379
0.00119373
0.00119356
0.00119331
0.00119348
0.00119366
0.00119326
0.00119369
0.00119422
0.00119437
0.00119451
0.00119482
0.0011951
0.00119511
0.00119546
0.00119549
0.00119558
0.00119578
0.00119565
0.00119598
0.00119622
0.00119589
0.00119634
0.00119675
0.0011965
0.00119665
0.0011968
0.0011968
0.00119673
0.00119631
0.0011962
0.00119677
0.00119733
0.00119739
0.00119739
0.00119737
0.00119735
0.00119734
0.00119732
0.0011973
0.00119729
0.00119712
0.00119697
0.00119693
0.00119692
0.00119691
0.00119673
0.00119672
0.00119672
0.00119642
0.00119648
0.00119648
0.00119638
0.00119639
0.00119609
0.00119594
0.00119578
0.00119587
0.00119645
0.00119652
0.00119647
0.00119646
0.00119641
0.00119649
0.00119636
0.0011961
0.00119586
0.00119577
0.00119558
0.00118245
0.00119378
0.00119614
0.00119654
0.00119655
0.00119651
0.00119645
0.00119638
0.00119629
0.00119621
0.00119611
0.001196
0.00119589
0.00119577
0.00119564
0.00119551
0.00119536
0.00119523
0.00119493
0.00119464
0.00119452
0.0011943
0.00119408
0.00119374
0.00119355
0.0011935
0.00119358
0.00119332
0.00119363
0.0011939
0.00119387
0.00119407
0.0011941
0.00119447
0.00119476
0.00119491
0.00119515
0.00119516
0.00119567
0.00119601
0.00119572
0.00119623
0.00119653
0.00119632
0.00119641
0.00119633
0.00119663
0.00119675
0.00119672
0.00119673
0.00119624
0.00119624
0.00119683
0.00119736
0.00119742
0.00119741
0.00119739
0.00119738
0.00119735
0.00119735
0.00119718
0.00119703
0.00119697
0.00119697
0.00119695
0.00119677
0.00119665
0.00119646
0.00119647
0.00119646
0.00119641
0.00119643
0.00119612
0.00119597
0.0011958
0.00119609
0.00119639
0.00119625
0.00119622
0.00119582
0.00119584
0.00119651
0.00119658
0.00119648
0.00119649
0.00119637
0.00119635
0.00119623
0.0011962
0.00119578
0.00118245
0.00119397
0.00119622
0.00119657
0.00119656
0.00119651
0.00119644
0.00119637
0.00119629
0.0011962
0.0011961
0.00119599
0.00119587
0.00119575
0.00119561
0.00119547
0.00119532
0.00119517
0.00119503
0.00119473
0.00119444
0.00119432
0.00119412
0.00119373
0.00119352
0.00119327
0.00119351
0.00119374
0.00119369
0.00119391
0.00119402
0.00119393
0.00119439
0.00119476
0.00119458
0.00119523
0.00119565
0.00119553
0.0011961
0.0011964
0.0011963
0.00119674
0.00119705
0.00119703
0.00119696
0.00119689
0.00119688
0.00119678
0.00119666
0.00119647
0.0011965
0.00119705
0.00119744
0.00119747
0.00119746
0.00119744
0.00119742
0.00119739
0.00119738
0.00119724
0.00119708
0.00119702
0.00119703
0.00119682
0.00119669
0.00119663
0.00119661
0.00119646
0.0011963
0.00119629
0.00119626
0.00119631
0.00119598
0.00119613
0.00119641
0.00119626
0.00119624
0.00119583
0.00119607
0.00119634
0.00119633
0.00119632
0.00119604
0.00119603
0.00119576
0.0011959
0.00119627
0.00119627
0.00119627
0.00119575
0.00118246
0.00119378
0.00119614
0.00119654
0.00119655
0.0011965
0.00119644
0.00119636
0.00119628
0.00119619
0.00119609
0.00119597
0.00119586
0.00119573
0.00119559
0.00119544
0.00119529
0.00119499
0.00119468
0.00119453
0.0011943
0.00119406
0.00119368
0.00119345
0.0011934
0.00119308
0.00119331
0.00119352
0.00119321
0.00119378
0.00119418
0.0011941
0.00119443
0.00119478
0.00119512
0.0011953
0.00119506
0.00119541
0.00119589
0.00119606
0.00119614
0.00119633
0.0011965
0.00119615
0.00119644
0.00119657
0.00119623
0.00119657
0.00119673
0.00119654
0.0011966
0.00119645
0.00119685
0.00119741
0.00119747
0.00119746
0.00119744
0.00119741
0.00119739
0.00119736
0.00119735
0.00119721
0.00119705
0.00119701
0.00119702
0.00119679
0.00119666
0.00119647
0.00119645
0.00119644
0.00119628
0.00119627
0.00119624
0.00119629
0.00119596
0.00119592
0.00119648
0.00119648
0.00119636
0.00119636
0.00119608
0.00119618
0.00119622
0.00119618
0.00119618
0.0011961
0.00119588
0.00119608
0.00119622
0.00119563
0.00118246
0.00119378
0.00119614
0.00119654
0.00119655
0.00119649
0.00119628
0.00119608
0.00119587
0.00119563
0.00119553
0.00119546
0.00119525
0.00119499
0.00119473
0.00119447
0.00119403
0.00119417
0.0011945
0.00119417
0.00119403
0.0011939
0.00119381
0.00119358
0.00119305
0.00119322
0.00119338
0.00119304
0.00119341
0.00119366
0.00119352
0.00119409
0.0011945
0.00119434
0.00119502
0.00119548
0.00119554
0.00119576
0.00119587
0.00119584
0.00119621
0.00119644
0.00119629
0.00119649
0.00119635
0.00119631
0.00119622
0.00119635
0.00119701
0.0011975
0.00119757
0.00119756
0.00119754
0.00119752
0.0011975
0.00119748
0.00119745
0.00119743
0.0011974
0.00119738
0.00119735
0.00119733
0.00119731
0.00119729
0.00119727
0.00119725
0.00119723
0.00119722
0.00119706
0.00119691
0.00119688
0.0011969
0.00119669
0.00119668
0.00119667
0.00119638
0.00119647
0.00119648
0.00119622
0.0011962
0.00119618
0.00119624
0.00119591
0.00119592
0.00119625
0.00119617
0.00119616
0.00119616
0.0011962
0.00119578
0.00118244
0.0011939
0.00119557
0.00119558
0.00119554
0.0011954
0.0011952
0.00119529
0.0011953
0.00119477
0.001195
0.00119523
0.00119474
0.00119466
0.00119453
0.00119411
0.00119398
0.00119442
0.00119481
0.00119456
0.00119427
0.00119414
0.00119393
0.00119354
0.00119332
0.0011931
0.00119335
0.00119357
0.0011933
0.0011938
0.00119426
0.00119425
0.00119482
0.00119526
0.00119543
0.00119583
0.00119612
0.00119637
0.00119659
0.00119663
0.00119661
0.00119675
0.00119665
0.00119662
0.00119669
0.00119644
0.0011966
0.00119688
0.00119676
0.00119679
0.00119668
0.00119641
0.00119656
0.00119681
0.00119653
0.00119651
0.00119646
0.00119647
0.00119615
0.00119633
0.00119643
0.00119596
0.00119622
0.00119633
0.00119586
0.00119611
0.00119672
0.00119662
0.00119662
0.00119665
0.00119642
0.00119629
0.00119625
0.0011963
0.00119597
0.00119612
0.0011964
0.00119625
0.00119623
0.00119582
0.00119606
0.00119633
0.00119621
0.00119623
0.00119612
0.00119587
0.00119604
0.00119632
0.00119621
0.00119591
0.00118245
0.00119397
0.00119622
0.00119656
0.00119655
0.0011965
0.00119643
0.00119635
0.00119627
0.00119617
0.00119606
0.00119594
0.00119581
0.00119569
0.00119538
0.00119508
0.00119493
0.00119463
0.00119415
0.00119382
0.00119365
0.00119354
0.00119309
0.00119313
0.00119334
0.00119317
0.00119329
0.00119316
0.00119351
0.00119377
0.00119394
0.001194
0.0011944
0.0011948
0.00119505
0.00119523
0.00119555
0.00119586
0.00119603
0.00119612
0.00119633
0.00119652
0.00119618
0.00119663
0.00119703
0.0011969
0.00119691
0.0011968
0.00119671
0.00119698
0.00119753
0.00119759
0.00119758
0.00119756
0.00119753
0.00119751
0.00119748
0.00119745
0.00119742
0.0011974
0.00119737
0.00119735
0.00119732
0.0011973
0.00119728
0.00119726
0.00119724
0.00119722
0.0011972
0.00119719
0.00119718
0.00119702
0.00119687
0.00119683
0.00119684
0.00119667
0.00119653
0.00119652
0.00119638
0.00119643
0.0011966
0.00119634
0.00119644
0.00119645
0.00119632
0.00119641
0.00119621
0.00119614
0.00119611
0.00119574
0.00118245
0.00119397
0.00119622
0.00119656
0.00119655
0.0011965
0.00119643
0.00119635
0.00119626
0.00119617
0.00119606
0.00119594
0.0011958
0.00119566
0.00119551
0.00119535
0.00119518
0.00119502
0.00119468
0.00119437
0.00119421
0.00119397
0.00119354
0.00119327
0.00119323
0.00119308
0.0011933
0.00119355
0.00119355
0.00119387
0.00119414
0.00119435
0.00119486
0.00119528
0.00119545
0.00119586
0.00119627
0.00119669
0.00119692
0.00119696
0.00119697
0.0011971
0.00119701
0.00119697
0.001197
0.00119691
0.00119681
0.0011967
0.00119659
0.00119699
0.00119755
0.00119761
0.0011976
0.00119757
0.00119755
0.00119752
0.00119749
0.00119746
0.00119743
0.00119741
0.00119738
0.00119735
0.00119733
0.0011973
0.00119728
0.00119726
0.00119724
0.00119722
0.00119721
0.00119719
0.00119717
0.00119716
0.00119715
0.00119714
0.00119701
0.00119686
0.00119684
0.00119669
0.00119665
0.00119666
0.00119658
0.00119641
0.00119648
0.00119651
0.00119633
0.00119645
0.00119631
0.00119619
0.00119621
0.00119579
0.00118244
0.00119403
0.00119586
0.00119579
0.00119574
0.0011957
0.00119565
0.00119521
0.00119523
0.00119518
0.00119463
0.00119475
0.0011955
0.00119561
0.0011955
0.00119534
0.00119517
0.00119499
0.00119482
0.00119449
0.00119418
0.00119403
0.00119382
0.00119342
0.00119339
0.00119344
0.00119319
0.00119326
0.00119334
0.00119358
0.00119365
0.0011941
0.0011945
0.00119437
0.00119507
0.00119553
0.00119547
0.00119597
0.00119648
0.00119674
0.00119702
0.0011971
0.00119704
0.00119699
0.001197
0.00119708
0.00119707
0.00119694
0.00119668
0.00119662
0.00119662
0.00119665
0.00119642
0.00119639
0.00119702
0.00119745
0.00119749
0.00119747
0.0011973
0.00119715
0.00119715
0.00119692
0.00119677
0.00119657
0.00119653
0.00119651
0.00119635
0.00119634
0.0011963
0.00119635
0.00119602
0.00119596
0.00119659
0.00119707
0.00119698
0.00119684
0.00119683
0.00119666
0.00119651
0.00119634
0.00119642
0.00119643
0.00119619
0.00119617
0.00119616
0.00119622
0.00119589
0.00119609
0.00119622
0.00119563
0.00118245
0.00119397
0.00119622
0.00119656
0.00119655
0.0011965
0.00119643
0.00119635
0.00119626
0.00119616
0.00119606
0.00119578
0.00119551
0.00119535
0.00119522
0.00119494
0.00119446
0.00119412
0.00119394
0.0011938
0.0011933
0.00119333
0.00119335
0.00119319
0.00119305
0.0011931
0.00119323
0.0011928
0.00119322
0.00119359
0.00119376
0.00119379
0.00119424
0.00119464
0.00119464
0.00119497
0.00119501
0.00119566
0.00119609
0.00119587
0.00119626
0.00119645
0.00119619
0.00119653
0.00119666
0.00119625
0.00119661
0.00119697
0.0011967
0.00119671
0.00119676
0.00119682
0.00119676
0.00119639
0.00119653
0.00119681
0.00119666
0.00119666
0.00119652
0.00119636
0.00119619
0.00119601
0.00119626
0.00119637
0.00119591
0.00119623
0.00119642
0.00119589
0.00119614
0.00119624
0.0011958
0.00119586
0.00119637
0.00119637
0.00119626
0.00119632
0.00119613
0.00119608
0.00119577
0.00119597
0.00119624
0.00119603
0.00119602
0.00119579
0.001196
0.00119609
0.00119565
0.00119596
0.00119609
0.00119556
0.00118245
0.00119397
0.00119622
0.00119656
0.00119655
0.0011965
0.00119643
0.00119635
0.00119626
0.00119616
0.00119605
0.00119593
0.0011958
0.00119565
0.0011955
0.00119534
0.00119502
0.0011947
0.00119453
0.00119422
0.00119392
0.0011936
0.00119334
0.00119322
0.00119283
0.00119304
0.00119321
0.00119289
0.00119329
0.00119359
0.00119338
0.00119392
0.00119434
0.00119413
0.0011948
0.00119548
0.00119563
0.00119588
0.00119569
0.00119615
0.00119645
0.00119638
0.00119654
0.00119648
0.00119689
0.00119721
0.00119711
0.00119702
0.00119689
0.00119687
0.00119653
0.00119664
0.00119666
0.00119618
0.00119649
0.00119681
0.00119666
0.00119666
0.00119653
0.00119625
0.00119638
0.00119663
0.00119648
0.00119644
0.00119602
0.00119629
0.00119643
0.00119589
0.00119614
0.00119626
0.00119581
0.00119614
0.00119632
0.00119625
0.00119624
0.00119587
0.00119603
0.00119615
0.00119589
0.00119604
0.00119627
0.0011962
0.00119631
0.00119615
0.00119603
0.00119578
0.00119608
0.00119623
0.00119615
0.00119595
0.00118245
0.00119398
0.00119622
0.00119656
0.00119655
0.0011965
0.00119643
0.00119635
0.00119626
0.00119616
0.00119605
0.00119593
0.0011958
0.00119565
0.0011955
0.00119534
0.00119517
0.00119499
0.00119482
0.00119449
0.00119418
0.00119403
0.00119382
0.00119342
0.00119321
0.00119312
0.00119312
0.00119341
0.00119378
0.00119399
0.00119414
0.00119436
0.00119488
0.00119528
0.00119546
0.00119587
0.00119618
0.00119644
0.00119668
0.00119669
0.00119672
0.00119663
0.00119661
0.00119675
0.00119694
0.00119693
0.00119687
0.00119649
0.00119653
0.00119732
0.00119761
0.00119763
0.00119761
0.00119758
0.00119755
0.00119752
0.0011975
0.00119747
0.00119744
0.00119741
0.00119738
0.00119735
0.00119733
0.00119731
0.00119728
0.00119726
0.00119724
0.00119722
0.00119721
0.00119719
0.00119718
0.00119717
0.00119701
0.00119686
0.00119683
0.00119686
0.00119666
0.00119665
0.00119665
0.00119636
0.00119643
0.00119643
0.00119633
0.00119635
0.00119605
0.00119591
0.00119575
0.00119608
0.00119623
0.00119563
0.00118245
0.00119397
0.00119622
0.00119656
0.00119655
0.0011965
0.00119643
0.00119636
0.00119626
0.00119617
0.00119606
0.00119594
0.00119581
0.00119567
0.00119551
0.00119535
0.00119518
0.00119501
0.00119468
0.00119436
0.00119421
0.00119396
0.00119371
0.00119344
0.00119326
0.00119306
0.0011933
0.00119352
0.00119336
0.00119381
0.00119424
0.00119426
0.00119485
0.00119528
0.00119546
0.00119586
0.00119627
0.00119669
0.00119692
0.00119696
0.00119697
0.0011971
0.00119701
0.00119697
0.001197
0.00119691
0.00119681
0.0011967
0.00119659
0.00119699
0.00119755
0.00119761
0.0011976
0.00119757
0.00119754
0.00119752
0.00119749
0.00119746
0.00119743
0.00119741
0.00119738
0.00119735
0.00119733
0.0011973
0.00119728
0.00119726
0.00119724
0.00119723
0.00119715
0.00119698
0.00119691
0.00119689
0.0011969
0.00119658
0.00119661
0.00119669
0.00119663
0.00119673
0.00119669
0.00119654
0.00119628
0.00119627
0.00119628
0.00119633
0.00119628
0.00119617
0.001196
0.00119605
0.00119607
0.00119567
0.00118245
0.00119397
0.00119622
0.00119656
0.00119655
0.0011965
0.00119643
0.00119635
0.00119627
0.00119617
0.00119606
0.00119594
0.00119581
0.00119569
0.00119537
0.00119507
0.00119492
0.00119464
0.00119416
0.00119382
0.00119365
0.00119354
0.00119309
0.00119313
0.00119334
0.00119331
0.0011933
0.00119348
0.00119369
0.00119377
0.00119399
0.0011943
0.00119468
0.00119491
0.00119523
0.00119506
0.0011955
0.00119586
0.00119602
0.00119612
0.00119633
0.00119652
0.00119618
0.00119663
0.00119703
0.0011969
0.00119693
0.00119687
0.00119679
0.00119702
0.00119754
0.0011976
0.00119758
0.00119756
0.00119753
0.00119751
0.00119748
0.00119745
0.00119742
0.0011974
0.00119737
0.00119735
0.00119732
0.0011973
0.00119728
0.00119726
0.00119724
0.00119716
0.001197
0.00119692
0.00119689
0.00119697
0.0011968
0.0011967
0.00119696
0.00119697
0.00119682
0.00119683
0.00119664
0.00119663
0.00119663
0.00119634
0.0011964
0.0011964
0.00119618
0.00119629
0.0011963
0.00119615
0.00119616
0.00119573
0.00118244
0.0011939
0.00119558
0.00119558
0.00119555
0.0011954
0.0011952
0.00119531
0.00119555
0.00119532
0.0011952
0.00119468
0.0011948
0.00119496
0.00119457
0.00119441
0.00119395
0.00119383
0.00119432
0.0011945
0.00119426
0.00119414
0.00119393
0.00119354
0.00119333
0.00119323
0.00119323
0.00119351
0.00119384
0.00119403
0.00119418
0.00119437
0.00119486
0.00119527
0.00119543
0.00119583
0.00119624
0.00119652
0.00119661
0.00119676
0.00119677
0.00119672
0.00119685
0.00119673
0.00119667
0.00119673
0.00119646
0.00119662
0.00119689
0.00119663
0.00119663
0.00119658
0.00119661
0.00119629
0.00119647
0.00119656
0.00119609
0.00119631
0.00119672
0.00119661
0.00119661
0.00119618
0.00119629
0.00119658
0.00119643
0.00119639
0.00119597
0.00119599
0.0011966
0.0011971
0.00119716
0.0011971
0.00119695
0.00119685
0.00119686