/*--------------------------------*- C++ -*----------------------------------*\
  =========                 |
  \\      /  F ield         | OpenFOAM: The Open Source CFD Toolbox
   \\    /   O peration     | Website:  https://openfoam.org
    \\  /    A nd           | Version:  11
     \\/     M anipulation  |
\*---------------------------------------------------------------------------*/
FoamFile
{
    format      ascii;
    class       volScalarField;
    location    "0.012";
    object      p;
}
// * * * * * * * * * * * * * * * * * * * * * * * * * * * * * * * * * * * * * //

dimensions      [0 2 -2 0 0 0 0];

internalField   nonuniform List<scalar> 
287084
(
0.831411
0.561557
0.47185
0.410931
0.351882
0.303921
0.263606
0.227241
0.192355
0.158822
0.127028
0.0960993
0.0661918
0.0371071
0.00887008
-0.018269
-0.0441109
-0.0691631
-0.0930098
-0.115005
-0.135922
-0.154956
-0.171431
-0.18543
-0.195777
-0.204465
-0.212459
-0.213201
-0.20731
-0.204156
-0.202272
-0.195959
-0.186042
-0.17414
-0.160055
-0.144239
-0.126674
-0.108205
-0.0891512
-0.0694054
-0.0496407
-0.0300902
-0.0109727
0.00749708
0.0251415
0.0418441
0.0575088
0.0720256
0.0853128
0.0972741
0.107793
0.116134
0.123031
0.130865
0.140285
0.150007
0.154096
0.1537
0.155497
0.158395
0.161802
0.162816
0.159773
0.160655
0.161668
0.157905
0.15545
0.153605
0.149536
0.143658
0.140317
0.137364
0.130355
0.123669
0.117008
0.110188
0.10419
0.096822
0.0898216
0.0827883
0.0745507
0.0658148
0.0571397
0.048491
0.0395853
0.0307986
0.0219704
0.0125648
0.00352655
-0.00102194
0.696716
0.517941
0.44863
0.395844
0.344092
0.299121
0.259548
0.223313
0.189094
0.156275
0.124451
0.0936834
0.0637357
0.0348117
0.00641914
-0.0208987
-0.0470454
-0.0722586
-0.0961437
-0.118485
-0.13923
-0.158389
-0.175182
-0.188747
-0.199617
-0.208755
-0.214728
-0.215527
-0.214384
-0.212201
-0.208012
-0.200802
-0.190608
-0.178223
-0.163823
-0.147776
-0.130081
-0.111072
-0.0917104
-0.0717826
-0.0517465
-0.0319345
-0.0125969
0.00609619
0.023937
0.0408226
0.0566247
0.071291
0.0847602
0.0969605
0.107896
0.117552
0.126161
0.134165
0.141278
0.147166
0.151828
0.155091
0.157185
0.158978
0.160982
0.162173
0.162212
0.161377
0.160519
0.158775
0.15582
0.152809
0.149204
0.1446
0.139987
0.13502
0.129085
0.122929
0.116497
0.109838
0.103127
0.096054
0.08887
0.081454
0.0735738
0.0654303
0.0571258
0.0486613
0.0400023
0.0314247
0.0227212
0.0136901
0.00532468
0.000385954
0.662705
0.501024
0.435269
0.38416
0.334948
0.292032
0.253568
0.217978
0.184085
0.151422
0.119957
0.089254
0.0592294
0.0297571
0.0012049
-0.0264644
-0.0530407
-0.0784226
-0.102418
-0.125106
-0.146443
-0.165542
-0.182722
-0.197122
-0.208085
-0.216772
-0.22278
-0.225607
-0.225135
-0.222706
-0.217805
-0.20985
-0.199328
-0.186433
-0.171533
-0.154616
-0.136572
-0.117315
-0.097048
-0.0765868
-0.0560533
-0.0357329
-0.0159021
0.00320964
0.0214522
0.0386862
0.054827
0.0697827
0.0835071
0.096017
0.107282
0.11727
0.126058
0.133893
0.140987
0.14724
0.152022
0.155432
0.157923
0.160036
0.161745
0.162488
0.162242
0.161411
0.160185
0.158199
0.155506
0.152341
0.148595
0.144252
0.139519
0.134402
0.128679
0.122569
0.116204
0.109593
0.102755
0.0956462
0.0883307
0.0807894
0.0729685
0.0648991
0.0567289
0.0484361
0.0400024
0.0314167
0.022818
0.0141083
0.00577044
0.000362178
0.623748
0.472647
0.41501
0.368287
0.322789
0.282249
0.2453
0.210416
0.17696
0.144741
0.113245
0.0823964
0.0521411
0.0226103
-0.00644011
-0.034481
-0.0614804
-0.0876573
-0.112068
-0.135283
-0.157234
-0.176658
-0.1944
-0.209367
-0.220954
-0.230274
-0.236738
-0.239831
-0.239955
-0.237422
-0.231713
-0.22335
-0.212263
-0.198732
-0.183002
-0.16541
-0.146356
-0.126105
-0.105195
-0.083918
-0.0626136
-0.0415431
-0.0210341
-0.00123512
0.0176497
0.0354433
0.0520701
0.067484
0.0815984
0.0944483
0.106046
0.116381
0.125524
0.133599
0.140688
0.146771
0.151635
0.15537
0.158192
0.160302
0.161764
0.16243
0.162247
0.161431
0.160017
0.15793
0.155252
0.152012
0.148211
0.143886
0.139141
0.133957
0.128308
0.122286
0.115949
0.109321
0.10244
0.0953312
0.0879906
0.0804332
0.0726648
0.0646946
0.0566258
0.0484677
0.0400877
0.0315301
0.0231048
0.0145395
0.00625539
0.000690161
0.596064
0.449976
0.39636
0.352515
0.309633
0.271159
0.235215
0.201145
0.16821
0.135961
0.104595
0.0735549
0.0429345
0.0128951
-0.0166293
-0.0450568
-0.0729469
-0.0998134
-0.125072
-0.149037
-0.171386
-0.192025
-0.210381
-0.225947
-0.238532
-0.248248
-0.255061
-0.258525
-0.258809
-0.256076
-0.250026
-0.241273
-0.229296
-0.214755
-0.198152
-0.179588
-0.159531
-0.13832
-0.116265
-0.0938034
-0.0714635
-0.0494322
-0.0279492
-0.00725958
0.0124436
0.03102
0.0483165
0.0643247
0.0789832
0.0922882
0.104276
0.114981
0.124446
0.132775
0.139987
0.146119
0.151122
0.155049
0.158068
0.160252
0.161683
0.162332
0.162155
0.161328
0.159839
0.157726
0.155017
0.15174
0.147935
0.143621
0.138843
0.13364
0.128027
0.12202
0.115706
0.10911
0.102242
0.0950909
0.0877616
0.0801981
0.0724501
0.0645568
0.0565626
0.0484285
0.0401612
0.0318025
0.0233805
0.0148327
0.006502
0.000752492
0.573321
0.429571
0.378521
0.337005
0.296071
0.258617
0.223725
0.190196
0.157675
0.12556
0.0939647
0.062684
0.03159
0.00100081
-0.0289344
-0.0583595
-0.0868959
-0.114521
-0.140958
-0.166253
-0.189637
-0.211001
-0.229945
-0.246527
-0.26026
-0.270701
-0.278012
-0.281917
-0.282216
-0.279306
-0.272711
-0.263195
-0.25037
-0.234967
-0.217102
-0.196987
-0.175751
-0.153223
-0.129823
-0.106139
-0.0825083
-0.0592132
-0.0365751
-0.0148173
0.00587469
0.0253763
0.0435296
0.0602922
0.0756496
0.0895187
0.101995
0.113105
0.122939
0.131523
0.138952
0.145258
0.150441
0.154555
0.15772
0.160006
0.161442
0.162105
0.161982
0.161151
0.159643
0.157531
0.154816
0.151521
0.147701
0.143377
0.138608
0.133413
0.127797
0.121816
0.115525
0.108914
0.102039
0.0949272
0.0875721
0.0800249
0.0723186
0.0644499
0.0564915
0.0483801
0.0399882
0.0317014
0.0235276
0.0150678
0.00691087
0.00101454
0.55356
0.410892
0.36144
0.321241
0.28187
0.245718
0.211401
0.178476
0.145793
0.113648
0.0819921
0.0500904
0.018582
-0.012666
-0.0435105
-0.0739993
-0.103687
-0.132475
-0.159889
-0.186356
-0.210688
-0.233625
-0.253946
-0.271462
-0.286095
-0.297346
-0.305239
-0.309251
-0.309887
-0.306551
-0.299561
-0.289168
-0.275363
-0.258753
-0.239397
-0.217989
-0.195116
-0.170862
-0.145941
-0.120729
-0.0956156
-0.0709083
-0.0469337
-0.0239069
-0.00200056
0.0185802
0.037726
0.0553974
0.0715399
0.0861386
0.0992017
0.11082
0.121037
0.129965
0.137673
0.144187
0.14955
0.153853
0.157175
0.159587
0.161094
0.161792
0.161732
0.16093
0.15943
0.15731
0.154611
0.151306
0.147495
0.143185
0.138394
0.133215
0.127612
0.121648
0.115363
0.108766
0.101892
0.094755
0.0874363
0.0798989
0.0721974
0.0643402
0.0563975
0.0483452
0.0401497
0.0320036
0.0238313
0.0153129
0.00690042
0.000949089
0.535654
0.393442
0.344998
0.305688
0.267158
0.231985
0.198106
0.165184
0.132754
0.10063
0.0684053
0.0360129
0.00377057
-0.0283421
-0.0601139
-0.0916904
-0.122574
-0.152674
-0.181512
-0.209577
-0.235579
-0.259466
-0.28109
-0.299953
-0.315751
-0.327825
-0.336329
-0.341043
-0.341608
-0.337939
-0.330461
-0.319095
-0.304019
-0.285874
-0.265007
-0.241871
-0.217034
-0.19095
-0.164242
-0.137269
-0.110453
-0.0841558
-0.0587022
-0.0342752
-0.0110966
0.0106912
0.0309775
0.0496521
0.0666918
0.0821105
0.0959007
0.108096
0.118804
0.128122
0.136125
0.142905
0.14853
0.153024
0.156494
0.159029
0.16064
0.16141
0.161408
0.160635
0.159188
0.157112
0.154393
0.151116
0.147302
0.142988
0.138233
0.133046
0.12745
0.121486
0.115206
0.108627
0.10177
0.0946638
0.08732
0.0798053
0.0721647
0.0643687
0.0564633
0.0483957
0.0401799
0.0320295
0.0237883
0.0152781
0.00691902
0.000931004
0.518637
0.376775
0.329283
0.290767
0.25264
0.217233
0.184039
0.151531
0.118682
0.0863152
0.0536868
0.0204894
-0.0122693
-0.045438
-0.0785867
-0.111267
-0.143672
-0.175184
-0.205782
-0.235325
-0.263012
-0.288653
-0.311943
-0.332001
-0.348967
-0.362233
-0.371474
-0.376577
-0.377078
-0.373238
-0.364829
-0.35234
-0.335927
-0.316211
-0.293551
-0.26836
-0.241429
-0.213291
-0.184492
-0.155539
-0.126814
-0.0987497
-0.0716413
-0.045711
-0.021154
0.0019248
0.023366
0.0431418
0.0612054
0.0774955
0.092079
0.104977
0.116244
0.126007
0.13439
0.141456
0.147321
0.152035
0.155691
0.158362
0.160104
0.160974
0.161024
0.160327
0.158923
0.156853
0.154171
0.150927
0.147128
0.142807
0.138061
0.132897
0.127321
0.121365
0.115089
0.108513
0.101659
0.0945558
0.0872061
0.0797074
0.0720032
0.0641142
0.0562503
0.0480093
0.0392289
0.0312259
0.0237186
0.0155703
0.00777051
0.00170718
0.502626
0.360891
0.31336
0.27502
0.237816
0.203147
0.169451
0.136682
0.104068
0.0711066
0.0376531
0.00409298
-0.0300001
-0.0640128
-0.0981825
-0.132687
-0.166487
-0.199866
-0.232364
-0.263525
-0.293135
-0.320565
-0.345511
-0.367205
-0.385504
-0.399891
-0.410027
-0.415647
-0.416169
-0.411733
-0.402751
-0.389048
-0.371019
-0.349364
-0.324464
-0.297188
-0.267996
-0.23756
-0.206482
-0.175346
-0.144534
-0.114525
-0.0856149
-0.0580335
-0.0319626
-0.00756481
0.0151076
0.036017
0.0551203
0.0723924
0.0877761
0.101433
0.113377
0.12366
0.13244
0.139845
0.145992
0.15095
0.154807
0.157626
0.159483
0.160466
0.160596
0.159971
0.158629
0.156603
0.153951
0.150723
0.146945
0.142663
0.137909
0.13275
0.127205
0.121248
0.114974
0.108425
0.101552
0.0944662
0.0871627
0.0796591
0.0720452
0.0643109
0.0564361
0.0484199
0.0403296
0.0322492
0.0240274
0.0155353
0.00713376
0.00106131
0.487115
0.345171
0.298064
0.260239
0.222632
0.187953
0.154615
0.121768
0.0887815
0.0553885
0.0213438
-0.0132211
-0.0483745
-0.0837681
-0.119617
-0.155351
-0.190893
-0.226118
-0.260542
-0.294021
-0.325393
-0.354914
-0.381626
-0.405082
-0.425268
-0.440712
-0.451771
-0.457682
-0.458334
-0.453452
-0.443509
-0.42822
-0.408461
-0.385149
-0.35799
-0.328126
-0.296461
-0.263508
-0.229984
-0.196451
-0.163415
-0.13129
-0.100428
-0.0710902
-0.0434239
-0.017571
0.00638034
0.0284272
0.0485719
0.0668076
0.0831211
0.09757
0.110202
0.121066
0.13032
0.138104
0.144548
0.149752
0.153811
0.156823
0.158821
0.159919
0.160147
0.159589
0.158314
0.156323
0.153721
0.150523
0.146771
0.142506
0.13778
0.132615
0.127075
0.121151
0.114878
0.108337
0.101484
0.0943892
0.0870986
0.0796279
0.0720063
0.0642275
0.0563829
0.0485043
0.0404506
0.0323632
0.024237
0.0156951
0.00722264
0.00110778
0.471927
0.330283
0.283172
0.245343
0.208227
0.173575
0.139691
0.1065
0.0728907
0.0387636
0.00407997
-0.0314197
-0.067454
-0.104259
-0.141519
-0.17899
-0.216579
-0.253811
-0.290358
-0.325801
-0.359587
-0.391281
-0.420158
-0.445465
-0.467056
-0.48394
-0.495961
-0.502685
-0.503115
-0.497598
-0.486677
-0.469965
-0.448466
-0.422569
-0.39304
-0.360819
-0.326412
-0.290786
-0.254651
-0.218602
-0.183176
-0.148849
-0.115955
-0.0847249
-0.055393
-0.0280146
-0.00269272
0.0205485
0.04176
0.0609486
0.0781506
0.0934172
0.106781
0.118268
0.128071
0.136255
0.143019
0.148485
0.152763
0.155926
0.158094
0.159321
0.159667
0.159192
0.157957
0.156052
0.153489
0.150299
0.146597
0.142357
0.137632
0.132519
0.126975
0.121047
0.114799
0.108259
0.101422
0.0943359
0.0870518
0.0795759
0.0719532
0.064198
0.0562527
0.0481417
0.0403278
0.0325426
0.0244124
0.0158914
0.00728928
0.00112741
0.457331
0.315963
0.26897
0.23097
0.193473
0.158754
0.125004
0.0914677
0.0573405
0.0225091
-0.012753
-0.0496907
-0.0874436
-0.125216
-0.164307
-0.203547
-0.242969
-0.282552
-0.321328
-0.358935
-0.395073
-0.429054
-0.459961
-0.487526
-0.510835
-0.529373
-0.54244
-0.549586
-0.549941
-0.543635
-0.531491
-0.513288
-0.489778
-0.461759
-0.429676
-0.394605
-0.357441
-0.319023
-0.280148
-0.241469
-0.203588
-0.166942
-0.131898
-0.0987613
-0.0676858
-0.0387198
-0.012016
0.0124521
0.0347728
0.054918
0.0729894
0.0890587
0.103156
0.115304
0.125652
0.134298
0.141409
0.14716
0.151669
0.155058
0.157373
0.158709
0.159145
0.158766
0.157621
0.155759
0.153234
0.150099
0.146416
0.142201
0.137513
0.132404
0.126863
0.120968
0.114726
0.108178
0.10136
0.0942871
0.0870236
0.0795687
0.0719681
0.0642836
0.0564779
0.0485774
0.0406492
0.0325631
0.0244214
0.0159428
0.00726835
0.00106053
0.443741
0.302457
0.255407
0.21734
0.179749
0.144578
0.110195
0.0765244
0.0416624
0.0060407
-0.0304353
-0.0680718
-0.106804
-0.146607
-0.187194
-0.228172
-0.269923
-0.311681
-0.352559
-0.393004
-0.431479
-0.467793
-0.5011
-0.530454
-0.555922
-0.57602
-0.590113
-0.597553
-0.597884
-0.5912
-0.57768
-0.557842
-0.532248
-0.501513
-0.466885
-0.429088
-0.389046
-0.347753
-0.306096
-0.264733
-0.224302
-0.185305
-0.148106
-0.112994
-0.080111
-0.0495676
-0.0214503
0.00431785
0.0277157
0.0488238
0.0677711
0.0846202
0.0994403
0.112212
0.123123
0.132284
0.139777
0.145801
0.150534
0.15411
0.156588
0.15808
0.158622
0.158337
0.157271
0.155465
0.152989
0.149891
0.146236
0.142059
0.137398
0.132299
0.126772
0.120869
0.114651
0.108121
0.101314
0.0942553
0.0869728
0.0795459
0.0719717
0.0642635
0.0565104
0.0486082
0.0407101
0.0327914
0.0245909
0.0159732
0.00729506
0.0010615
0.431032
0.289512
0.242354
0.204197
0.166212
0.131215
0.0965084
0.0618539
0.0266372
-0.00967948
-0.0472558
-0.086281
-0.126407
-0.167671
-0.20991
-0.253225
-0.297116
-0.340878
-0.384348
-0.426854
-0.467962
-0.506818
-0.542396
-0.574326
-0.601606
-0.623
-0.638353
-0.646091
-0.64613
-0.638837
-0.624014
-0.602373
-0.574775
-0.54179
-0.504302
-0.463639
-0.420728
-0.376543
-0.332056
-0.288005
-0.24502
-0.203664
-0.164278
-0.127184
-0.0925191
-0.0603741
-0.0308235
-0.00381068
0.0206892
0.0428003
0.0625802
0.080161
0.0956649
0.109103
0.12058
0.130202
0.138085
0.144434
0.149435
0.153187
0.155818
0.157426
0.158106
0.157913
0.156898
0.155161
0.152734
0.149671
0.14607
0.14192
0.137265
0.13218
0.126688
0.120808
0.114595
0.108056
0.10125
0.0942183
0.0869655
0.0795224
0.0719837
0.0642779
0.0564451
0.0485787
0.040672
0.0326843
0.0245449
0.0160191
0.00743929
0.00119195
0.418901
0.277807
0.230413
0.192093
0.153932
0.118017
0.0829817
0.0479731
0.0119242
-0.0252231
-0.0638368
-0.103913
-0.145317
-0.188183
-0.232391
-0.277464
-0.323371
-0.36972
-0.415487
-0.460671
-0.504225
-0.545287
-0.583537
-0.617607
-0.646881
-0.670001
-0.686062
-0.694016
-0.693981
-0.685825
-0.6699
-0.646675
-0.616786
-0.581333
-0.54121
-0.49773
-0.451894
-0.404858
-0.357582
-0.310865
-0.265396
-0.22169
-0.180162
-0.141131
-0.104688
-0.0709631
-0.0400227
-0.0117699
0.0138422
0.0368775
0.0574979
0.0758435
0.0919687
0.106002
0.118012
0.128117
0.136422
0.143067
0.148282
0.152257
0.155058
0.156796
0.157596
0.157464
0.156547
0.154894
0.152494
0.149488
0.145901
0.141766
0.137152
0.132081
0.126583
0.120727
0.11453
0.108008
0.101214
0.094192
0.08695
0.0795219
0.0719623
0.0642755
0.056481
0.0486518
0.0408141
0.0327517
0.0246608
0.0162012
0.00743076
0.00110767
0.407972
0.266725
0.219076
0.180462
0.142162
0.106388
0.0707073
0.0349188
-0.00170847
-0.0397519
-0.0794503
-0.120674
-0.163489
-0.208058
-0.253898
-0.300937
-0.348981
-0.397584
-0.4457
-0.493108
-0.539406
-0.583175
-0.623543
-0.659798
-0.690845
-0.715642
-0.732395
-0.7406
-0.740502
-0.731563
-0.714353
-0.689318
-0.657301
-0.619564
-0.576767
-0.530564
-0.481978
-0.432185
-0.382219
-0.332927
-0.285025
-0.239091
-0.19551
-0.15454
-0.116413
-0.0811763
-0.0488701
-0.0194345
0.00722349
0.0312036
0.0526266
0.0716349
0.0883886
0.102995
0.115521
0.126091
0.134771
0.141751
0.147214
0.15136
0.154303
0.156178
0.157079
0.157061
0.156208
0.154581
0.152245
0.149293
0.145744
0.141635
0.137027
0.131995
0.126534
0.120666
0.114463
0.107956
0.101173
0.0941532
0.0869143
0.0795112
0.0719582
0.0643112
0.0565983
0.0487971
0.0408787
0.0328315
0.0246481
0.0161409
0.00743746
0.00101989
0.397907
0.256681
0.209002
0.170042
0.131659
0.0953311
0.059076
0.0228461
-0.0145218
-0.053536
-0.0940208
-0.136436
-0.180606
-0.226422
-0.273981
-0.322973
-0.373127
-0.423786
-0.474603
-0.524248
-0.572645
-0.618883
-0.661678
-0.70022
-0.732851
-0.758868
-0.776378
-0.784823
-0.784475
-0.774797
-0.756328
-0.72989
-0.695744
-0.65574
-0.610552
-0.561655
-0.510445
-0.458008
-0.405485
-0.353793
-0.303599
-0.255516
-0.209989
-0.16725
-0.127508
-0.0908381
-0.0572274
-0.0266478
0.00101028
0.025847
0.048051
0.0677065
0.0850307
0.100145
0.113141
0.124106
0.133174
0.140465
0.146161
0.150499
0.153594
0.155601
0.156588
0.156657
0.155888
0.154318
0.152032
0.149104
0.145585
0.141517
0.136933
0.131894
0.126444
0.120605
0.114412
0.107914
0.101154
0.0941286
0.0868848
0.0794659
0.0718547
0.064098
0.0561824
0.0485466
0.0408346
0.0326171
0.0244895
0.0161122
0.00771039
0.00145574
0.389005
0.247856
0.199922
0.160757
0.12184
0.0852626
0.0489358
0.0118437
-0.026089
-0.0657255
-0.107474
-0.150775
-0.195974
-0.243436
-0.292772
-0.343521
-0.395451
-0.448222
-0.501061
-0.553071
-0.603933
-0.652067
-0.697139
-0.737831
-0.771973
-0.799147
-0.817113
-0.825809
-0.82511
-0.81478
-0.795227
-0.767121
-0.731259
-0.688967
-0.641511
-0.590241
-0.536626
-0.481813
-0.42696
-0.373013
-0.320721
-0.270702
-0.223347
-0.178951
-0.137718
-0.0997238
-0.0649277
-0.0333213
-0.00475132
0.0209256
0.0437979
0.0640678
0.0819241
0.0974905
0.110918
0.122284
0.131675
0.13927
0.145189
0.149692
0.15294
0.155037
0.156146
0.15629
0.155553
0.154043
0.151825
0.14894
0.145442
0.141376
0.136833
0.131819
0.126388
0.120559
0.114374
0.107883
0.101126
0.0941132
0.0868835
0.0794967
0.0719678
0.0643532
0.056687
0.0488772
0.0409335
0.0328905
0.0246566
0.01605
0.00742373
0.00120616
0.381319
0.240152
0.191969
0.152752
0.113618
0.0766623
0.0396762
0.00235462
-0.0364453
-0.0767902
-0.119121
-0.163611
-0.20997
-0.258663
-0.309146
-0.361615
-0.415619
-0.470113
-0.524836
-0.57894
-0.631768
-0.682286
-0.729272
-0.771522
-0.807433
-0.835119
-0.85393
-0.862617
-0.861669
-0.850709
-0.830102
-0.800515
-0.762994
-0.718915
-0.669301
-0.615892
-0.560093
-0.503133
-0.44621
-0.390255
-0.336089
-0.284302
-0.235342
-0.189484
-0.146919
-0.107717
-0.0718483
-0.0392796
-0.00989202
0.0164937
0.04
0.0608146
0.0791452
0.0951313
0.108915
0.120603
0.13033
0.138172
0.144307
0.148966
0.152338
0.154547
0.155726
0.155936
0.155281
0.153812
0.151629
0.14878
0.145301
0.141289
0.136745
0.13173
0.126313
0.120504
0.114325
0.107855
0.101104
0.0940747
0.0868802
0.0794981
0.0719556
0.0643165
0.0565804
0.0487706
0.0409549
0.0329243
0.0247204
0.0162145
0.00755813
0.00127085
0.374863
0.233614
0.185417
0.145961
0.106359
0.0692004
0.0320607
-0.0059145
-0.044989
-0.0859155
-0.129282
-0.174501
-0.221967
-0.2718
-0.323624
-0.37766
-0.433002
-0.488976
-0.545724
-0.601661
-0.656034
-0.708521
-0.75724
-0.800678
-0.838218
-0.866485
-0.885328
-0.894371
-0.893242
-0.881749
-0.860377
-0.829338
-0.790242
-0.744591
-0.693284
-0.638039
-0.580369
-0.521566
-0.462831
-0.405176
-0.349397
-0.296075
-0.245694
-0.198589
-0.154865
-0.11462
-0.0778546
-0.044465
-0.0143486
0.0126499
0.036706
0.0580018
0.0767203
0.0930599
0.107174
0.119151
0.129124
0.137194
0.143513
0.148326
0.151805
0.154102
0.155374
0.155617
0.155011
0.153612
0.151445
0.148638
0.14519
0.141184
0.136662
0.131662
0.126261
0.120463
0.114301
0.107819
0.101087
0.094097
0.0868857
0.0795092
0.0719887
0.0643481
0.056629
0.0488255
0.0409654
0.0330048
0.024867
0.0163231
0.00758424
0.00126291
0.369719
0.228429
0.180149
0.140527
0.100851
0.0633041
0.0257
-0.0124143
-0.0520613
-0.0939197
-0.137482
-0.183321
-0.231638
-0.282338
-0.335454
-0.390555
-0.44729
-0.504906
-0.56283
-0.620311
-0.676305
-0.73031
-0.78053
-0.825256
-0.863358
-0.892317
-0.911407
-0.920357
-0.91923
-0.907243
-0.885067
-0.853167
-0.812836
-0.765693
-0.712956
-0.656211
-0.597037
-0.536722
-0.476532
-0.417473
-0.360319
-0.305792
-0.254286
-0.206089
-0.16144
-0.120337
-0.0828031
-0.0487711
-0.0180462
0.00948549
0.033993
0.0556522
0.0747281
0.0913553
0.105724
0.117946
0.128128
0.136379
0.142837
0.147775
0.151345
0.153733
0.155045
0.155356
0.154794
0.153419
0.151296
0.1485
0.145066
0.141096
0.136589
0.131607
0.126199
0.120401
0.114278
0.107821
0.101075
0.0940715
0.0868944
0.0795294
0.0720178
0.0643893
0.0566567
0.0488806
0.0410234
0.033013
0.0249253
0.0164133
0.00763883
0.00129778
0.365931
0.224569
0.176273
0.136562
0.0966771
0.0589783
0.0212766
-0.0173531
-0.0573745
-0.0992842
-0.14348
-0.190226
-0.239413
-0.290623
-0.3446
-0.400834
-0.458081
-0.516612
-0.575813
-0.634337
-0.692135
-0.747208
-0.798526
-0.844445
-0.882997
-0.912517
-0.930875
-0.9399
-0.939211
-0.92687
-0.903959
-0.871218
-0.829974
-0.781948
-0.728056
-0.670166
-0.609811
-0.548327
-0.487011
-0.426891
-0.368728
-0.313245
-0.260853
-0.211879
-0.166481
-0.124729
-0.0866122
-0.0520511
-0.0208865
0.00702046
0.031887
0.053863
0.0731644
0.0900276
0.104582
0.116988
0.127324
0.135724
0.14231
0.147338
0.15098
0.153426
0.15478
0.155133
0.154613
0.153252
0.151165
0.148389
0.144979
0.141011
0.136523
0.131566
0.126158
0.120383
0.114246
0.107785
0.101065
0.0941009
0.086901
0.0795533
0.0720638
0.0644664
0.056815
0.0490415
0.0411259
0.0331138
0.0249815
0.0163417
0.00752019
0.00121693
0.363666
0.222109
0.173845
0.13405
0.0939058
0.0561548
0.0182527
-0.0203872
-0.0607739
-0.103236
-0.147709
-0.194601
-0.243871
-0.296086
-0.350518
-0.40714
-0.465432
-0.524877
-0.584737
-0.644265
-0.702669
-0.758485
-0.810953
-0.857337
-0.896288
-0.925991
-0.944415
-0.953182
-0.952395
-0.939888
-0.916508
-0.883527
-0.841777
-0.792798
-0.738137
-0.679524
-0.618411
-0.556178
-0.494118
-0.433249
-0.374408
-0.318279
-0.265312
-0.215799
-0.169887
-0.127712
-0.0892225
-0.0543034
-0.0228397
0.00534837
0.0304449
0.0526157
0.0721125
0.0891126
0.103779
0.116327
0.126771
0.135247
0.141944
0.146995
0.150703
0.153196
0.15458
0.154975
0.154465
0.153134
0.151043
0.148281
0.144912
0.140935
0.136451
0.13152
0.126132
0.120341
0.114239
0.107794
0.101048
0.0940972
0.0869121
0.0795635
0.0720404
0.0644384
0.0566989
0.0488949
0.0408619
0.0328183
0.02487
0.0163037
0.00778788
0.00150997
0.362648
0.22104
0.172748
0.132946
0.0926798
0.0548953
0.0170707
-0.0217432
-0.0621537
-0.10478
-0.149479
-0.196548
-0.246521
-0.298698
-0.353443
-0.410568
-0.469095
-0.528694
-0.588982
-0.648987
-0.707539
-0.763987
-0.817019
-0.863878
-0.9033
-0.932869
-0.951208
-0.959681
-0.959004
-0.946722
-0.923018
-0.889543
-0.847603
-0.798229
-0.743195
-0.684222
-0.622711
-0.560094
-0.497662
-0.43643
-0.377285
-0.320834
-0.267561
-0.217785
-0.171632
-0.12922
-0.0905104
-0.0554254
-0.0238217
0.00450386
0.0297002
0.0519786
0.0715524
0.0886286
0.103366
0.115963
0.12646
0.134996
0.141717
0.146811
0.150546
0.153067
0.154475
0.154862
0.154367
0.153061
0.151004
0.148236
0.144848
0.14088
0.136426
0.131494
0.12611
0.120328
0.114191
0.107781
0.101061
0.0940925
0.0869407
0.0796097
0.0721328
0.0645631
0.0568929
0.0491501
0.041275
0.0332345
0.0250601
0.0163553
0.00750811
0.00120475
0.362992
0.221378
0.173086
0.133273
0.0929946
0.0552735
0.0175519
-0.0213925
-0.0617644
-0.104483
-0.149117
-0.196144
-0.246114
-0.298321
-0.353157
-0.41024
-0.468762
-0.528423
-0.588669
-0.648684
-0.707225
-0.763699
-0.8167
-0.863557
-0.902974
-0.932555
-0.950914
-0.959428
-0.958739
-0.946293
-0.92277
-0.88941
-0.847478
-0.798096
-0.743065
-0.684105
-0.622609
-0.56002
-0.497628
-0.436378
-0.37723
-0.320798
-0.267546
-0.217772
-0.171626
-0.129247
-0.0905718
-0.0554976
-0.0238858
0.00443452
0.0296251
0.0518957
0.0714656
0.0885368
0.103271
0.115866
0.126368
0.134893
0.141624
0.14673
0.15046
0.152976
0.154384
0.154781
0.1543
0.152991
0.150911
0.148167
0.144782
0.140851
0.136397
0.13145
0.126068
0.120311
0.114189
0.107768
0.101069
0.0941123
0.0869732
0.0796332
0.0721412
0.0645332
0.0567954
0.0489876
0.0410666
0.0330174
0.0250127
0.0165298
0.00775766
0.00134653
0.364806
0.223175
0.174907
0.13512
0.0949803
0.0572665
0.0194003
-0.0192379
-0.0595404
-0.102041
-0.146592
-0.193466
-0.242942
-0.295174
-0.34939
-0.406331
-0.464529
-0.523812
-0.583895
-0.643466
-0.701668
-0.757707
-0.810204
-0.856544
-0.895725
-0.925632
-0.943942
-0.952721
-0.951807
-0.939424
-0.916144
-0.883006
-0.841398
-0.792449
-0.737805
-0.679235
-0.618141
-0.555958
-0.493949
-0.433107
-0.374334
-0.318228
-0.265265
-0.215775
-0.169925
-0.127769
-0.0892851
-0.0543945
-0.022954
0.00521226
0.0302915
0.0524493
0.0719302
0.0889122
0.103574
0.116121
0.126565
0.135036
0.141718
0.146792
0.150506
0.152996
0.154387
0.154802
0.154293
0.152965
0.150906
0.148148
0.144771
0.140813
0.136361
0.131439
0.126055
0.120304
0.114178
0.107763
0.101071
0.0941253
0.086992
0.0796538
0.0721765
0.0645955
0.0569053
0.0491518
0.0413487
0.0333827
0.0251508
0.0164478
0.00762314
0.00129136
0.368036
0.226475
0.178168
0.138512
0.0986452
0.0609333
0.0231483
-0.0153358
-0.0555916
-0.0974224
-0.14146
-0.188426
-0.237592
-0.28889
-0.342941
-0.39913
-0.456662
-0.515305
-0.57438
-0.633234
-0.690648
-0.745792
-0.797375
-0.842944
-0.881532
-0.911384
-0.930534
-0.939599
-0.938498
-0.925891
-0.90294
-0.870539
-0.829426
-0.781369
-0.727502
-0.669673
-0.609383
-0.547981
-0.486754
-0.426644
-0.368561
-0.313134
-0.260797
-0.211872
-0.166502
-0.124825
-0.0867637
-0.0522105
-0.0210876
0.00679863
0.0316069
0.0535566
0.0728659
0.0896875
0.10423
0.116638
0.126975
0.135365
0.141956
0.146985
0.150642
0.153072
0.154447
0.154823
0.154294
0.152968
0.150898
0.148126
0.144743
0.140807
0.136341
0.131408
0.126044
0.120279
0.114186
0.107781
0.101086
0.0941462
0.0870184
0.0796877
0.072218
0.0646491
0.0569538
0.04919
0.0413348
0.033236
0.0250374
0.0164689
0.00771194
0.00134118
0.372556
0.231224
0.182958
0.143382
0.103733
0.0661956
0.0284916
-0.00972362
-0.049407
-0.0912916
-0.134946
-0.180905
-0.229213
-0.280086
-0.333303
-0.388551
-0.44497
-0.502488
-0.560901
-0.618567
-0.674577
-0.728539
-0.778849
-0.8234
-0.861739
-0.891072
-0.910307
-0.919372
-0.918139
-0.906064
-0.883856
-0.852249
-0.812033
-0.764829
-0.712188
-0.655549
-0.596443
-0.536233
-0.476139
-0.417149
-0.3601
-0.305639
-0.254216
-0.206107
-0.161509
-0.120476
-0.0829991
-0.0489932
-0.0183362
0.00910661
0.0336093
0.0552612
0.0742699
0.0908629
0.105225
0.117444
0.127622
0.135867
0.14233
0.147256
0.150854
0.153237
0.154556
0.154918
0.154363
0.152995
0.150901
0.148143
0.144754
0.140809
0.136333
0.13139
0.126033
0.120276
0.11419
0.107788
0.101092
0.0941601
0.0870359
0.0797188
0.0722569
0.0646648
0.0570246
0.0493138
0.0415388
0.033579
0.0253215
0.0165852
0.00758256
0.00112054
0.378577
0.237343
0.189067
0.149647
0.110124
0.0727382
0.0354509
-0.00244761
-0.0417945
-0.0826754
-0.125617
-0.171243
-0.218939
-0.268787
-0.320853
-0.374786
-0.430163
-0.486606
-0.543269
-0.599251
-0.653896
-0.70642
-0.755215
-0.798596
-0.836017
-0.864662
-0.883869
-0.892924
-0.8918
-0.880358
-0.858852
-0.828066
-0.789138
-0.743495
-0.692325
-0.637204
-0.579644
-0.520958
-0.462359
-0.404796
-0.349103
-0.295903
-0.245625
-0.198622
-0.154979
-0.11481
-0.0781245
-0.0447996
-0.014744
0.0121876
0.0361933
0.0574387
0.0761269
0.0924436
0.10653
0.118497
0.128461
0.13653
0.142868
0.147666
0.151153
0.15348
0.154726
0.155031
0.154442
0.153061
0.150954
0.148168
0.144753
0.140805
0.136333
0.131382
0.126032
0.120287
0.11419
0.107776
0.101107
0.0942029
0.0870654
0.0797607
0.0723023
0.0647188
0.0570583
0.0493484
0.0413466
0.0332641
0.0252399
0.0166695
0.00783694
0.00136146
0.385837
0.244676
0.196459
0.157157
0.118028
0.0811256
0.0440546
0.00667209
-0.0322245
-0.0728284
-0.11507
-0.159686
-0.206441
-0.255111
-0.305936
-0.358304
-0.412175
-0.466921
-0.521887
-0.576348
-0.629171
-0.679598
-0.726819
-0.769091
-0.805077
-0.832967
-0.851709
-0.860921
-0.859818
-0.848976
-0.828529
-0.798965
-0.761666
-0.717448
-0.668128
-0.614926
-0.559241
-0.502441
-0.445635
-0.389814
-0.335764
-0.284118
-0.235273
-0.18953
-0.147076
-0.107969
-0.0721979
-0.0397265
-0.0103977
0.0159027
0.0393579
0.0601361
0.0783853
0.0943409
0.108126
0.119791
0.129514
0.137345
0.143473
0.148168
0.151525
0.153755
0.154962
0.155203
0.154566
0.153149
0.150999
0.148198
0.144793
0.140826
0.136337
0.13138
0.126025
0.120285
0.114209
0.107815
0.101135
0.0942305
0.0870861
0.0798026
0.0723495
0.0647706
0.0570922
0.0493426
0.0414721
0.0334882
0.0253463
0.01664
0.00773155
0.00131505
0.394373
0.25326
0.205327
0.16614
0.126938
0.0902114
0.053954
0.0169947
-0.021295
-0.0610555
-0.102462
-0.146346
-0.191743
-0.239028
-0.288552
-0.339592
-0.391669
-0.444553
-0.49749
-0.549898
-0.600651
-0.649288
-0.694399
-0.7349
-0.769484
-0.796411
-0.814734
-0.823587
-0.822893
-0.812891
-0.79343
-0.765374
-0.729775
-0.68757
-0.640191
-0.589169
-0.535679
-0.481028
-0.426329
-0.372536
-0.320396
-0.270512
-0.223308
-0.179081
-0.137961
-0.100061
-0.0653727
-0.0338475
-0.0053531
0.0202153
0.0430307
0.063233
0.0810312
0.0965574
0.10996
0.121301
0.130694
0.138273
0.1442
0.148719
0.151987
0.154126
0.15523
0.155401
0.154713
0.153253
0.151089
0.148265
0.144809
0.140833
0.136357
0.131407
0.126028
0.120287
0.114216
0.107816
0.101154
0.0942332
0.0871345
0.0798346
0.0723841
0.0648128
0.0571289
0.0493603
0.0414958
0.0335064
0.0252662
0.0165833
0.00777735
0.00133941
0.404017
0.262876
0.215094
0.175871
0.137197
0.101196
0.0652778
0.0286781
-0.00901694
-0.0479779
-0.088633
-0.131152
-0.17539
-0.221646
-0.269323
-0.318555
-0.368835
-0.419602
-0.470431
-0.520701
-0.569244
-0.615404
-0.658386
-0.697114
-0.729845
-0.756043
-0.77372
-0.782423
-0.782
-0.772688
-0.754321
-0.727879
-0.694142
-0.653988
-0.609007
-0.560404
-0.509368
-0.457166
-0.404815
-0.353273
-0.303259
-0.255364
-0.209987
-0.167387
-0.127808
-0.0912513
-0.0577682
-0.027299
0.000238031
0.0249898
0.0471147
0.0667166
0.0839781
0.0990561
0.112021
0.122985
0.132032
0.139297
0.145011
0.149357
0.152488
0.154505
0.15554
0.155633
0.154913
0.153398
0.151173
0.14831
0.144869
0.140859
0.136361
0.131421
0.126058
0.120312
0.114224
0.107836
0.101182
0.0942755
0.0871511
0.0798581
0.0724015
0.0647844
0.0570781
0.0492554
0.0411162
0.0330918
0.0251944
0.0166751
0.00800734
0.00153875
0.414779
0.273571
0.225897
0.187052
0.148865
0.113018
0.0773539
0.0414851
0.00453503
-0.0337184
-0.0733006
-0.114703
-0.157955
-0.20237
-0.248431
-0.295862
-0.34398
-0.392734
-0.441336
-0.489276
-0.535397
-0.579062
-0.620037
-0.656608
-0.687656
-0.712408
-0.729355
-0.737893
-0.737662
-0.728978
-0.711973
-0.687234
-0.655565
-0.617878
-0.575318
-0.529278
-0.480905
-0.431307
-0.381517
-0.332428
-0.284722
-0.238964
-0.195544
-0.154772
-0.116804
-0.0817131
-0.0495271
-0.0202049
0.00633821
0.0302335
0.0515657
0.0705098
0.087182
0.101741
0.114223
0.124769
0.13345
0.140423
0.145898
0.150052
0.153053
0.154959
0.155866
0.155895
0.155102
0.153536
0.151294
0.14839
0.144903