# vtk DataFile Version 2.0
tracks
ASCII
DATASET POLYDATA
POINTS 774 float
-0.2 -0.2 -0.01 -0.199974 -0.200002 -0.00999582 -0.193944 -0.200369 -0.00902155 -0.187869 -0.200734
-0.00799379 -0.175981 -0.20144 -0.00590548 -0.16278 -0.202232 -0.00315077 -0.15006 -0.203788 0.000755521
-0.148978 -0.20399 0.00120666 -0.13772 -0.206224 0.00597945 -0.125212 -0.210457 0.0114748 -0.100336
-0.222356 0.0212541 -0.0938986 -0.225261 0.0216083 -0.0753941 -0.233182 0.0220332 -0.0503296 -0.242253
0.0231338 -0.025292 -0.248474 0.0229688 -0.0172173 -0.250169 0.0228521 -0.000229406 -0.253499 0.0227607
0.0498906 -0.262171 0.0235562 0.0999636 -0.267436 0.0221252 0.149984 -0.269619 0.0192119 0.199994
-0.271487 0.0167361 0.299999 -0.27769 0.0173579 0.4 -0.278873 0.0156764 0.5 -0.27964
0.0145536 0.6 -0.280046 0.0137427 0.7 -0.280229 0.0131375 0.8 -0.280292 0.0126762
0.9 -0.280295 0.0123174 1 -0.280269 0.012033 1.1 -0.280232 0.0118035 1.2
-0.280193 0.0116152 1.3 -0.280154 0.0114584 1.4 -0.28012 0.011326 1.5 -0.280089
0.0112128 1.6 -0.280062 0.011115 1.7 -0.280038 0.0110296 1.8 -0.280018 0.0109545
1.9 -0.280001 0.0108878 2 -0.279986 0.0108283 2.1 -0.279974 0.0107747 2.2
-0.279963 0.0107264 2.3 -0.279954 0.0106825 2.4 -0.279946 0.0106425 2.5 -0.27994
0.010606 2.6 -0.279934 0.0105724 2.7 -0.279929 0.0105416 2.8 -0.279925 0.0105131
2.9 -0.279921 0.0104868 3 -0.279918 0.0104625 3.1 -0.279915 0.01044 3.2
-0.279913 0.0104192 3.3 -0.279911 0.0103998 3.4 -0.279909 0.0103818 3.5 -0.279907
0.0103651 3.6 -0.279906 0.0103496 3.7 -0.279905 0.0103352 3.8 -0.279904 0.0103218
3.9 -0.279903 0.0103093 4 -0.279902 0.0102978 4.1 -0.279902 0.0102871 4.2
-0.279901 0.0102772 4.3 -0.279901 0.010268 4.4 -0.2799 0.0102596 4.5 -0.2799
0.0102518 4.6 -0.2799 0.0102447 4.7 -0.279899 0.0102381 4.8 -0.279899 0.0102322
4.9 -0.279899 0.0102268 5 -0.279899 0.0102219 5.1 -0.279899 0.0102176 5.2
-0.279899 0.0102137 5.3 -0.279899 0.0102104 5.4 -0.279899 0.0102075 5.5 -0.279899
0.0102051 5.6 -0.2799 0.0102031 5.7 -0.2799 0.0102016 5.8 -0.2799 0.0102004
5.9 -0.2799 0.0101996 6 -0.2799 0.0101992 -6.91738e-17 -0.2 -0.01 0.000302353
-0.200025 -0.0100054 0.0499777 -0.204185 -0.010904 0.0999908 -0.207007 -0.0121475 0.199998 -0.212897
-0.0123469 0.3 -0.21664 -0.0119815 0.4 -0.217817 -0.0130474 0.5 -0.218474 -0.0138841
0.6 -0.218817 -0.0145304 0.7 -0.21898 -0.0150333 0.8 -0.219043 -0.0154293 0.9
-0.219054 -0.0157452 1 -0.21904 -0.0160008 1.1 -0.219014 -0.0162104 1.2 -0.218984
-0.0163846 1.3 -0.218955 -0.0165312 1.4 -0.218928 -0.0166561 1.5 -0.218904 -0.0167636
1.6 -0.218883 -0.016857 1.7 -0.218864 -0.016939 1.8 -0.218848 -0.0170114 1.9
-0.218835 -0.017076 2 -0.218823 -0.0171338 2.1 -0.218813 -0.0171859 2.2 -0.218805
-0.017233 2.3 -0.218797 -0.017276 2.4 -0.218791 -0.0173151 2.5 -0.218786 -0.017351
2.6 -0.218781 -0.017384 2.7 -0.218777 -0.0174144 2.8 -0.218774 -0.0174424 2.9
-0.218771 -0.0174683 3 -0.218769 -0.0174923 3.1 -0.218766 -0.0175145 3.2 -0.218765
-0.0175351 3.3 -0.218763 -0.0175543 3.4 -0.218762 -0.0175721 3.5 -0.21876 -0.0175886
3.6 -0.218759 -0.017604 3.7 -0.218758 -0.0176183 3.8 -0.218758 -0.0176316 3.9
-0.218757 -0.0176439 4 -0.218756 -0.0176553 4.1 -0.218756 -0.0176659 4.2 -0.218755
-0.0176758 4.3 -0.218755 -0.0176849 4.4 -0.218755 -0.0176933 4.5 -0.218754 -0.017701
4.6 -0.218754 -0.0177081 4.7 -0.218754 -0.0177146 4.8 -0.218754 -0.0177205 4.9
-0.218754 -0.0177258 5 -0.218754 -0.0177307 5.1 -0.218754 -0.017735 5.2 -0.218754
-0.0177388 5.3 -0.218754 -0.0177421 5.4 -0.218754 -0.017745 5.5 -0.218754 -0.0177474
5.6 -0.218755 -0.0177494 5.7 -0.218755 -0.0177509 5.8 -0.218755 -0.0177521 5.9
-0.218755 -0.0177529 6 -0.218755 -0.0177533 0.2 -0.2 -0.01 0.200027 -0.200001
-0.0100001 0.3 -0.203271 -0.0102121 0.4 -0.204422 -0.0113128 0.5 -0.205051 -0.0121706
0.6 -0.205381 -0.0128295 0.7 -0.20554 -0.0133399 0.8 -0.205603 -0.0137404 0.9
-0.205616 -0.0140593 1 -0.205604 -0.0143169 1.1 -0.205581 -0.014528 1.2 -0.205554
-0.0147033 1.3 -0.205527 -0.0148507 1.4 -0.205501 -0.0149762 1.5 -0.205479 -0.0150842
1.6 -0.205459 -0.0151781 1.7 -0.205442 -0.0152603 1.8 -0.205427 -0.0153331 1.9
-0.205414 -0.0153978 2 -0.205403 -0.0154558 2.1 -0.205394 -0.015508 2.2 -0.205386
-0.0155553 2.3 -0.205379 -0.0155983 2.4 -0.205373 -0.0156376 2.5 -0.205368 -0.0156735
2.6 -0.205364 -0.0157066 2.7 -0.20536 -0.015737 2.8 -0.205357 -0.0157651 2.9
-0.205354 -0.015791 3 -0.205352 -0.015815 3.1 -0.20535 -0.0158373 3.2 -0.205348
-0.0158579 3.3 -0.205346 -0.0158771 3.4 -0.205345 -0.0158949 3.5 -0.205344 -0.0159115
3.6 -0.205343 -0.0159269 3.7 -0.205342 -0.0159412 3.8 -0.205341 -0.0159544 3.9
-0.205341 -0.0159668 4 -0.20534 -0.0159782 4.1 -0.20534 -0.0159889 4.2 -0.205339
-0.0159987 4.3 -0.205339 -0.0160078 4.4 -0.205339 -0.0160162 4.5 -0.205338 -0.0160239
4.6 -0.205338 -0.016031 4.7 -0.205338 -0.0160375 4.8 -0.205338 -0.0160434 4.9
-0.205338 -0.0160488 5 -0.205338 -0.0160536 5.1 -0.205338 -0.0160579 5.2 -0.205338
-0.0160618 5.3 -0.205338 -0.0160651 5.4 -0.205338 -0.016068 5.5 -0.205338 -0.0160704
5.6 -0.205339 -0.0160724 5.7 -0.205339 -0.0160739 5.8 -0.205339 -0.0160751 5.9
-0.205339 -0.0160759 6 -0.205339 -0.0160763 0.4 -0.2 -0.01 0.4 -0.2
-0.01 0.4 -0.2 -0.01 0.5 -0.200621 -0.0108738 0.6 -0.200947 -0.011542
0.7 -0.201104 -0.0120578 0.8 -0.201168 -0.0124618 0.9 -0.201181 -0.0127829 1
-0.20117 -0.0130419 1.1 -0.201148 -0.013254 1.2 -0.201121 -0.0134301 1.3 -0.201095
-0.0135781 1.4 -0.201071 -0.013704 1.5 -0.201048 -0.0138123 1.6 -0.201029 -0.0139064
1.7 -0.201012 -0.0139889 1.8 -0.200998 -0.0140618 1.9 -0.200985 -0.0141267 2
-0.200974 -0.0141847 2.1 -0.200965 -0.0142371 2.2 -0.200957 -0.0142845 2.3 -0.200951
-0.0143275 2.4 -0.200945 -0.0143668 2.5 -0.20094 -0.0144029 2.6 -0.200936 -0.0144359
2.7 -0.200932 -0.0144664 2.8 -0.200929 -0.0144945 2.9 -0.200927 -0.0145204 3
-0.200924 -0.0145445 3.1 -0.200922 -0.0145667 3.2 -0.200921 -0.0145874 3.3 -0.200919
-0.0146066 3.4 -0.200918 -0.0146244 3.5 -0.200917 -0.014641 3.6 -0.200916 -0.0146564
3.7 -0.200915 -0.0146707 3.8 -0.200914 -0.014684 3.9 -0.200913 -0.0146963 4
-0.200913 -0.0147078 4.1 -0.200912 -0.0147184 4.2 -0.200912 -0.0147283 4.3 -0.200912
-0.0147374 4.4 -0.200911 -0.0147458 4.5 -0.200911 -0.0147535 4.6 -0.200911 -0.0147606
4.7 -0.200911 -0.0147671 4.8 -0.200911 -0.014773 4.9 -0.200911 -0.0147784 5
-0.200911 -0.0147832 5.1 -0.200911 -0.0147876 5.2 -0.200911 -0.0147914 5.3 -0.200911
-0.0147947 5.4 -0.200911 -0.0147976 5.5 -0.200911 -0.0148 5.6 -0.200911 -0.014802
5.7 -0.200912 -0.0148035 5.8 -0.200912 -0.0148047 5.9 -0.200912 -0.0148055 6
-0.200912 -0.0148059 -0.2 3.54365e-17 -0.01 -0.196003 -1.38267e-06 -0.00961912 -0.187693 -3.94584e-06
-0.00896163 -0.174997 -6.63234e-06 -0.00838043 -0.174923 -6.64135e-06 -0.00837853 -0.149662 -9.68917e-06 -0.00773596
-0.124821 -1.12993e-05 -0.0102927 -0.0999144 -1.37172e-05 -0.0127505 -0.0499775 -1.94611e-05 -0.0155913 5.55051e-06
-2.57527e-05 -0.0180818 0.100001 -3.58017e-05 -0.0193371 0.2 -4.00187e-05 -0.0212086 0.3 -4.1765e-05
-0.0225909 0.4 -4.24624e-05 -0.023601 0.5 -4.27652e-05 -0.0243672 0.6 -4.2907e-05 -0.0249603
0.7 -4.29831e-05 -0.0254263 0.8 -4.30338e-05 -0.0257974 0.9 -4.30742e-05 -0.0260968 1
-4.31105e-05 -0.0263414 1.1 -4.31449e-05 -0.0265437 1.2 -4.31775e-05 -0.0267129 1.3 -4.32086e-05
-0.0268562 1.4 -4.32369e-05 -0.0269787 1.5 -4.32611e-05 -0.0270845 1.6 -4.32831e-05 -0.0271767
1.7 -4.3305e-05 -0.0272578 1.8 -4.33253e-05 -0.0273296 1.9 -4.33428e-05 -0.0273936 2
-4.33585e-05 -0.027451 2.1 -4.33733e-05 -0.0275028 2.2 -4.33871e-05 -0.0275497 2.3 -4.34e-05
-0.0275924 2.4 -4.34125e-05 -0.0276314 2.5 -4.34244e-05 -0.0276672 2.6 -4.34361e-05 -0.0277001
2.7 -4.34486e-05 -0.0277303 2.8 -4.34613e-05 -0.0277583 2.9 -4.34741e-05 -0.0277841 3
-4.34874e-05 -0.0278081 3.1 -4.35017e-05 -0.0278302 3.2 -4.35174e-05 -0.0278508 3.3 -4.35342e-05
-0.0278699 3.4 -4.35516e-05 -0.0278877 3.5 -4.357e-05 -0.0279042 3.6 -4.35895e-05 -0.0279196
3.7 -4.36112e-05 -0.0279338 3.8 -4.36351e-05 -0.0279471 3.9 -4.36606e-05 -0.0279594 4
-4.36886e-05 -0.0279708 4.1 -4.37197e-05 -0.0279814 4.2 -4.37548e-05 -0.0279912 4.3 -4.37941e-05
-0.0280003 4.4 -4.38389e-05 -0.0280087 4.5 -4.38914e-05 -0.0280164 4.6 -4.39531e-05 -0.0280235
4.7 -4.40255e-05 -0.02803 4.8 -4.41113e-05 -0.0280359 4.9 -4.42123e-05 -0.0280412 5
-4.43308e-05 -0.0280461 5.1 -4.44701e-05 -0.0280504 5.2 -4.46324e-05 -0.0280542 5.3 -4.48193e-05
-0.0280576 5.4 -4.50291e-05 -0.0280605 5.5 -4.52559e-05 -0.0280629 5.6 -4.54907e-05 -0.0280649
5.7 -4.57184e-05 -0.0280665 5.8 -4.59157e-05 -0.0280677 5.9 -4.60625e-05 -0.0280685 6
-4.61453e-05 -0.028069 -1.61646e-16 3.29607e-17 -0.01 6.19886e-06 -5.80996e-10 -0.0100001 0.000153627 -1.43988e-08
-0.0100033 0.100001 -9.24337e-06 -0.0125847 0.2 -1.33166e-05 -0.0146289 0.3 -1.4905e-05 -0.0161114
0.4 -1.54818e-05 -0.017183 0.5 -1.57098e-05 -0.0179887 0.6 -1.58093e-05 -0.018608 0.7
-1.58638e-05 -0.0190918 0.8 -1.59052e-05 -0.0194752 0.9 -1.59432e-05 -0.0197833 1 -1.59807e-05
-0.0200342 1.1 -1.60179e-05 -0.020241 1.2 -1.60541e-05 -0.0204137 1.3 -1.60889e-05 -0.0205595
1.4 -1.61207e-05 -0.0206839 1.5 -1.61482e-05 -0.0207912 1.6 -1.61731e-05 -0.0208846 1.7
-1.61976e-05 -0.0209666 1.8 -1.62202e-05 -0.0210391 1.9 -1.62397e-05 -0.0211037 2 -1.62573e-05
-0.0211616 2.1 -1.62737e-05 -0.0212138 2.2 -1.62889e-05 -0.0212611 2.3 -1.6303e-05 -0.0213041
2.4 -1.63166e-05 -0.0213433 2.5 -1.63295e-05 -0.0213793 2.6 -1.63421e-05 -0.0214123 2.7
-1.63555e-05 -0.0214427 2.8 -1.63688e-05 -0.0214708 2.9 -1.63823e-05 -0.0214967 3 -1.63963e-05
-0.0215207 3.1 -1.64111e-05 -0.021543 3.2 -1.64274e-05 -0.0215636 3.3 -1.64446e-05 -0.0215828
3.4 -1.64625e-05 -0.0216006 3.5 -1.64814e-05 -0.0216172 3.6 -1.65013e-05 -0.0216326 3.7
-1.65234e-05 -0.0216469 3.8 -1.65476e-05 -0.0216601 3.9 -1.65734e-05 -0.0216725 4 -1.66017e-05
-0.0216839 4.1 -1.66331e-05 -0.0216946 4.2 -1.66685e-05 -0.0217044 4.3 -1.67081e-05 -0.0217135
4.4 -1.67532e-05 -0.0217219 4.5 -1.68059e-05 -0.0217296 4.6 -1.68679e-05 -0.0217367 4.7
[...]
POINT_DATA 774
FIELD attributes 2
age 1 774 float
0 2.63496e-06 0.000616686 0.00128185 0.00267555 0.00452663 0.00612767 0.00625763 0.00762954 0.00946364 0.0135112
0.0144779 0.017198 0.0206257 0.0238257 0.0248531 0.0269948 0.0332196 0.0390199 0.0445405 0.050142
0.0611901 0.0715394 0.081746 0.0918969 0.102009 0.112094 0.122159 0.13221 0.142251 0.152283
0.16231 0.172331 0.182349 0.192364 0.202377 0.212387 0.222396 0.232404 0.242411 0.252416
0.262421 0.272425 0.282429 0.292432 0.302435 0.312438 0.32244 0.332442 0.342443 0.352445
0.362446 0.372448 0.382449 0.39245 0.402451 0.412451 0.422452 0.432453 0.442453 0.452454
0.462454 0.472455 0.482455 0.492455 0.502456 0.512456 0.522456 0.532457 0.542457 0.552457
0.562457 0.572457 0.582458 0.592458 0.602458 0.612458 0.622459 0.632459 0 3.40995e-05
0.00563727 0.0112305 0.0222353 0.0329044 0.0431662 0.0533506 0.0634893 0.0735955 0.0836778 0.0937425
0.103794 0.113835 0.123868 0.133896 0.143918 0.153937 0.163952 0.173965 0.183976 0.193985
0.203993 0.214 0.224006 0.234011 0.244016 0.254019 0.264023 0.274026 0.284028 0.294031
0.304033 0.314034 0.324036 0.334037 0.344039 0.35404 0.364041 0.374042 0.384043 0.394043
0.404044 0.414045 0.424045 0.434046 0.444046 0.454047 0.464047 0.474047 0.484048 0.494048
0.504048 0.514048 0.524049 0.534049 0.544049 0.554049 0.56405 0.57405 0.58405 0.59405
0.604051 0 2.90965e-06 0.0105809 0.0208282 0.0310063 0.0411413 0.0512453 0.0613264 0.0713904
0.0814413 0.0914824 0.101516 0.111543 0.121565 0.131584 0.141599 0.151612 0.161624 0.171633
0.181641 0.191648 0.201654 0.211659 0.221663 0.231667 0.24167 0.251673 0.261676 0.271678
0.28168 0.291682 0.301683 0.311685 0.321686 0.331687 0.341688 0.351689 0.36169 0.371691
0.381691 0.391692 0.401693 0.411693 0.421694 0.431694 0.441694 0.451695 0.461695 0.471695
0.481696 0.491696 0.501696 0.511696 0.521697 0.531697 0.541697 0.551697 0.561698 0.571698
0.581698 0 0 0 0.0101762 0.0203099 0.0304131 0.0404937 0.0505574 0.0606083
0.0706492 0.0806825 0.0907097 0.100732 0.110751 0.120766 0.130779 0.14079 0.1508 0.160808
0.170814 0.18082 0.190825 0.20083 0.210834 0.220837 0.23084 0.240843 0.250845 0.260847
0.270849 0.28085 0.290852 0.300853 0.310854 0.320855 0.330856 0.340857 0.350858 0.360858
0.370859 0.380859 0.39086 0.40086 0.410861 0.420861 0.430862 0.440862 0.450862 0.460862
0.470863 0.480863 0.490863 0.500863 0.510864 0.520864 0.530864 0.540864 0.550865 0.560865
0 0.000521564 0.00161126 0.00328812 0.00329794 0.00663214 0.00967891 0.012511 0.018053 0.0234635
0.034201 0.0445373 0.0547513 0.0649181 0.0750538 0.0851646 0.0952551 0.105329 0.115389 0.125438
0.135479 0.145512 0.15554 0.165563 0.175582 0.185597 0.195611 0.205622 0.215632 0.22564
0.235647 0.245653 0.255658 0.265663 0.275667 0.28567 0.295673 0.305676 0.315678 0.325681
0.335682 0.345684 0.355686 0.365687 0.375688 0.385689 0.39569 0.405691 0.415692 0.425692
0.435693 0.445693 0.455694 0.465694 0.475695 0.485695 0.495696 0.505696 0.515696 0.525697
0.535697 0.545697 0.555697 0.565698 0.575698 0.585698 0.595698 0.605699 0.615699 0.625699
0 6.63639e-07 1.6447e-05 0.0106666 0.0210056 0.0312186 0.0413845 0.0515195 0.0616296 0.0717195
0.0817929 0.0918529 0.101902 0.111942 0.121975 0.132003 0.142025 0.152044 0.16206 0.172074
0.182085 0.192094 0.202103 0.21211 0.222116 0.232121 0.242125 0.252129 0.262133 0.272136
0.282138 0.292141 0.302143 0.312145 0.322146 0.332148 0.342149 0.35215 0.362151 0.372152
0.382153 0.392154 0.402155 0.412155 0.422156 0.432156 0.442157 0.452157 0.462158 0.472158
0.482158 0.492159 0.502159 0.512159 0.522159 0.53216 0.54216 0.55216 0.56216 0.57216
0.582161 0.592161 0.602161 0 0 4.18757e-06 0.0102124 0.0203776 0.030512 0.0406217
0.0507113 0.0607844 0.0708441 0.080893 0.090933 0.100966 0.110993 0.121016 0.131035 0.141051
0.151064 0.161075 0.171085 0.181093 0.1911 0.201106 0.211111 0.221116 0.23112 0.241123
0.251126 0.261129 0.271131 0.281133 0.291135 0.301137 0.311138 0.321139 0.33114 0.341141
0.351142 0.361143 0.371144 0.381145 0.391145 0.401146 0.411146 0.421147 0.431147 0.441148
0.451148 0.461148 0.471149 0.481149 0.491149 0.501149 0.51115 0.52115 0.53115 0.54115
0.551151 0.561151 0.571151 0.581151 0 2.25013e-17 2.08035e-06 0.0101341 0.0202435 0.0303329
0.0404058 0.0504654 0.0605141 0.0705541 0.0805871 0.0906143 0.100637 0.110656 0.120672 0.130685
0.140696 0.150706 0.160714 0.170721 0.180727 0.190732 0.200736 0.21074 0.220744 0.230747
0.240749 0.250752 0.260754 0.270756 0.280757 0.290759 0.30076 0.310761 0.320762 0.330763
0.340764 0.350765 0.360765 0.370766 0.380767 0.390767 0.400768 0.410768 0.420768 0.430769
0.440769 0.450769 0.46077 0.47077 0.48077 0.49077 0.500771 0.510771 0.520771 0.530771
0.540771 0.550772 0.560772 0 2.52034e-06 0.000616405 0.00128237 0.00267652 0.00452825 0.00613066
0.00626346 0.00763407 0.00946998 0.0135226 0.0144898 0.0171808 0.0205975 0.0237867 0.0250651 0.0269471
0.0331538 0.0389789 0.0444991 0.0501003 0.0611452 0.0715285 0.0817338 0.0918838 0.101996 0.11208
0.122146 0.132197 0.142237 0.15227 0.162296 0.172318 0.182336 0.192351 0.202363 0.212374
0.222383 0.23239 0.242397 0.252403 0.262408 0.272412 0.282416 0.292419 0.302422 0.312424
0.322426 0.332428 0.34243 0.352431 0.362433 0.372434 0.382435 0.392436 0.402437 0.412438
0.422438 0.432439 0.44244 0.45244 0.462441 0.472441 0.482442 0.492442 0.502442 0.512443
0.522443 0.532443 0.542443 0.552444 0.562444 0.572444 0.582444 0.592444 0.602445 0.612445
0.622445 0.632445 0 3.28038e-05 0.00563431 0.0112256 0.0222285 0.0328969 0.0431651 0.0533501
0.0634892 0.0735955 0.0836779 0.0937426 0.103794 0.113835 0.123869 0.133896 0.143918 0.153937
0.163952 0.173965 0.183976 0.193986 0.203994 0.214 0.224006 0.234011 0.244016 0.25402
0.264023 0.274026 0.284028 0.294031 0.304033 0.314035 0.324036 0.334038 0.344039 0.35404
0.364041 0.374042 0.384043 0.394043 0.404044 0.414045 0.424045 0.434046 0.444046 0.454047
0.464047 0.474047 0.484048 0.494048 0.504048 0.514049 0.524049 0.534049 0.544049 0.55405
0.56405 0.57405 0.58405 0.594051 0.604051 0 2.90892e-06 0.0105804 0.0208293 0.0310076
0.0411427 0.0512467 0.0613279 0.0713918 0.0814428 0.0914838 0.101517 0.111544 0.121567 0.131585
0.141601 0.151614 0.161625 0.171634 0.181642 0.191649 0.201655 0.21166 0.221665 0.231668
0.241672 0.251675 0.261677 0.27168 0.281682 0.291683 0.301685 0.311686 0.321688 0.331689
0.34169 0.351691 0.361692 0.371692 0.381693 0.391694 0.401694 0.411695 0.421695 0.431696
0.441696 0.451696 0.461697 0.471697 0.481697 0.491697 0.501698 0.511698 0.521698 0.531698
0.541699 0.551699 0.561699 0.571699 0.5817 0 4.51884e-17 0.0101761 0.0203098 0.030413
0.0404937 0.0505574 0.0606082 0.0706492 0.0806824 0.0907096 0.100732 0.110751 0.120766 0.130779
0.14079 0.1508 0.160808 0.170814 0.18082 0.190825 0.20083 0.210834 0.220837 0.23084
0.240843 0.250845 0.260847 0.270849 0.28085 0.290852 0.300853 0.310854 0.320855 0.330856
0.340857 0.350858 0.360858 0.370859 0.380859 0.39086 0.40086 0.410861 0.420861 0.430862
0.440862 0.450862 0.460862 0.470863 0.480863 0.490863 0.500863 0.510864 0.520864 0.530864
0.540864 0.550865 0.560865 
U 3 774 float
9.82024 -0.598901 1.58598 9.82055 -0.598879 1.58663 9.13293 -0.548341 1.54512 8.52954 -0.506854
1.49839 7.13146 -0.42736 1.48817 7.94538 -0.971868 2.43984 8.31909 -1.55994 3.47142
8.20614 -1.62797 3.47895 6.81982 -2.30829 2.99619 6.1459 -2.93969 2.41612 6.65906
-3.00553 0.366374 6.80285 -2.91184 0.1562 7.31251 -2.6465 0.321101 7.82413 -1.9439
-0.0515443 7.85934 -1.65012 -0.1136 7.93208 -1.55473 -0.0427136 8.05169 -1.39322 0.127812
8.6328 -0.907711 -0.246725 9.06059 -0.395303 -0.527701 8.92809 -0.333513 -0.441996 9.0518
-0.561509 0.0562876 9.66256 -0.114316 -0.162484 9.79753 -0.0750773 -0.11 9.85141 -0.0400367
-0.0798894 9.88902 -0.0180555 -0.0598495 9.91587 -0.00625613 -0.0457402 9.93515 -0.000284169 -0.0356425
9.94921 0.00252853 -0.0282939 9.95966 0.00367131 -0.0228582 9.96756 0.00395408 -0.0187693 9.97363
0.00381439 -0.0156427 9.97837 0.00348654 -0.0132137 9.9821 0.00309374 -0.0112984 9.98508 0.00269817
-0.00976659 9.98748 0.00232932 -0.008525 9.98943 0.0019992 -0.0075062 9.99103 0.00171041 -0.00666015
9.99234 0.00146132 -0.00595005 9.99344 0.00124821 -0.00534773 9.99435 0.00106642 -0.00483167 9.99512
0.000912003 -0.00438587 9.99576 0.000780995 -0.00399728 9.99631 0.000669666 -0.00365585 9.99678 0.000575051
-0.00335392 9.99717 0.000494608 -0.00308485 9.99751 0.000425874 -0.00284375 9.99781 0.000367123 -0.00262632
9.99806 0.000316956 -0.00242928 9.99828 0.000273958 -0.0022503 9.99847 0.000237083 -0.00208667 9.99864
0.000205269 -0.00193633 9.99879 0.00017774 -0.00179789 9.99891 0.000154075 -0.00167019 9.99902 0.00013364
-0.0015518 9.99912 0.000115918 -0.00144164 9.99921 0.00010053 -0.00133922 9.99929 8.7015e-05 -0.00124366
9.99936 7.51316e-05 -0.00115399 9.99942 6.49842e-05 -0.00106976 9.99947 5.61814e-05 -0.00099063 9.99952
4.82059e-05 -0.000915935 9.99957 4.10294e-05 -0.000845267 9.9996 3.44141e-05 -0.000778253 9.99964 2.84635e-05
-0.000714477 9.99967 2.28302e-05 -0.000653735 9.9997 1.74356e-05 -0.000595548 9.99972 1.20939e-05 -0.000539601
9.99974 6.79963e-06 -0.000485859 9.99976 1.5994e-06 -0.000433901 9.99978 -3.98406e-06 -0.00038353 9.99979
-9.74254e-06 -0.000334606 9.99979 -1.5393e-05 -0.00028717 9.99979 -2.04163e-05 -0.000241651 9.99979 -2.37981e-05
-0.00019817 9.99977 -2.45226e-05 -0.000156609 9.99974 -2.22873e-05 -0.000116968 9.99972 -1.70736e-05 -7.90332e-05
9.99971 -9.45972e-06 -4.05414e-05 9.9997 -5.2124e-06 -2.06792e-05 8.86679 -0.743279 -0.159167 8.86559
-0.742289 -0.160377 8.94169 -0.504573 -0.222309 9.08757 -0.535265 -0.0181249 9.37308 -0.350769
0.0342559 9.74489 -0.114759 -0.103875 9.81897 -0.0644725 -0.0821506 9.86313 -0.0338702 -0.0637485
9.89495 -0.0160657 -0.049767 9.91834 -0.00627131 -0.039273 9.93577 -0.0011131 -0.031389 9.94892
0.00144149 -0.0254249 9.95898 0.00256776 -0.020874 9.96676 0.00293244 -0.0173632 9.97284 0.00290819
-0.0146233 9.97763 0.00270021 -0.0124592 9.98145 0.00241906 -0.0107293 9.98452 0.0021228 -0.00932988
9.987 0.00184012 -0.00818492 9.98902 0.00158345 -0.0072377 9.99068 0.00135709 -0.00644559 9.99204
0.00116077 -0.00577673 9.99318 0.000992153 -0.00520635 9.99413 0.000848133 -0.00471536 9.99493 0.000725461
-0.00428925 9.9956 0.000621259 -0.00391647 9.99617 0.00053267 -0.00358785 9.99665 0.00045731 -0.00329626
9.99706 0.000393312 -0.0030357 9.99742 0.000338555 -0.00280153 9.99772 0.000291728 -0.00258992 9.99799
0.000251944 -0.00239778 9.99821 0.000217759 -0.00222271 9.99841 0.000188226 -0.00206244 9.99858 0.000162854
-0.00191509 9.99873 0.000141025 -0.00177917 9.99887 0.000122102 -0.00165353 9.99898 0.000105776 -0.00153689
9.99908 9.17575e-05 -0.00142836 9.99917 7.94637e-05 -0.00132731 9.99926 6.86852e-05 -0.001233 9.99933
5.91038e-05 -0.00114441 9.99939 5.09206e-05 -0.00106111 9.99944 4.40321e-05 -0.000982895 9.9995 3.76e-05
-0.000908939 9.99954 3.16611e-05 -0.000838906 9.99958 2.63284e-05 -0.000772544 9.99962 2.14254e-05 -0.000709351
9.99965 1.66855e-05 -0.000649115 9.99968 1.21975e-05 -0.000591497 9.9997 7.67814e-06 -0.000536075 9.99972
3.03965e-06 -0.000482797 9.99974 -1.52837e-06 -0.000431348 9.99976 -6.33991e-06 -0.000381513 9.99977 -1.1277e-05
-0.000333152 9.99978 -1.61748e-05 -0.000286198 9.99978 -2.04985e-05 -0.000240891 9.99977 -2.33494e-05 -0.000197539
9.99976 -2.37698e-05 -0.000156213 9.99974 -2.15266e-05 -0.000116708 9.99971 -1.65459e-05 -7.87917e-05 9.9997
-9.17016e-06 -4.03274e-05 9.99969 -5.0594e-06 -2.04854e-05 9.45086 -0.309209 -0.0200169 9.45095 -0.30915
-0.0200431 9.75873 -0.112279 -0.10742 9.82496 -0.0618343 -0.0842748 9.86682 -0.0326009 -0.0650141
9.89711 -0.0156591 -0.0505134 9.91956 -0.00627736 -0.0397325 9.93643 -0.00129619 -0.0316877 9.94927
0.00119728 -0.0256293 9.95915 0.0023161 -0.0210199 9.96683 0.00269684 -0.0174708 9.97285 0.00269754
-0.0147048 9.97762 0.00251643 -0.0125221 9.98143 0.00226082 -0.0107785 9.98449 0.00198757 -0.00936901
9.98697 0.00172501 -0.00821632 9.98899 0.00148557 -0.00726313 9.99065 0.00127389 -0.00646633 9.99202
0.00109001 -0.00579377 9.99316 0.000931896 -0.00522046 9.99412 0.000796777 -0.00472712 9.99491 0.000681588
-0.00429909 9.99559 0.000583715 -0.00392477 9.99616 0.000500493 -0.00359488 9.99664 0.000429666 -0.00330224
9.99706 0.00036953 -0.00304083 9.99741 0.00031806 -0.00280594 9.99772 0.000274042 -0.00259373 9.99798
0.000236693 -0.00240108 9.99821 0.000204572 -0.00222558 9.99841 0.000176762 -0.00206495 9.99858 0.000152902
-0.00191729 9.99873 0.000132405 -0.00178111 9.99887 0.000114603 -0.00165524 9.99898 9.92657e-05 -0.0015384
9.99908 8.61049e-05 -0.0014297 9.99917 7.45214e-05 -0.00132851 9.99926 6.437e-05 -0.00123406 9.99933
5.53354e-05 -0.00114537 9.99939 4.76334e-05 -0.00106198 9.99944 4.11746e-05 -0.000983662 9.9995 3.50892e-05
-0.000909631 9.99954 2.94521e-05 -0.000839537 9.99958 2.44157e-05 -0.00077312 9.99962 1.9754e-05 -0.000709872
9.99965 1.52185e-05 -0.000649587 9.99968 1.09236e-05 -0.000591936 9.9997 6.58807e-06 -0.000536502 9.99972
2.10035e-06 -0.000483217 9.99974 -2.34157e-06 -0.000431755 9.99976 -7.01093e-06 -0.000381929 9.99977 -1.17852e-05
-0.000333579 9.99978 -1.65411e-05 -0.000286644 9.99978 -2.072e-05 -0.00024134 9.99977 -2.34544e-05 -0.000197976
9.99976 -2.38051e-05 -0.00015663 9.99974 -2.15198e-05 -0.000117065 9.99972 -1.6534e-05 -7.90473e-05 9.9997
-9.15837e-06 -4.04506e-05 9.9997 -5.05484e-06 -2.05413e-05 9.82688 -0.0609983 -0.0858685 9.82688 -0.0609983
-0.0858685 9.82688 -0.0609983 -0.0858685 9.86805 -0.0322252 -0.0659358 9.89786 -0.0155428 -0.0510592
9.92 -0.00628582 -0.040069 9.93668 -0.00135929 -0.0319054 9.94941 0.00111516 -0.0257768 9.95923
0.00223187 -0.0211237 9.96687 0.00261807 -0.0175463 9.97287 0.00262711 -0.014761 9.97763 0.00245498
-0.0125649 9.98143 0.00220791 -0.0108117 9.98449 0.00194235 -0.00939503 9.98697 0.00168652 -0.00823699
9.98899 0.00145284 -0.00727972 9.99065 0.00124608 -0.00647977 9.99202 0.00106636 -0.00580475 9.99316
0.000911761 -0.0052295 9.99412 0.000779617 -0.00473462 9.99491 0.000666932 -0.00430535 9.99559 0.000571176
-0.00393002 9.99616 0.000489747 -0.00359932 9.99664 0.000420435 -0.00330601 9.99706 0.000361589 -0.00304406
9.99741 0.000311218 -0.00280871 9.99772 0.000268138 -0.00259612 9.99798 0.000231601 -0.00240315 9.99821
0.000200169 -0.00222739 9.99841 0.000172936 -0.00206652 9.99858 0.000149581 -0.00191868 9.99873 0.000129527
-0.00178233 9.99887 0.0001121 -0.00165632 9.99898 9.70927e-05 -0.00153935 9.99908 8.42177e-05 -0.00143056
9.99918 7.28714e-05 -0.00132927 9.99926 6.29295e-05 -0.00123474 9.99933 5.40768e-05 -0.00114598 9.99939
4.65351e-05 -0.00106252 9.99944 4.02199e-05 -0.000984152 9.9995 3.42502e-05 -0.000910074 9.99954 2.87134e-05
-0.000839939 9.99958 2.37755e-05 -0.000773485 9.99962 1.91944e-05 -0.0007102 9.99965 1.47268e-05 -0.000649885
9.99968 1.04955e-05 -0.000592208 9.9997 6.21989e-06 -0.000536757 9.99972 1.78118e-06 -0.000483459 9.99974
-2.61996e-06 -0.000431982 9.99976 -7.24452e-06 -0.000382148 9.99977 -1.1967e-05 -0.000333792 9.99978 -1.66777e-05
-0.000286856 9.99978 -2.0809e-05 -0.000241545 9.99977 -2.35053e-05 -0.000198173 9.99976 -2.38332e-05 -0.000156814
9.99974 -2.15313e-05 -0.00011722 9.99972 -1.65398e-05 -7.91589e-05 9.9997 -9.15909e-06 -4.05069e-05 9.9997
-5.05528e-06 -2.05696e-05 7.66332 -0.00265101 0.730262 7.6264 -0.0023522 0.603371 7.57093 -0.0016021
0.346599 7.57602 -0.000917775 0.193281 7.57621 -0.000914108 0.192723 8.15328 -0.000528455 -0.839161
8.79445 -0.000853755 -0.867846 9.01062 -0.00103644 -0.512585 9.23822 -0.00116285 -0.460313 9.31272
-0.00093588 -0.116914 9.67452 -0.000407977 -0.181059 9.79051 -0.000170973 -0.135332 9.8359 -6.85973e-05
-0.0993573 9.8661 -2.98743e-05 -0.0755936 9.89042 -1.40263e-05 -0.0586564 9.91036 -7.54508e-06 -0.0461828
9.92672 -5.02826e-06 -0.0368398 9.94008 -4.0165e-06 -0.0297594 9.95093 -3.61467e-06 -0.0243391 9.95972
-3.41925e-06 -0.0201462 9.96683 -3.25622e-06 -0.01687 9.97258 -3.09552e-06 -0.0142844 9.97723 -2.82186e-06
-0.0122223 9.98101 -2.423e-06 -0.0105607 9.98409 -2.19413e-06 -0.00920797 9.9866 -2.18556e-06 -0.00809535
9.98866 -2.02796e-06 -0.00717059 9.99037 -1.74751e-06 -0.00639445 9.99178 -1.57443e-06 -0.00573712 9.99295
-1.47956e-06 -0.00517537 9.99393 -1.37769e-06 -0.00469098 9.99476 -1.2858e-06 -0.00426952 9.99546 -1.25197e-06
-0.00390027 9.99604 -1.18392e-06 -0.00357457 9.99654 -1.17433e-06 -0.00328531 9.99697 -1.25172e-06 -0.00302656
9.99734 -1.26308e-06 -0.00279355 9.99765 -1.27928e-06 -0.00258319 9.99792 -1.33532e-06 -0.00239227 9.99816
-1.42849e-06 -0.00221787 9.99836 -1.57158e-06 -0.00205803 9.99854 -1.67552e-06 -0.00191124 9.9987 -1.7405e-06
-0.00177589 9.99883 -1.83995e-06 -0.00165061 9.99895 -1.9485e-06 -0.00153445 9.99906 -2.17679e-06 -0.0014261
9.99915 -2.38318e-06 -0.00132509 9.99923 -2.54716e-06 -0.00123105 9.9993 -2.80082e-06 -0.00114278 9.99937
-3.1145e-06 -0.00105966 9.99943 -3.50924e-06 -0.000981402 9.99948 -3.92906e-06 -0.000907673 9.99953 -4.48279e-06
-0.000837896 9.99957 -5.24439e-06 -0.00077164 9.9996 -6.17489e-06 -0.000708731 9.99964 -7.23322e-06 -0.000648768
9.99967 -8.57897e-06 -0.000591306 9.99969 -1.01036e-05 -0.000536249 9.99971 -1.18482e-05 -0.000483499 9.99973
-1.39351e-05 -0.000432566 9.99974 -1.62301e-05 -0.000383243 9.99976 -1.869e-05 -0.000335495 9.99976 -2.09733e-05
-0.000289128 9.99977 -2.26813e-05 -0.000244237 9.99977 -2.34812e-05 -0.000201124 9.99976 -2.27672e-05 -0.000159706
9.99974 -1.97262e-05 -0.000119784 9.99972 -1.46792e-05 -8.1183e-05 9.99971 -8.28593e-06 -4.16613e-05 9.9997
-4.75225e-06 -2.11441e-05 9.34072 -0.00087547 -0.202389 9.34072 -0.000875467 -0.202323 9.37517 -0.000866555
-0.242376 9.67207 -0.000393969 -0.19772 9.7914 -0.000155527 -0.145158 9.83682 -5.67383e-05 -0.10541
9.86686 -2.24971e-05 -0.0794989 9.89105 -9.84651e-06 -0.0612519 9.91087 -5.40027e-06 -0.0479483 9.92713
-4.10615e-06 -0.0380653 9.9404 -3.77621e-06 -0.0306261 9.95119 -3.73066e-06 -0.0249628 9.95993 -3.70596e-06
-0.0206023 9.96699 -3.61467e-06 -0.0172086 9.97271 -3.46809e-06 -0.0145392 9.97734 -3.17319e-06 -0.0124168
9.9811 -2.74422e-06 -0.0107108 9.98416 -2.48679e-06 -0.00932525 9.98666 -2.44633e-06 -0.00818795 9.98871
-2.25526e-06 -0.00724443 9.99041 -1.95057e-06 -0.00645386 9.99181 -1.75695e-06 -0.00578534 9.99298 -1.63702e-06
-0.00521484 9.99396 -1.51684e-06 -0.00472353 9.99478 -1.41254e-06 -0.00429655 9.99548 -1.36255e-06 -0.00392286
9.99606 -1.28208e-06 -0.00359359 9.99656 -1.26593e-06 -0.00330142 9.99699 -1.33387e-06 -0.00304028 9.99735
-1.33522e-06 -0.00280529 9.99767 -1.34686e-06 -0.0025933 9.99793 -1.39758e-06 -0.00240103 9.99817 -1.48623e-06
-0.00222549 9.99837 -1.62544e-06 -0.00206469 9.99855 -1.7235e-06 -0.00191708 9.99871 -1.78877e-06 -0.00178103
9.99884 -1.88773e-06 -0.00165516 9.99896 -1.98904e-06 -0.00153849 9.99907 -2.21223e-06 -0.0014297 9.99916
-2.41769e-06 -0.0013283 9.99924 -2.57905e-06 -0.00123392 9.99931 -2.8317e-06 -0.00114536 9.99937 -3.1426e-06
-0.00106198 9.99943 -3.53455e-06 -0.000983497 9.99949 -3.95918e-06 -0.000909555 9.99953 -4.51039e-06 -0.000839585
9.99957 -5.26624e-06 -0.000773167 9.99961 -6.19975e-06 -0.000710114 9.99964 -7.26635e-06 -0.000650015 9.99967
-8.61785e-06 -0.000592416 9.99969 -1.0146e-05 -0.000537236 9.99971 -1.18983e-05 -0.000484384 9.99973 -1.39931e-05
-0.000433363 9.99975 -1.62957e-05 -0.000383951 9.99976 -1.87672e-05 -0.000336124 9.99977 -2.10573e-05 -0.000289691
9.99977 -2.27768e-05 -0.000244745 9.99977 -2.35867e-05 -0.000201575 9.99976 -2.28646e-05 -0.000160099 9.99974
-1.98096e-05 -0.000120111 9.99973 -1.47455e-05 -8.14114e-05 9.99971 -8.32926e-06 -4.17856e-05 9.99971 -4.78331e-06
-2.12198e-05 9.79202 -0.000148768 -0.152071 9.79202 -0.000148768 -0.152071 9.79204 -0.000148725 -0.152051
9.83747 -5.11101e-05 -0.109669 9.86739 -1.89285e-05 -0.0822463 9.89149 -7.8074e-06 -0.0630778 9.91123
-4.35096e-06 -0.0491903 9.92741 -3.65919e-06 -0.0389275 9.94063 -3.66509e-06 -0.0312359 9.95137 -3.79405e-06
-0.0254016 9.96007 -3.85289e-06 -0.0209231 9.96711 -3.79766e-06 -0.0174468 9.9728 -3.65851e-06 -0.0147186
9.97742 -3.35217e-06 -0.0125536 9.98116 -2.90823e-06 -0.0108164 9.98421 -2.63777e-06 -0.00940775 9.9867