# vtk DataFile Version 2.0
tracks
ASCII
DATASET POLYDATA
POINTS 799 float
-0.2 -0.2 -0.01 -0.199976 -0.200001 -0.00999583 -0.192556 -0.200378 -0.00870636 -0.187865 -0.200606
-0.00782895 -0.186725 -0.200661 -0.00760893 -0.180614 -0.200952 -0.00642939 -0.176064 -0.201169 -0.00544015
-0.162636 -0.201811 -0.0022125 -0.151537 -0.202763 0.00158497 -0.150524 -0.202934 0.00201003 -0.1377
-0.205068 0.00738589 -0.127403 -0.208657 0.0132483 -0.125246 -0.209774 0.0146906 -0.108489 -0.219235
0.0258872 -0.101514 -0.225319 0.0296404 -0.100499 -0.226129 0.0301132 -0.0882008 -0.23592 0.035636
-0.0854715 -0.237983 0.0362579 -0.0756409 -0.24543 0.0384858 -0.0688297 -0.25041 0.0400718 -0.0507278
-0.2629 0.0447132 -0.0294359 -0.27544 0.0493754 -0.0257514 -0.277436 0.0502221 -0.0222981 -0.279284
0.0509861 -0.000724075 -0.290698 0.0554716 0.0206956 -0.300343 0.0570507 0.0244666 -0.301754 0.0568888
0.0496828 -0.310901 0.0553491 0.074811 -0.317835 0.0523818 0.0890512 -0.320621 0.050189 0.0998875
-0.322495 0.0487788 0.149958 -0.330187 0.0429265 0.199981 -0.33469 0.0386724 0.299997 -0.341954
0.0324234 0.4 -0.344279 0.028644 0.5 -0.345858 0.0268337 0.6 -0.346926 0.0256065
0.7 -0.347469 0.024692 0.8 -0.347708 0.0239974 0.9 -0.347788 0.0234609 1
-0.347788 0.0230386 1.1 -0.347748 0.0227003 1.2 -0.347691 0.0224245 1.3 -0.347629
0.0221961 1.4 -0.347568 0.0220041 1.5 -0.347511 0.0218405 1.6 -0.34746 0.0216996
1.7 -0.347415 0.0215768 1.8 -0.347375 0.0214689 1.9 -0.347341 0.0213732 2
-0.347311 0.0212877 2.1 -0.347285 0.0212109 2.2 -0.347262 0.0211414 2.3 -0.347243
0.0210783 2.4 -0.347226 0.0210208 2.5 -0.347211 0.0209681 2.6 -0.347199 0.0209197
2.7 -0.347188 0.0208751 2.8 -0.347179 0.020834 2.9 -0.347171 0.020796 3
-0.347163 0.0207607 3.1 -0.347157 0.020728 3.2 -0.347152 0.0206977 3.3 -0.347147
0.0206695 3.4 -0.347143 0.0206432 3.5 -0.34714 0.0206189 3.6 -0.347137 0.0205962
3.7 -0.347134 0.0205751 3.8 -0.347132 0.0205554 3.9 -0.34713 0.0205372 4
-0.347128 0.0205202 4.1 -0.347127 0.0205045 4.2 -0.347125 0.0204899 4.3 -0.347124
0.0204764 4.4 -0.347123 0.0204639 4.5 -0.347122 0.0204523 4.6 -0.347121 0.0204417
4.7 -0.347121 0.020432 4.8 -0.34712 0.020423 4.9 -0.347119 0.0204149 5
-0.347119 0.0204075 5.1 -0.347118 0.0204009 5.2 -0.347118 0.0203949 5.3 -0.347118
0.0203896 5.4 -0.347117 0.020385 5.5 -0.347117 0.0203809 5.6 -0.347117 0.0203776
5.7 -0.347116 0.0203748 5.8 -0.347116 0.0203726 5.9 -0.347116 0.0203711 6
-0.347116 0.0203702 -6.91738e-17 -0.2 -0.01 0.000200948 -0.200025 -0.0100031 0.0499764 -0.206299
-0.0107857 0.0999905 -0.210662 -0.0119427 0.199997 -0.216995 -0.0138214 0.3 -0.220504 -0.0156162
0.4 -0.222656 -0.0166782 0.5 -0.224092 -0.0175162 0.6 -0.224932 -0.0182282 0.7
-0.225383 -0.0188217 0.8 -0.225609 -0.0193101 0.9 -0.225708 -0.0197116 1 -0.225738
-0.0200432 1.1 -0.22573 -0.0203193 1.2 -0.225703 -0.0205513 1.3 -0.225669 -0.0207482
1.4 -0.225633 -0.0209169 1.5 -0.225598 -0.0210629 1.6 -0.225566 -0.0211905 1.7
-0.225536 -0.0213028 1.8 -0.22551 -0.0214026 1.9 -0.225488 -0.0214917 2 -0.225468
-0.0215719 2.1 -0.22545 -0.0216445 2.2 -0.225435 -0.0217104 2.3 -0.225422 -0.0217705
2.4 -0.225411 -0.0218256 2.5 -0.225402 -0.0218763 2.6 -0.225393 -0.0219229 2.7
-0.225386 -0.021966 2.8 -0.22538 -0.0220059 2.9 -0.225374 -0.0220429 3 -0.225369
-0.0220772 3.1 -0.225365 -0.0221091 3.2 -0.225362 -0.0221387 3.3 -0.225359 -0.0221663
3.4 -0.225356 -0.022192 3.5 -0.225354 -0.0222159 3.6 -0.225352 -0.0222382 3.7
-0.22535 -0.0222589 3.8 -0.225348 -0.0222782 3.9 -0.225347 -0.0222962 4 -0.225346
-0.0223129 4.1 -0.225345 -0.0223284 4.2 -0.225344 -0.0223428 4.3 -0.225343 -0.0223561
4.4 -0.225342 -0.0223684 4.5 -0.225342 -0.0223798 4.6 -0.225341 -0.0223903 4.7
-0.225341 -0.0223999 4.8 -0.22534 -0.0224087 4.9 -0.22534 -0.0224167 5 -0.22534
-0.022424 5.1 -0.225339 -0.0224306 5.2 -0.225339 -0.0224365 5.3 -0.225339 -0.0224417
5.4 -0.225338 -0.0224463 5.5 -0.225338 -0.0224503 5.6 -0.225338 -0.0224536 5.7
-0.225338 -0.0224564 5.8 -0.225337 -0.0224585 5.9 -0.225337 -0.02246 6 -0.225337
-0.0224609 0.2 -0.2 -0.01 0.200029 -0.200001 -0.0100005 0.3 -0.203067 -0.0118427
0.4 -0.205157 -0.0130258 0.5 -0.206534 -0.0139455 0.6 -0.207332 -0.0147078 0.7
-0.207764 -0.015331 0.8 -0.207984 -0.015838 0.9 -0.208083 -0.0162514 1 -0.208114
-0.016591 1.1 -0.20811 -0.0168728 1.2 -0.208087 -0.0171088 1.3 -0.208057 -0.0173087
1.4 -0.208024 -0.0174797 1.5 -0.207992 -0.0176275 1.6 -0.207963 -0.0177565 1.7
-0.207936 -0.01787 1.8 -0.207912 -0.0179706 1.9 -0.207891 -0.0180605 2 -0.207873
-0.0181413 2.1 -0.207857 -0.0182143 2.2 -0.207843 -0.0182806 2.3 -0.207831 -0.0183411
2.4 -0.207821 -0.0183965 2.5 -0.207812 -0.0184474 2.6 -0.207804 -0.0184943 2.7
-0.207797 -0.0185375 2.8 -0.207791 -0.0185776 2.9 -0.207786 -0.0186146 3 -0.207782
-0.0186491 3.1 -0.207778 -0.018681 3.2 -0.207775 -0.0187108 3.3 -0.207772 -0.0187384
3.4 -0.20777 -0.0187642 3.5 -0.207767 -0.0187881 3.6 -0.207766 -0.0188105 3.7
-0.207764 -0.0188312 3.8 -0.207762 -0.0188506 3.9 -0.207761 -0.0188686 4 -0.20776
-0.0188853 4.1 -0.207759 -0.0189008 4.2 -0.207758 -0.0189152 4.3 -0.207758 -0.0189286
4.4 -0.207757 -0.0189409 4.5 -0.207756 -0.0189523 4.6 -0.207756 -0.0189628 4.7
-0.207755 -0.0189724 4.8 -0.207755 -0.0189813 4.9 -0.207755 -0.0189893 5 -0.207754
-0.0189966 5.1 -0.207754 -0.0190032 5.2 -0.207754 -0.0190091 5.3 -0.207754 -0.0190143
5.4 -0.207753 -0.0190189 5.5 -0.207753 -0.0190229 5.6 -0.207753 -0.0190262 5.7
-0.207753 -0.019029 5.8 -0.207752 -0.0190311 5.9 -0.207752 -0.0190326 6 -0.207752
-0.0190335 0.4 -0.2 -0.01 0.4 -0.2 -0.01 0.4 -0.2 -0.01
0.5 -0.201361 -0.0109773 0.6 -0.20215 -0.0117753 0.7 -0.202578 -0.0124207 0.8
-0.202796 -0.0129417 0.9 -0.202895 -0.0133644 1 -0.202927 -0.0137104 1.1 -0.202924
-0.0139966 1.2 -0.202902 -0.0142359 1.3 -0.202873 -0.0144382 1.4 -0.202841 -0.014611
1.5 -0.20281 -0.0147602 1.6 -0.202782 -0.0148902 1.7 -0.202755 -0.0150046 1.8
-0.202732 -0.0151059 1.9 -0.202712 -0.0151964 2 -0.202694 -0.0152776 2.1 -0.202678
-0.015351 2.2 -0.202665 -0.0154176 2.3 -0.202653 -0.0154784 2.4 -0.202643 -0.0155339
2.5 -0.202634 -0.015585 2.6 -0.202627 -0.015632 2.7 -0.20262 -0.0156754 2.8
-0.202615 -0.0157156 2.9 -0.20261 -0.0157527 3 -0.202606 -0.0157872 3.1 -0.202602
-0.0158193 3.2 -0.202599 -0.0158491 3.3 -0.202596 -0.0158768 3.4 -0.202593 -0.0159026
3.5 -0.202591 -0.0159266 3.6 -0.20259 -0.0159489 3.7 -0.202588 -0.0159698 3.8
-0.202587 -0.0159891 3.9 -0.202585 -0.0160071 4 -0.202584 -0.0160239 4.1 -0.202583
-0.0160394 4.2 -0.202582 -0.0160539 4.3 -0.202582 -0.0160672 4.4 -0.202581 -0.0160796
4.5 -0.202581 -0.016091 4.6 -0.20258 -0.0161015 4.7 -0.20258 -0.0161111 4.8
-0.202579 -0.01612 4.9 -0.202579 -0.016128 5 -0.202579 -0.0161353 5.1 -0.202578
-0.0161419 5.2 -0.202578 -0.0161478 5.3 -0.202578 -0.0161531 5.4 -0.202578 -0.0161577
5.5 -0.202577 -0.0161616 5.6 -0.202577 -0.016165 5.7 -0.202577 -0.0161677 5.8
-0.202577 -0.0161698 5.9 -0.202576 -0.0161714 6 -0.202576 -0.0161722 -0.2 3.54365e-17
-0.01 -0.197013 -5.67198e-07 -0.00958608 -0.187696 -3.02636e-06 -0.00831923 -0.177516 -7.58809e-06 -0.00696667
-0.17489 -8.9797e-06 -0.00662254 -0.149606 -2.30122e-05 -0.00333813 -0.12478 -3.61204e-05 -0.00311421 -0.099899
-4.52291e-05 -0.00548413 -0.0499755 -5.96086e-05 -0.0103691 5.85739e-06 -7.12115e-05 -0.0142142 0.100001 -8.93038e-05
-0.0190845 0.2 -9.74662e-05 -0.0218624 0.3 -0.00010185 -0.0236466 0.4 -0.000104267 -0.0248919
0.5 -0.000105565 -0.0258212 0.6 -0.000106234 -0.0265451 0.7 -0.000106545 -0.0271234 0.8
-0.000106661 -0.0275923 0.9 -0.000106671 -0.0279766 1 -0.000106631 -0.0282949 1.1 -0.000106568
-0.0285611 1.2 -0.000106493 -0.0287858 1.3 -0.000106422 -0.0289775 1.4 -0.000106356 -0.0291424
1.5 -0.000106291 -0.0292856 1.6 -0.00010623 -0.0294111 1.7 -0.000106177 -0.029522 1.8
-0.000106132 -0.0296205 1.9 -0.000106092 -0.0297088 2 -0.000106057 -0.0297883 2.1 -0.000106026
-0.0298603 2.2 -0.000106001 -0.0299257 2.3 -0.000105978 -0.0299855 2.4 -0.00010596 -0.0300403
2.5 -0.000105946 -0.0300907 2.6 -0.000105932 -0.0301372 2.7 -0.00010592 -0.0301801 2.8
-0.000105908 -0.0302198 2.9 -0.000105897 -0.0302566 3 -0.000105887 -0.0302908 3.1 -0.000105877
-0.0303226 3.2 -0.000105868 -0.0303522 3.3 -0.000105861 -0.0303797 3.4 -0.000105855 -0.0304053
3.5 -0.000105847 -0.0304292 3.6 -0.000105837 -0.0304514 3.7 -0.000105828 -0.0304721 3.8
-0.000105821 -0.0304913 3.9 -0.000105813 -0.0305092 4 -0.000105805 -0.0305259 4.1 -0.0001058
-0.0305414 4.2 -0.000105796 -0.0305557 4.3 -0.000105788 -0.030569 4.4 -0.000105774 -0.0305813
4.5 -0.000105754 -0.0305927 4.6 -0.000105732 -0.0306031 4.7 -0.000105705 -0.0306127 4.8
-0.000105674 -0.0306215 4.9 -0.000105636 -0.0306295 5 -0.000105591 -0.0306368 5.1 -0.000105539
-0.0306434 5.2 -0.000105477 -0.0306492 5.3 -0.000105402 -0.0306544 5.4 -0.000105312 -0.030659
5.5 -0.000105207 -0.0306629 5.6 -0.000105091 -0.0306663 5.7 -0.000104978 -0.030669 5.8
-0.000104872 -0.0306711 5.9 -0.000104784 -0.0306726 6 -0.000104735 -0.0306734 -1.61646e-16 3.29607e-17
-0.01 6.19885e-06 -9.30224e-10 -0.0100003 9.59953e-05 -1.44053e-08 -0.010005 0.100001 -1.47549e-05 -0.0153735
0.2 -2.17553e-05 -0.0183058 0.3 -2.51693e-05 -0.0201839 0.4 -2.68515e-05 -0.0214882 0.5
-2.76702e-05 -0.0224556 0.6 -2.80474e-05 -0.023205 0.7 -2.81925e-05 -0.0238008 0.8 -2.82188e-05
-0.0242818 0.9 -2.81854e-05 -0.0246747 1 -2.81286e-05 -0.0249992 1.1 -2.80643e-05 -0.0252699
1.2 -2.79962e-05 -0.0254981 1.3 -2.79351e-05 -0.0256923 1.4 -2.78809e-05 -0.0258592 1.5
-2.78277e-05 -0.0260039 1.6 -2.77781e-05 -0.0261306 1.7 -2.77353e-05 -0.0262424 1.8 -2.76987e-05
-0.0263418 1.9 -2.76668e-05 -0.0264306 2 -2.76384e-05 -0.0265106 2.1 -2.76141e-05 -0.026583
2.2 -2.7594e-05 -0.0266488 2.3 -2.7576e-05 -0.0267089 2.4 -2.75619e-05 -0.0267639 2.5
-2.75505e-05 -0.0268145 2.6 -2.75396e-05 -0.0268611 2.7 -2.75299e-05 -0.0269041 2.8 -2.75204e-05
-0.026944 2.9 -2.75112e-05 -0.0269809 3 -2.75024e-05 -0.0270152 3.1 -2.7494e-05 -0.0270471
3.2 -2.74864e-05 -0.0270767 3.3 -2.74802e-05 -0.0271043 3.4 -2.7475e-05 -0.0271299 3.5
[...]
POINT_DATA 799
FIELD attributes 2
age 1 799 float
0 2.42252e-06 0.000752286 0.00127153 0.00140445 0.00212188 0.00270816 0.00459818 0.00587897 0.00600542 0.00757551
0.00903441 0.00939389 0.0122919 0.0137855 0.0139906 0.0164626 0.0169782 0.0188251 0.0200709 0.0232512
0.0267358 0.0273471 0.0279188 0.0314844 0.0349295 0.0355151 0.039402 0.0429672 0.0448498 0.0462429
0.0525337 0.0583657 0.0697653 0.0804975 0.0909297 0.10124 0.111467 0.121632 0.131757 0.141852
0.151927 0.161987 0.172035 0.182074 0.192106 0.202133 0.212155 0.222174 0.23219 0.242203
0.252215 0.262224 0.272233 0.28224 0.292246 0.302251 0.312256 0.32226 0.332263 0.342266
0.352268 0.36227 0.372272 0.382274 0.392275 0.402276 0.412277 0.422278 0.432278 0.442279
0.452279 0.46228 0.47228 0.48228 0.49228 0.50228 0.51228 0.52228 0.53228 0.54228
0.552279 0.562279 0.572279 0.582279 0.592278 0.602278 0.612278 0.622277 0.632277 0.642277
0 2.29747e-05 0.00571378 0.0113491 0.022386 0.0330979 0.0435194 0.0538326 0.0640728 0.0742584
0.0844033 0.0945178 0.104609 0.114683 0.124743 0.134792 0.144832 0.154866 0.164894 0.174917
0.184937 0.194954 0.204968 0.21498 0.224991 0.235 0.245007 0.255014 0.265019 0.275024
0.285028 0.295032 0.305035 0.315038 0.32504 0.335042 0.345043 0.355045 0.365046 0.375047
0.385048 0.395049 0.405049 0.41505 0.42505 0.43505 0.445051 0.455051 0.465051 0.475051
0.485051 0.495051 0.50505 0.51505 0.52505 0.53505 0.54505 0.555049 0.565049 0.575049
0.585048 0.595048 0.605048 0 3.11561e-06 0.0106221 0.0210173 0.0313168 0.0415476 0.0517273
0.0618688 0.0719812 0.0820714 0.0921444 0.102204 0.112253 0.122293 0.132327 0.142355 0.152378
0.162398 0.172415 0.182429 0.192441 0.202452 0.212461 0.222468 0.232475 0.24248 0.252485
0.262489 0.272493 0.282496 0.292499 0.302501 0.312503 0.322505 0.332506 0.342507 0.352508
0.362509 0.37251 0.38251 0.392511 0.402511 0.412512 0.422512 0.432512 0.442512 0.452512
0.462512 0.472512 0.482512 0.492512 0.502511 0.512511 0.522511 0.532511 0.54251 0.55251
0.56251 0.572509 0.582509 0 0 0 0.0102959 0.0205241 0.0307022 0.0408426
0.0509544 0.0610442 0.0711169 0.0811763 0.0912251 0.101265 0.111299 0.121327 0.131351 0.14137
0.151387 0.161401 0.171414 0.181424 0.191433 0.20144 0.211447 0.221453 0.231457 0.241461
0.251465 0.261468 0.271471 0.281473 0.291475 0.301477 0.311478 0.321479 0.33148 0.341481
0.351482 0.361482 0.371483 0.381483 0.391484 0.401484 0.411484 0.421484 0.431484 0.441484
0.451484 0.461484 0.471484 0.481483 0.491483 0.501483 0.511483 0.521482 0.531482 0.541482
0.551481 0.561481 0 0.000379424 0.00156454 0.0028604 0.00320077 0.00649015 0.00977897 0.0127658
0.0184325 0.0238239 0.0345494 0.0449361 0.0552118 0.0654501 0.0756566 0.0858323 0.09598 0.106103
0.116205 0.12629 0.13636 0.146418 0.156467 0.166507 0.176541 0.186569 0.196593 0.206614
0.216631 0.226646 0.236658 0.246669 0.256678 0.266686 0.276692 0.286698 0.296703 0.306707
0.316711 0.326714 0.336717 0.346719 0.356721 0.366723 0.376724 0.386726 0.396727 0.406728
0.416728 0.426729 0.436729 0.44673 0.45673 0.46673 0.476731 0.486731 0.496731 0.506731
0.516731 0.52673 0.53673 0.54673 0.55673 0.56673 0.576729 0.586729 0.596729 0.606729
0.616728 0.626728 0 6.64253e-07 1.02866e-05 0.0106824 0.0210696 0.0313442 0.041582 0.0517882
0.0619636 0.072111 0.0822339 0.0923359 0.10242 0.11249 0.122549 0.132597 0.142637 0.152671
0.1627 0.172723 0.182744 0.192761 0.202775 0.212788 0.222798 0.232808 0.242815 0.252822
0.262828 0.272833 0.282837 0.292841 0.302844 0.312847 0.322849 0.332851 0.342853 0.352854
0.362855 0.372857 0.382857 0.392858 0.402859 0.412859 0.42286 0.43286 0.44286 0.45286
0.46286 0.47286 0.48286 0.49286 0.50286 0.51286 0.52286 0.53286 0.542859 0.552859
0.562859 0.572859 0.582858 0.592858 0.602858 0 0 2.01232e-06 0.0102722 0.0205088
0.0307142 0.040889 0.0510359 0.0611583 0.0712599 0.081344 0.0914137 0.101472 0.11152 0.12156
0.131594 0.141622 0.151646 0.161666 0.171683 0.181698 0.19171 0.201721 0.21173 0.221737
0.231744 0.24175 0.251755 0.261759 0.271763 0.281766 0.291769 0.301771 0.311773 0.321775
0.331776 0.341777 0.351778 0.361779 0.37178 0.381781 0.391781 0.401781 0.411782 0.421782
0.431782 0.441782 0.451782 0.461782 0.471782 0.481782 0.491782 0.501782 0.511781 0.521781
0.531781 0.541781 0.55178 0.56178 0.57178 0.581779 0 2.26585e-17 6.08558e-07 0.0102051
0.0203797 0.0305263 0.0406485 0.0507499 0.0608339 0.0709035 0.0809613 0.0910094 0.10105 0.111083
0.121111 0.131135 0.141155 0.151172 0.161187 0.171199 0.18121 0.191219 0.201227 0.211233
0.221239 0.231244 0.241248 0.251252 0.261255 0.271258 0.28126 0.291262 0.301264 0.311265
0.321266 0.331267 0.341268 0.351269 0.36127 0.37127 0.38127 0.391271 0.401271 0.411271
0.421271 0.431271 0.441271 0.451271 0.460175 0.461271 0.471271 0.481271 0.49127 0.50127
0.51127 0.52127 0.531269 0.541269 0.551269 0.561268 0 2.31659e-06 0.000752105 0.00127211
0.0014053 0.00211947 0.00270934 0.00460032 0.00588329 0.00600886 0.00757868 0.00904408 0.00939848 0.0123101
0.0137943 0.0140044 0.0164838 0.0169686 0.0188443 0.020023 0.0232648 0.0266438 0.0273733 0.0279032
0.0315288 0.0348193 0.0355671 0.039459 0.0430292 0.0450417 0.0463102 0.0526093 0.0584439 0.0698468
0.0805824 0.0910009 0.101304 0.111528 0.121693 0.131817 0.141912 0.151987 0.162047 0.172095
0.182134 0.192166 0.202193 0.212215 0.222234 0.23225 0.242263 0.252275 0.262284 0.272293
0.2823 0.292306 0.302311 0.312316 0.322319 0.332323 0.342326 0.352328 0.36233 0.372332
0.382334 0.392335 0.402336 0.412337 0.422338 0.432338 0.442339 0.452339 0.462339 0.47234
0.48234 0.49234 0.50234 0.51234 0.52234 0.53234 0.542339 0.552339 0.562339 0.572339
0.582339 0.592338 0.602338 0.612338 0.622337 0.632337 0.642336 0 2.21229e-05 0.00570849
0.0113404 0.0223738 0.0330843 0.043514 0.0538272 0.0640681 0.0742542 0.0843994 0.094514 0.104606
0.114679 0.124739 0.134788 0.144829 0.154862 0.16489 0.174914 0.184934 0.194951 0.204965
0.214977 0.224987 0.234996 0.245004 0.25501 0.265016 0.275021 0.285025 0.295028 0.305031
0.315034 0.325036 0.335038 0.34504 0.355041 0.365043 0.375044 0.385044 0.395045 0.405046
0.415046 0.425047 0.435047 0.445047 0.455047 0.465047 0.475047 0.485047 0.495047 0.505047
0.515047 0.525047 0.535046 0.545046 0.555046 0.565046 0.575045 0.585045 0.595045 0.605044
0 3.1171e-06 0.0106211 0.0210175 0.0313169 0.0415479 0.0517278 0.0618694 0.0719819 0.0820721
0.0921452 0.102205 0.112254 0.122294 0.132328 0.142356 0.152379 0.162399 0.172416 0.18243
0.192442 0.202453 0.212462 0.222469 0.232476 0.242481 0.252486 0.26249 0.272494 0.282497
0.2925 0.302502 0.312504 0.322505 0.332507 0.342508 0.352509 0.36251 0.372511 0.382511
0.392512 0.402512 0.412512 0.422513 0.432513 0.442513 0.452513 0.462513 0.472513 0.482512
0.492512 0.502512 0.512512 0.522512 0.532511 0.542511 0.552511 0.56251 0.57251 0.58251
0 4.57157e-17 0.0102957 0.0205239 0.030702 0.0408424 0.0509542 0.061044 0.0711168 0.0811762
0.091225 0.101265 0.111299 0.121327 0.13135 0.14137 0.151387 0.161401 0.171413 0.181424
0.191433 0.20144 0.211447 0.221452 0.231457 0.241461 0.251465 0.261468 0.271471 0.281473
0.291475 0.301477 0.311478 0.321479 0.33148 0.341481 0.351482 0.361482 0.371483 0.381483
0.391483 0.401484 0.411484 0.421484 0.431484 0.441484 0.451484 0.461484 0.471483 0.481483
0.491483 0.501483 0.511482 0.521482 0.531482 0.541481 0.551481 0.561481 
U 3 799 float
9.8945 -0.503062 1.71919 9.89502 -0.502991 1.71961 9.0349 -0.439216 1.68977 8.57542 -0.408782
1.6553 8.51749 -0.40602 1.64412 7.76083 -0.370712 1.68733 7.105 -0.339568 1.70773
8.66518 -0.743505 2.96495 8.0121 -1.3468 3.3614 8.16808 -1.35923 3.42391 7.05796
-2.46032 4.01841 5.99898 -3.10764 4.01207 5.78245 -3.26449 3.86356 4.66953 -4.0734
2.51287 4.95083 -3.95131 2.30518 4.97488 -3.96042 2.2341 5.29396 -4.00136 1.20639
5.32267 -4.03242 1.20625 5.46736 -3.99756 1.2731 5.69181 -3.92723 1.45942 6.11044
-3.59885 1.33797 6.02673 -3.26488 1.38499 6.04076 -3.23133 1.33643 6.05054 -3.20123
1.25799 6.21744 -2.79974 0.458337 6.43917 -2.408 -0.276354 6.48764 -2.35352 -0.396127
7.04812 -1.94469 -0.832298 7.564 -1.48016 -1.16477 7.7786 -1.34499 -1.01224 7.95935
-1.22283 -0.930297 8.57737 -0.772001 -0.729457 8.77361 -0.637233 -0.548175 9.318 -0.216637
-0.352148 9.5857 -0.151327 -0.173535 9.6993 -0.103598 -0.11903 9.77818 -0.0530789 -0.0894181
9.83697 -0.0235062 -0.0683271 9.87716 -0.00798357 -0.0529963 9.9053 5.84792e-05 -0.041823 9.92568
0.00398019 -0.0335807 9.94078 0.00566936 -0.0274171 9.95218 0.00616726 -0.0227359 9.96097 0.00604883
-0.0191255 9.96785 0.0056318 -0.0163005 9.97332 0.00509062 -0.0140571 9.97771 0.00451952 -0.0122496
9.98127 0.00396844 -0.0107744 9.9842 0.00346012 -0.00955488 9.98661 0.00300329 -0.00853554 9.98861
0.00260017 -0.00767406 9.99029 0.00224755 -0.00693758 9.9917 0.00194125 -0.0063028 9.99289 0.00167681
-0.00575064 9.9939 0.00144866 -0.00526578 9.99476 0.00125201 -0.00483692 9.99549 0.00108308 -0.00445484
9.99613 0.000937768 -0.00411257 9.99667 0.000812376 -0.00380359 9.99714 0.000704276 -0.00352307 9.99754
0.000611191 -0.00326797 9.99789 0.000531167 -0.00303456 9.9982 0.000461913 -0.00281983 9.99847 0.000401496
-0.0026219 9.9987 0.000349408 -0.00243888 9.9989 0.000304631 -0.00226905 9.99908 0.000265576 -0.00211068
9.99924 0.000231568 -0.001963 9.99938 0.000202016 -0.00182514 9.9995 0.00017646 -0.00169558 9.99961
0.00015457 -0.00157369 9.9997 0.000135241 -0.00145925 9.99979 0.000118484 -0.00135152 9.99986 0.000104069
-0.00124972 9.99993 9.11149e-05 -0.0011534 9.99998 8.00882e-05 -0.00106189 10 7.06448e-05 -0.000975015
10.0001 6.24593e-05 -0.000892442 10.0001 5.5443e-05 -0.000813779 10.0002 4.98335e-05 -0.000738591 10.0002
4.54062e-05 -0.000666088 10.0002 4.15227e-05 -0.000596518 10.0003 3.8226e-05 -0.000529497 10.0003 3.57802e-05
-0.000464279 10.0003 3.38375e-05 -0.000401141 10.0003 3.17713e-05 -0.000339096 10.0003 2.88754e-05 -0.00027714
10.0004 2.40762e-05 -0.000215155 10.0004 1.79975e-05 -0.000154887 10.0004 1.0509e-05 -8.74236e-05 10.0005
6.15476e-06 -4.91725e-05 8.74646 -1.10367 -0.136705 8.74664 -1.10246 -0.137505 8.87513 -0.774242
-0.205317 9.06115 -0.573762 -0.170224 9.33562 -0.327595 -0.167545 9.59555 -0.206518 -0.101905
9.69633 -0.139229 -0.0812625 9.76539 -0.0820324 -0.0695305 9.81782 -0.0442695 -0.058263 9.85717
-0.0222673 -0.0481478 9.88684 -0.00982717 -0.0396927 9.90944 -0.00290779 -0.0328585 9.92687 0.000800557
-0.0274093 9.94046 0.00262632 -0.023062 9.95116 0.00339883 -0.0195885 9.95967 0.00359629 -0.016803
9.96651 0.00349022 -0.0145538 9.97203 0.00323556 -0.0127206 9.97653 0.00291994 -0.011211 9.98022
0.0025919 -0.00995558 9.98327 0.00227666 -0.00890126 9.9858 0.00198635 -0.00800823 9.98791 0.00172606
-0.00724441 9.98968 0.00149593 -0.00658454 9.99116 0.00129447 -0.00601019 9.99242 0.00111963 -0.0055063
9.99349 0.000967908 -0.00506056 9.9944 0.000836879 -0.00466369 9.99518 0.000724513 -0.00430778 9.99585
0.000627193 -0.00398665 9.99642 0.000542995 -0.00369522 9.99692 0.000471279 -0.00342972 9.99735 0.000409559
-0.00318723 9.99772 0.000355663 -0.00296414 9.99805 0.00030896 -0.0027582 9.99833 0.000268763 -0.00256795
9.99858 0.000233873 -0.00239138 9.99879 0.000203591 -0.00222667 9.99898 0.000177842 -0.00207319 9.99915
0.0001554 -0.00192988 9.9993 0.000135543 -0.0017957 9.99942 0.000117865 -0.00166934 9.99954 0.000102942
-0.00155009 9.99964 9.09175e-05 -0.00143825 9.99973 7.99481e-05 -0.00133266 9.99981 6.99374e-05 -0.00123253
9.99988 6.14483e-05 -0.00113785 9.99993 5.44144e-05 -0.00104794 9.99999 4.81796e-05 -0.000962555 10
4.29966e-05 -0.000881344 10.0001 3.85168e-05 -0.000803353 10.0001 3.43218e-05 -0.00072873 10.0002 3.14136e-05
-0.000657647 10.0002 2.93585e-05 -0.000589489 10.0002 2.78191e-05 -0.000523327 10.0002 2.69014e-05 -0.00045886
10.0003 2.6148e-05 -0.000396007 10.0003 2.49636e-05 -0.000334316 10.0003 2.31832e-05 -0.000273325 10.0003
1.9738e-05 -0.000212343 10.0003 1.48429e-05 -0.000152874 10.0004 8.79879e-06 -8.59418e-05 10.0004 5.22979e-06
-4.79474e-05 9.41423 -0.288761 -0.173502 9.4143 -0.288735 -0.173481 9.61988 -0.20101 -0.113808
9.70923 -0.133715 -0.0892977 9.77437 -0.0780748 -0.0745084 9.82344 -0.0424345 -0.0612253 9.86052
-0.0216261 -0.0499834 9.88882 -0.00977832 -0.040882 9.9106 -0.00314223 -0.0336614 9.92752 0.000451403
-0.0279701 9.94081 0.00224437 -0.0234673 9.95134 0.00302491 -0.0198901 9.95975 0.00324957 -0.0170326
9.96653 0.00317826 -0.0147315 9.97202 0.00295979 -0.0128602 9.97651 0.00267893 -0.011322 9.98019
0.00238257 -0.0100447 9.98324 0.00209557 -0.00897345 9.98577 0.00183006 -0.0080672 9.98788 0.0015913
-0.00729301 9.98965 0.00137983 -0.00662483 9.99114 0.00119444 -0.00604376 9.9924 0.00103339 -0.00553444
9.99348 0.000893519 -0.00508428 9.99439 0.000772612 -0.0046838 9.99517 0.000668962 -0.00432492 9.99584
0.000579124 -0.00400132 9.99642 0.000501347 -0.00370781 9.99692 0.000435259 -0.00344056 9.99735 0.000378348
-0.00319663 9.99772 0.000328445 -0.00297227 9.99804 0.000285287 -0.00276525 9.99833 0.000248263 -0.00257416
9.99858 0.000216004 -0.00239685 9.99879 0.000188032 -0.00223145 9.99898 0.000164353 -0.00207744 9.99915
0.000143628 -0.00193366 9.9993 0.000125238 -0.00179899 9.99942 0.000108818 -0.00167228 9.99954 9.50414e-05
-0.00155274 9.99964 8.40833e-05 -0.00144056 9.99973 7.39675e-05 -0.00133469 9.99981 6.46817e-05 -0.00123434
9.99988 5.68948e-05 -0.00113947 9.99994 5.0459e-05 -0.00104937 10 4.47298e-05 -0.000963809 10
3.99958e-05 -0.000882426 10.0001 3.59193e-05 -0.00080431 10.0001 3.20245e-05 -0.000729618 10.0002 2.93226e-05
-0.000658436 10.0002 2.74815e-05 -0.00059017 10.0002 2.62424e-05 -0.000523864 10.0002 2.55668e-05 -0.000459244
10.0003 2.50609e-05 -0.000396227 10.0003 2.40735e-05 -0.000334442 10.0003 2.23971e-05 -0.00027341 10.0003
1.91495e-05 -0.00021238 10.0003 1.44511e-05 -0.000152885 10.0004 8.58544e-06 -8.59024e-05 10.0004 5.09965e-06
-4.788e-05 9.71261 -0.132226 -0.0949217 9.71261 -0.132226 -0.0949217 9.71261 -0.132226 -0.0949217
9.77684 -0.0771198 -0.078018 9.82506 -0.0420021 -0.0634092 9.86155 -0.0214852 -0.0513812 9.88947
-0.00978605 -0.041806 9.911 -0.00322228 -0.034292 9.92777 0.00034236 -0.0284131 9.94096 0.00212779
-0.0237877 9.95144 0.00291172 -0.0201277 9.95981 0.00314498 -0.0172126 9.96657 0.00308431 -0.0148701
9.97205 0.00287681 -0.0129684 9.97652 0.00260644 -0.0114075 9.9802 0.00231964 -0.0101131 9.98325
0.00204115 -0.00902863 9.98577 0.00178312 -0.00811213 9.98788 0.00155083 -0.00732989 9.98966 0.00134497
-0.00665532 9.99115 0.00116442 -0.0060691 9.99241 0.00100752 -0.00555566 9.99348 0.000871207 -0.00510214
9.99439 0.00075334 -0.00469892 9.99518 0.000652307 -0.00433778 9.99585 0.000564715 -0.00401233 9.99642
0.000488867 -0.00371725 9.99692 0.000424466 -0.0034487 9.99735 0.000368995 -0.00320367 9.99772 0.000320295
-0.00297838 9.99805 0.0002782 -0.00277057 9.99833 0.000242121 -0.00257883 9.99858 0.00021065 -0.00240096
9.99879 0.000183374 -0.00223506 9.99898 0.000160312 -0.00208064 9.99915 0.000140101 -0.00193649 9.9993
0.000122156 -0.00180148 9.99943 0.00010611 -0.00167451 9.99954 9.2675e-05 -0.00155473 9.99964 8.20398e-05
-0.00144232 9.99973 7.21814e-05 -0.00133626 9.99981 6.31121e-05 -0.00123575 9.99988 5.55358e-05 -0.00114073
9.99994 4.92806e-05 -0.00105049 10 4.37026e-05 -0.000964802 10 3.91038e-05 -0.000883302 10.0001
3.51485e-05 -0.000805087 10.0001 3.13426e-05 -0.000730324 10.0002 2.87031e-05 -0.000659066 10.0002 2.69269e-05
-0.000590722 10.0002 2.5779e-05 -0.000524325 10.0002 2.51784e-05 -0.000459606 10.0003 2.4757e-05 -0.000396492
10.0003 2.38327e-05 -0.000334641 10.0003 2.21813e-05 -0.000273559 10.0003 1.89872e-05 -0.000212474 10.0003
1.43451e-05 -0.000152944 10.0004 8.53442e-06 -8.59323e-05 10.0004 5.07447e-06 -4.78959e-05 7.87256 -0.00149489
1.09091 7.86172 -0.00207503 1.06897 7.85551 -0.00352025 1.04376 7.71595 -0.00408845 1.01105
7.68662 -0.00426599 0.99849 7.54848 -0.00398569 0.0680842 8.33032 -0.00304964 -0.793458 8.80998
-0.00253754 -0.862047 9.27049 -0.00215209 -0.71319 9.32317 -0.00168687 -0.454088 9.62758 -0.000785847
-0.26745 9.73171 -0.000426575 -0.173625 9.76723 -0.000236093 -0.121639 9.79768 -0.000127231 -0.091045
9.82735 -6.5669e-05 -0.071141 9.85448 -3.07215e-05 -0.0569896 9.87838 -1.1431e-05 -0.0463167 9.89889
-9.84525e-07 -0.0380432 9.91611 4.00279e-06 -0.0315614 9.93035 6.25118e-06 -0.0264347 9.94208 7.41468e-06
-0.0223463 9.95174 7.11832e-06 -0.0190694 9.9597 6.55865e-06 -0.0164261 9.96624 6.46366e-06 -0.0142767
9.97163 6.03986e-06 -0.0125145 9.97608 5.26637e-06 -0.0110564 9.97978 4.54415e-06 -0.00983797 9.98285
3.98535e-06 -0.00881054 9.98542 3.54107e-06 -0.00793697 9.98757 3.02505e-06 -0.00718757 9.98938 2.52955e-06
-0.00653953 9.9909 2.25534e-06 -0.00597385 9.99219 1.80038e-06 -0.00547607 9.99329 1.46086e-06 -0.00503528
9.99423 1.3795e-06 -0.00464252 9.99503 1.22483e-06 -0.00429014 9.99572 1.15807e-06 -0.00397134 9.99631
1.1042e-06 -0.00368192 9.99682 1.03571e-06 -0.00341857 9.99726 9.71964e-07 -0.00317749 9.99764 8.83117e-07
-0.00295539 9.99798 7.22221e-07 -0.0027507 9.99827 6.13928e-07 -0.00256134 9.99852 7.32403e-07 -0.00238534
9.99874 1.00773e-06 -0.00222179 9.99894 9.22044e-07 -0.00206851 9.99911 7.50001e-07 -0.00192491 9.99926
7.86725e-07 -0.00179139 9.99939 7.45901e-07 -0.00166596 9.99951 5.71885e-07 -0.00154713 9.99961 4.00086e-07
-0.00143499 9.99971 7.39687e-07 -0.00132946 9.99979 1.46296e-06 -0.0012298 9.99986 1.97927e-06 -0.00113522
9.99992 2.20656e-06 -0.00104564 9.99998 2.63359e-06 -0.000960672 10 3.09725e-06 -0.000879188 10.0001
3.8001e-06 -0.000801191 10.0001 4.58047e-06 -0.000727095 10.0001 5.18461e-06 -0.000655954 10.0002 6.1989e-06
-0.000587148 10.0002 7.51023e-06 -0.000520786 10.0002 9.003e-06 -0.00045626 10.0002 1.05097e-05 -0.000393121
10.0003 1.15077e-05 -0.000331487 10.0003 1.13928e-05 -0.000270692 10.0003 1.05671e-05 -0.000210379 10.0003
8.76002e-06 -0.00015186 10.0004 4.94174e-06 -8.53775e-05 10.0004 2.49319e-06 -4.74406e-05 9.33205 -0.00140041
-0.48874 9.33206 -0.00140039 -0.488718 9.3613 -0.00138121 -0.503034 9.62718 -0.000673948 -0.282308
9.7327 -0.000332274 -0.182786 9.76774 -0.000164318 -0.127404 9.79799 -8.02091e-05 -0.094784 9.82761
-3.70745e-05 -0.0736464 9.85471 -1.42955e-05 -0.0587094 9.87859 -2.59718e-06 -0.0475183 9.89906 3.30164e-06
-0.038896 9.91625 5.63476e-06 -0.0321768 9.93047 6.38689e-06 -0.0268867 9.94218 6.76248e-06 -0.0226837
9.95183 6.08789e-06 -0.0193248 9.95976 5.39521e-06 -0.016622 9.96629 5.30097e-06 -0.0144287 9.97167
4.94623e-06 -0.0126338 9.97612 4.27185e-06 -0.011151 9.97981 3.64854e-06 -0.0099136 9.98288 3.18349e-06
-0.00887154 9.98544 2.84106e-06 -0.00798657 9.98759 2.4284e-06 -0.00722823 9.9894 2.00939e-06 -0.0065731
9.99092 1.79719e-06 -0.00600172 9.99221 1.4105e-06 -0.00549936 9.99331 1.12987e-06 -0.00505485 9.99424
1.09192e-06 -0.00465906 9.99504 9.75927e-07 -0.00430419 9.99573 9.45478e-07 -0.00398333 9.99632 9.20818e-07
-0.00369219 9.99683 8.77902e-07 -0.00342741 9.99727 8.35803e-07 -0.00318516 9.99765 7.63885e-07 -0.00296206
9.99799 6.20273e-07 -0.00275652 9.99828 5.22568e-07 -0.00256641 9.99853 6.49648e-07 -0.00238978 9.99875
9.42043e-07 -0.00222572 9.99894 8.72935e-07 -0.002072 9.99911 7.09127e-07 -0.00192797 9.99926 7.4699e-07
-0.00179411 9.9994 7.07638e-07 -0.00166839 9.99951 5.41016e-07 -0.0015493 9.99962 3.71122e-07 -0.00143693
9.99971 7.08752e-07 -0.00133119 9.99979 1.4479e-06 -0.00123134 9.99986 1.97576e-06 -0.00113661 9.99992
2.19361e-06 -0.0010469 9.99998 2.61499e-06 -0.000961793 10 3.08129e-06 -0.000880181 10.0001 3.78838e-06
-0.000802068 10.0001 4.57402e-06 -0.000727873 10.0001 5.18424e-06 -0.000656648 10.0002 6.20894e-06 -0.000587759
10.0002 7.53048e-06 -0.000521316 10.0002 9.03484e-06 -0.00045671 10.0002 1.05394e-05 -0.000393493 10.0003
1.15233e-05 -0.000331784 10.0003 1.14087e-05 -0.000270916 10.0003 1.05891e-05 -0.000210548 10.0003 8.77539e-06
-0.000151974 10.0004 4.93842e-06 -8.54433e-05 10.0004 2.47893e-06 -4.74872e-05 9.73499 -0.000309637 -0.204145
9.73499 -0.000309637 -0.204145 9.735 -0.000309604 -0.20413 9.76892 -0.000144324 -0.140841 9.7987
-6.64024e-05 -0.103504 9.82819 -2.84403e-05 -0.0794918 9.85523 -9.22894e-06 -0.062723 9.87905 1.57194e-07