/*--------------------------------*- C++ -*----------------------------------*\
  =========                 |
  \\      /  F ield         | OpenFOAM: The Open Source CFD Toolbox
   \\    /   O peration     | Website:  https://openfoam.org
    \\  /    A nd           | Version:  11
     \\/     M anipulation  |
\*---------------------------------------------------------------------------*/
FoamFile
{
    format      ascii;
    class       volScalarField;
    location    "0.018";
    object      k;
}
// * * * * * * * * * * * * * * * * * * * * * * * * * * * * * * * * * * * * * //

dimensions      [0 2 -2 0 0 0 0];

internalField   nonuniform List<scalar> 
287084
(
0.382653
0.389053
0.390667
0.390772
0.390754
0.390751
0.390609
0.390672
0.39078
0.390777
0.390776
0.390622
0.390581
0.390767
0.39096
0.390862
0.390919
0.390984
0.390965
0.390968
0.390938
0.390831
0.390789
0.390783
0.390664
0.390722
0.39084
0.390839
0.390838
0.390612
0.390699
0.390766
0.390545
0.390653
0.390748
0.390653
0.390592
0.390704
0.390786
0.39063
0.390708
0.390733
0.390558
0.390658
0.390738
0.390524
0.390633
0.390722
0.3907
0.390698
0.390635
0.390564
0.390653
0.390764
0.39063
0.390684
0.390698
0.390675
0.390613
0.390738
0.390824
0.390645
0.390733
0.390803
0.390748
0.390762
0.390702
0.390748
0.390759
0.390693
0.390622
0.39074
0.390858
0.390806
0.390779
0.390793
0.390809
0.39074
0.390756
0.390759
0.390716
0.390695
0.390553
0.390617
0.390744
0.390566
0.39066
0.390709
0.390676
0.390586
0.382656
0.388973
0.39075
0.390946
0.390912
0.390897
0.390885
0.390898
0.390854
0.390865
0.390843
0.390639
0.390674
0.390732
0.390518
0.390631
0.390738
0.390548
0.390573
0.390925
0.391015
0.390932
0.390912
0.390928
0.39095
0.390881
0.390884
0.390885
0.390788
0.390791
0.3908
0.390619
0.390714
0.390798
0.390595
0.390696
0.390853
0.390762
0.390758
0.390785
0.390783
0.390598
0.390672
0.39078
0.390756
0.390749
0.390524
0.390603
0.390673
0.390457
0.390561
0.390729
0.390656
0.390666
0.390642
0.390719
0.390752
0.390669
0.390726
0.390748
0.390581
0.390576
0.390729
0.39076
0.39073
0.390719
0.390684
0.390683
0.390654
0.390793
0.390872
0.390788
0.390791
0.390716
0.390777
0.390858
0.390835
0.39086
0.390809
0.390602
0.390623
0.390711
0.39061
0.390606
0.390602
0.390616
0.390522
0.39063
0.390717
0.390489
0.382654
0.388968
0.390746
0.390943
0.390864
0.390904
0.39092
0.390905
0.390929
0.390915
0.390883
0.390828
0.39065
0.390688
0.390799
0.390798
0.390798
0.390644
0.390603
0.3908
0.390949
0.390923
0.390913
0.390918
0.390932
0.39082
0.390771
0.390849
0.390876
0.39076
0.390869
0.390924
0.39076
0.390887
0.390957
0.390821
0.390943
0.390995
0.390887
0.390899
0.390894
0.390905
0.390886
0.390903
0.390831
0.390797
0.390816
0.390833
0.390779
0.390598
0.390633
0.390733
0.39073
0.390711
0.39074
0.390773
0.390592
0.390685
0.39074
0.390652
0.390623
0.390768
0.390902
0.390821
0.390849
0.390847
0.390856
0.390719
0.390763
0.390785
0.390652
0.390658
0.390657
0.39068
0.39069
0.390618
0.390735
0.390856
0.390819
0.390812
0.390798
0.390827
0.390801
0.390666
0.390705
0.390739
0.390587
0.390638
0.390649
0.390492
0.382654
0.388969
0.390718
0.391057
0.391036
0.391045
0.391045
0.391009
0.390961
0.390934
0.390945
0.390878
0.39085
0.390869
0.390889
0.39086
0.390828
0.3907
0.390825
0.390915
0.39078
0.39078
0.390768
0.390777
0.390768
0.39078
0.390656
0.390744
0.390824
0.390823
0.390822
0.390613
0.390726
0.390809
0.390622
0.390721
0.390858
0.390752
0.390811
0.390884
0.390854
0.39082
0.390793
0.390756
0.390739
0.390687
0.390551
0.39067
0.39077
0.390689
0.390696
0.390651
0.390647
0.390621
0.390738
0.39078
0.390674
0.390735
0.39076
0.390728
0.390643
0.390697
0.390903
0.390865
0.390863
0.390863
0.390852
0.390864
0.390815
0.390662
0.390693
0.390769
0.390774
0.390763
0.390797
0.390831
0.390813
0.390811
0.390706
0.3907
0.39065
0.390726
0.390756
0.390679
0.390674
0.390621
0.39066
0.390672
0.39063
0.390513
0.382653
0.388968
0.390721
0.391013
0.390994
0.391001
0.390952
0.390961
0.390982
0.390924
0.390928
0.390861
0.390793
0.390803
0.390825
0.390808
0.390806
0.390646
0.390722
0.390948
0.390871
0.390941
0.39096
0.390889
0.390893
0.390886
0.390748
0.390817
0.390878
0.390678
0.390763
0.39093
0.390862
0.390902
0.390969
0.390928
0.390895
0.390875
0.390785
0.390749
0.39071
0.390761
0.390798
0.390753
0.390624
0.390633
0.390728
0.390734
0.390714
0.390748
0.390779
0.390576
0.390673
0.390794
0.390686
0.390743
0.390828
0.390801
0.390773
0.390735
0.390624
0.39074
0.390818
0.390639
0.39073
0.390774
0.390615
0.390692
0.390808
0.39069
0.390754
0.390836
0.390824
0.390855
0.390786
0.390792
0.390818
0.390769
0.390787
0.39075
0.390626
0.390731
0.390788
0.39073
0.390755
0.390756
0.390727
0.390752
0.390758
0.39053
0.382653
0.388973
0.390531
0.390652
0.390613
0.390509
0.390648
0.390754
0.390658
0.390657
0.390585
0.390747
0.390909
0.390806
0.390869
0.390894
0.390863
0.390887
0.390816
0.390777
0.390772
0.390655
0.390726
0.390784
0.390583
0.39069
0.390847
0.390775
0.390788
0.390757
0.390854
0.390943
0.390876
0.390878
0.390858
0.390663
0.390724
0.390781
0.390577
0.390699
0.390801
0.390625
0.390753
0.390842
0.390685
0.390812
0.390888
0.390798
0.390806
0.390803
0.390685
0.390726
0.390754
0.390751
0.39075
0.39053
0.390609
0.390728
0.39072
0.390718
0.390516
0.390602
0.390726
0.390719
0.390718
0.3906
0.390557
0.390689
0.390918
0.390873
0.390875
0.39088
0.390878
0.390837
0.390805
0.390708
0.390784
0.390819
0.390696
0.390748
0.390806
0.3908
0.390788
0.390762
0.390691
0.390672
0.390662
0.390639
0.390636
0.390497
0.382641
0.389031
0.390521
0.390566
0.390598
0.390598
0.390652
0.39067
0.39058
0.39064
0.390991
0.391163
0.391196
0.391204
0.391213
0.391172
0.391133
0.39114
0.391101
0.391013
0.391022
0.391043
0.391027
0.39104
0.390997
0.390904
0.390774
0.39086
0.390917
0.390893
0.390824
0.390882
0.390926
0.390761
0.390885
0.390953
0.390814
0.390904
0.390965
0.390959
0.390989
0.390908
0.390918
0.390936
0.390877
0.390885
0.390841
0.390803
0.390809
0.390756
0.390739
0.390751
0.390753
0.390595
0.390667
0.390756
0.390734
0.390729
0.390523
0.390604
0.390725
0.390604
0.390674
0.390694
0.390651
0.390535
0.390611
0.390735
0.39062
0.390655
0.390672
0.390564
0.390638
0.39075
0.390705
0.390699
0.390583
0.39073
0.390819
0.390749
0.390743
0.390757
0.390702
0.390728
0.390778
0.390706
0.39068
0.390725
0.390742
0.390523
0.382653
0.388968
0.390711
0.39109
0.39116
0.391173
0.391176
0.391179
0.391182
0.391187
0.391191
0.391196
0.391201
0.391207
0.391213
0.391173
0.391135
0.391143
0.391105
0.391016
0.391023
0.391044
0.391027
0.39104
0.39101
0.390957
0.39079
0.39083
0.390891
0.390757
0.390873
0.390933
0.390768
0.390893
0.390961
0.390822
0.3909
0.391085
0.391047
0.391034
0.391077
0.391025
0.391055
0.391064
0.391028
0.391016
0.390977
0.390906
0.390872
0.39085
0.39087
0.3908
0.390772
0.39075
0.39077
0.390701
0.390667
0.390674
0.390598
0.390687
0.390871
0.39081
0.390807
0.390808
0.390808
0.390687
0.390753
0.390776
0.390648
0.390655
0.390655
0.390661
0.390544
0.390621
0.390739
0.390729
0.390726
0.390523
0.390601
0.390822
0.390805
0.390761
0.390701
0.390652
0.390504
0.390556
0.390687
0.3907
0.390702
0.39051
0.382652
0.389008
0.390558
0.390731
0.390707
0.39062
0.390591
0.39055
0.390622
0.390968
0.391155
0.39119
0.3912
0.391209
0.391169
0.39113
0.39114
0.391102
0.391007
0.391004
0.39107
0.391042
0.391007
0.391017
0.391
0.39095
0.39079
0.39083
0.390895
0.390761
0.390877
0.390935
0.39077
0.390894
0.39096
0.390821
0.390898
0.391086
0.39105
0.390978
0.390972
0.390984
0.390997
0.390926
0.390888
0.390826
0.390784
0.390652
0.390712
0.390741
0.390575
0.390644
0.390671
0.390508
0.390597
0.390728
0.390719
0.390716
0.390514
0.3906
0.390723
0.390717
0.390715
0.390514
0.390592
0.390815
0.390799
0.390755
0.390696
0.390646
0.390542
0.39052
0.390753
0.390864
0.390828
0.390825
0.390767
0.390721
0.39076
0.390853
0.390845
0.390878
0.390808
0.390805
0.390837
0.390788
0.390603
0.390647
0.390718
0.390489
0.382636
0.389048
0.390497
0.390475
0.390618
0.39071
0.390514
0.390618
0.390775
0.390774
0.390774
0.390575
0.390668
0.390802
0.390799
0.390799
0.390601
0.390695
0.390831
0.390797
0.390812
0.390791
0.390706
0.39075
0.390858
0.390844
0.390826
0.39087
0.390905
0.390717
0.390842
0.390932
0.390777
0.39076
0.390808
0.390816
0.390774
0.390668
0.390717
0.390735
0.390539
0.390643
0.39073
0.390535
0.390632
0.390689
0.390503
0.390603
0.390736
0.390618
0.390623
0.390615
0.39062
0.390504
0.390598
0.390671
0.390472
0.390566
0.39069
0.390604
0.390598
0.390483
0.390585
0.390726
0.390578
0.390582
0.390685
0.390698
0.390668
0.39067
0.390663
0.390536
0.390603
0.390678
0.39048
0.390574
0.3907
0.390651
0.390645
0.390496
0.390589
0.390703
0.390616
0.39061
0.390494
0.390523
0.390756
0.390792
0.390735
0.390554
0.382643
0.389015
0.390627
0.390778
0.390732
0.390633
0.390557
0.390721
0.391004
0.391004
0.391024
0.390969
0.390974
0.390994
0.390951
0.390971
0.390958
0.390929
0.390874
0.390698
0.390739
0.390852
0.390851
0.39085
0.39065
0.390741
0.390868
0.390783
0.390788
0.390768
0.390868
0.390952
0.390925
0.390946
0.390882
0.390664
0.390723
0.390774
0.390568
0.390689
0.390788
0.390613
0.39074
0.390827
0.390671
0.390773
0.390851
0.390801
0.390794
0.390648
0.390712
0.390741
0.390584
0.390655
0.390758
0.390711
0.390554
0.390597
0.390692
0.390604
0.390598
0.390483
0.390599
0.390701
0.390604
0.390606
0.390531
0.390666
0.390911
0.390865
0.390872
0.390868
0.390878
0.390846
0.390767
0.390826
0.390868
0.390852
0.390821
0.390831
0.390858
0.390817
0.390811
0.390644
0.390715
0.390775
0.390671
0.390702
0.390654
0.39052
0.382642
0.389022
0.390597
0.390729
0.390774
0.390782
0.390736
0.390611
0.390641
0.390967
0.391157
0.391193
0.391203
0.391209
0.391219
0.391179
0.391142
0.39115
0.39111
0.391078
0.391029
0.390992
0.39098
0.390951
0.390899
0.390761
0.390831
0.390895
0.390695
0.39078
0.390817
0.390621
0.390732
0.39081
0.390606
0.390726
0.390823
0.390644
0.390769
0.390853
0.390693
0.390817
0.390889
0.390798
0.390806
0.390802
0.39068
0.39072
0.390743
0.390703
0.390695
0.390488
0.390487
0.390673
0.390695
0.390667
0.390643
0.390643
0.390576
0.390623
0.390712
0.390671
0.390671
0.390548
0.390535
0.390649
0.390594
0.390721
0.390781
0.390705
0.390695
0.390542
0.390638
0.390714
0.390612
0.390616
0.390539
0.390704
0.390815
0.390704
0.390706
0.390702
0.390737
0.390734
0.390761
0.390707
0.390675
0.390709
0.390713
0.390528
0.382653
0.388967
0.39071
0.391088
0.391159
0.391171
0.391175
0.391179
0.391182
0.391188
0.391193
0.391198
0.391204
0.391211
0.39122
0.391181
0.391142
0.391156
0.391121
0.391033
0.391029
0.391049
0.391009
0.391023
0.391
0.390959
0.390819
0.390863
0.390918
0.390779
0.390892
0.390945
0.390777
0.390845
0.391037
0.391029
0.391005
0.390994
0.390944
0.390982
0.391033
0.391019
0.39102
0.390978
0.390908
0.390867
0.390844
0.390859
0.390839
0.390803
0.390765
0.390722
0.390636
0.390759
0.390821
0.39074
0.390746
0.390697
0.390816
0.390866
0.390763
0.390775
0.390742
0.390817
0.39084
0.390694
0.390759
0.390784
0.39065
0.390655
0.390654
0.39066
0.390543
0.39062
0.390739
0.390728
0.390725
0.390523
0.390608
0.390732
0.390725
0.390723
0.390522
0.3906
0.390822
0.390806
0.390764
0.390743
0.390689
0.39049
0.382637
0.389045
0.390535
0.39062
0.3906
0.390551
0.390719
0.390817
0.390748
0.390765
0.390736
0.390618
0.390684
0.390808
0.390805
0.390805
0.390654
0.390622
0.390816
0.391008
0.390911
0.390952
0.391024
0.391015
0.390976
0.390949
0.390828
0.390831
0.39087
0.390774
0.390894
0.390948
0.390778
0.390844
0.39104
0.391033
0.391011
0.39101
0.390974
0.390929
0.390913
0.390888
0.39086
0.39084
0.390821
0.390779
0.390742
0.390612
0.390694
0.390839
0.390758
0.390768
0.390775
0.390754
0.390583
0.3906
0.390684
0.390704
0.390707
0.390591
0.390546
0.390709
0.390808
0.3907
0.390719
0.390708
0.390755
0.390702
0.39068
0.390685
0.390614
0.390721
0.390886
0.39078
0.390832
0.390921
0.390883
0.390858
0.390889
0.39084
0.390647
0.390648
0.390754
0.390713
0.39078
0.390859
0.390829
0.390832
0.390775
0.390545
0.382653
0.388967
0.39071
0.391089
0.39116
0.391172
0.391175
0.391179
0.391182
0.391188
0.391193
0.391198
0.391205
0.391212
0.391224
0.391184
0.391147
0.391161
0.391124
0.391092
0.391042
0.391005
0.390973
0.390911
0.390877
0.390764
0.390856
0.390917
0.390848
0.390868
0.390837
0.390706
0.390762
0.390815
0.390606
0.390724
0.390819
0.390638
0.390762
0.390843
0.390683
0.390807
0.390875
0.390743
0.390738
0.390736
0.390784
0.390858
0.39083
0.390773
0.390666
0.390615
0.39065
0.39063
0.390631
0.390574
0.390653
0.390927
0.390933
0.39095
0.390946
0.390914
0.390904
0.390851
0.390813
0.390683
0.390744
0.390777
0.390647
0.390654
0.390654
0.39066
0.390542
0.390619
0.390738
0.390727
0.390725
0.390522
0.390607
0.390732
0.390725
0.390723
0.390521
0.390608
0.390733
0.390684
0.390687
0.390658
0.39064
0.390477
0.382665
0.38891
0.390702
0.390925
0.390863
0.390853
0.390897
0.39092
0.390875
0.390885
0.390832
0.390655
0.390693
0.390807
0.390808
0.390809
0.390613
0.390709
0.39085
0.390832
0.39081
0.390821
0.390847
0.390821
0.390758
0.390803
0.390875
0.390669
0.390768
0.390927
0.390915
0.390885
0.390915
0.390932
0.390804
0.390815
0.390751
0.39072
0.390714
0.390593
0.390665
0.390722
0.390519
0.390626
0.390776
0.390618
0.390699
0.390763
0.390749
0.390747
0.390684
0.390591
0.390649
0.390987
0.391095
0.391113
0.391119
0.391074
0.391041
0.391048
0.390987
0.390953
0.390935
0.390946
0.39094
0.390893
0.390859
0.390767
0.39081
0.390829
0.390664
0.390742
0.390773
0.390726
0.390722
0.390651
0.390643
0.390603
0.390572
0.390727
0.390801
0.390764
0.390761
0.390674
0.390742
0.390767
0.390736
0.390759
0.390705
0.390518
0.382664
0.388914
0.390675
0.391077
0.391157
0.391171
0.391176
0.391179
0.391183
0.391189
0.391194
0.391201
0.391207
0.391215
0.391226
0.391188
0.391155
0.391116
0.391085
0.391089
0.391005
0.391013
0.391033
0.390939
0.390941
0.390934
0.390927
0.390743
0.390805
0.390867
0.390821
0.390812
0.390636
0.390706
0.390731
0.390705
0.390699
0.39053
0.39064
0.390727
0.390526
0.390645
0.39075
0.390623
0.390609
0.390534
0.390656
0.390728
0.390729
0.390729
0.390596
0.390535
0.39064
0.391006
0.391099
0.391066
0.391029
0.39103
0.390988
0.390952
0.390935
0.390948
0.390938
0.390891
0.390855
0.3908
0.390764
0.39068
0.390739
0.390754
0.390679
0.390685
0.390605
0.390583
0.390503
0.390605
0.390737
0.390727
0.390725
0.390608
0.39056
0.390723
0.39082
0.39078
0.390764
0.390768
0.390778
0.390756
0.390751
0.39054
0.382653
0.388967
0.390711
0.39109
0.39116
0.391172
0.391176
0.39118
0.391184
0.39119
0.391196
0.391201
0.391209
0.391216
0.391225
0.391237
0.3912
0.391168
0.391129
0.391099
0.391102
0.391124
0.391079
0.391046
0.390992
0.390807
0.390867
0.390935
0.390789
0.39084
0.390847
0.390685
0.390766
0.390816
0.390604
0.390721
0.390811
0.390629
0.390753
0.390833
0.390672
0.390787
0.390891
0.390845
0.390834
0.390818
0.390834
0.390825
0.390827
0.390735
0.390612
0.390712
0.39103
0.391101
0.391065
0.391034
0.391037
0.390994
0.390958
0.390941
0.390957
0.390889
0.390857
0.390842
0.390808
0.39081
0.390812
0.390771
0.390761
0.390769
0.390711
0.39067
0.390541
0.390614
0.390736
0.390727
0.390724
0.390521
0.390607
0.390731
0.390715
0.390714
0.390653
0.390643
0.390498
0.390557
0.390692
0.390702
0.390703
0.39051
0.382664
0.388914
0.390675
0.391077
0.391157
0.391171
0.391176
0.39118
0.391185
0.39119
0.391195
0.391202
0.391209
0.39122
0.391182
0.391151
0.391111
0.39108
0.391084
0.391001
0.391016
0.391037
0.390988
0.391007
0.390954
0.390772
0.390827
0.390891
0.390685
0.390806
0.390906
0.390728
0.39078
0.39086
0.390845
0.390835
0.390654
0.390618
0.390678
0.390691
0.390625
0.390681
0.390711
0.390506
0.3906
0.390658
0.390473
0.390587
0.390682
0.390583
0.390587
0.390511
0.390629
0.390995
0.39109
0.391111
0.391068
0.391045
0.391052
0.390994
0.390958
0.390942
0.390958
0.390896
0.390867
0.390843
0.390858
0.390856
0.39081
0.390772
0.390766
0.39072
0.390668
0.390678
0.390632
0.390573
0.390721
0.390783
0.390734
0.390728
0.390585
0.39067
0.390715
0.390678
0.390693
0.390669
0.39058
0.390641
0.390716
0.390487
0.382664
0.388914
0.390674
0.391085
0.391071
0.391036
0.391037
0.391006
0.390957
0.390927
0.390847
0.39081
0.39087
0.390892
0.390928
0.39088
0.390685
0.390743
0.390932
0.390837
0.39092
0.391007
0.390998
0.390995
0.390787
0.390841
0.390901
0.390699
0.390793
0.390844
0.390648
0.390758
0.39083
0.39062
0.390735
0.390827
0.390749
0.390786
0.390737
0.3906
0.390663
0.39071
0.390589
0.390587
0.390529
0.390527
0.390539
0.390532
0.390668
0.391009
0.391087
0.391101
0.391106
0.391107
0.391108
0.39111
0.391111
0.391113
0.391114
0.391116
0.391118
0.391118
0.391123
0.391076
0.391042
0.391043
0.391006
0.390971
0.390946
0.390959
0.390897
0.390865
0.390871
0.390874
0.39086
0.390722
0.390762
0.390788
0.390654
0.390659
0.390659
0.390663
0.390632
0.39059
0.39065
0.390746
0.390717
0.390686
0.390634
0.3905
0.38265
0.388977
0.390576
0.390722
0.390663
0.390679
0.390601
0.390663
0.390719
0.390522
0.390632
0.390797
0.390634
0.390713
0.390755
0.39064
0.390621
0.390798
0.391053
0.39101
0.391057
0.391079
0.391038
0.391054
0.391004
0.390825
0.390891
0.390949
0.390748
0.390849
0.390951
0.390782
0.390889
0.390965
0.390824
0.390913
0.390939
0.390899
0.390889
0.39085
0.390862
0.390866
0.390844
0.390804
0.390747
0.390564
0.390595
0.390694
0.39062
0.390609
0.390575
0.390505
0.390587
0.390701
0.39059
0.390606
0.390599
0.390617
0.390495
0.390582
0.390659
0.390462
0.39057
0.390652
0.390456
0.390523
0.390734
0.390669
0.390748
0.390785
0.390678
0.390666
0.390656
0.390661
0.390543
0.39062
0.390738
0.390727
0.390725
0.390523
0.390608
0.390731
0.390654
0.39064
0.390605
0.390537
0.39062
0.390733
0.390701
0.390611
0.382653
0.388967
0.390711
0.39109
0.391161
0.391172
0.391175
0.391179
0.391184
0.39119
0.3912
0.39116
0.391126
0.391085
0.391052
0.391057
0.391081
0.391036
0.391
0.390976
0.390926
0.390877
0.390731
0.390806
0.390927
0.39084
0.390829
0.390732
0.390851
0.3909
0.390867
0.390781
0.390801
0.390824
0.390799
0.390799
0.390734
0.390734
0.390738
0.390702
0.390693
0.390663
0.390497
0.390608
0.390758
0.390706
0.390695
0.390666
0.39062
0.390638
0.390906
0.391074
0.391099
0.391104
0.391106
0.391108
0.391109
0.391111
0.391112
0.391114
0.391117
0.391118
0.391119
0.391121
0.391122
0.391127
0.39108
0.391057
0.391063
0.391008
0.390972
0.390946
0.39096
0.390896
0.390861
0.390862
0.390875
0.390827
0.390698
0.390737
0.390803
0.390661
0.390753
0.390789
0.390654
0.39064
0.39063
0.39065
0.390651
0.390525
0.382653
0.388967
0.390711
0.39109
0.391161
0.391172
0.391176
0.39118
0.391185
0.39119
0.391197
0.391204
0.391212
0.391221
0.391233
0.391197
0.391167
0.391129
0.3911
0.391107
0.391131
0.391087
0.391052
0.391027
0.390981
0.390839
0.390898
0.390966
0.390824
0.390883
0.390896
0.390794
0.390909
0.390968
0.390825
0.390899
0.391005
0.390977
0.390968
0.390963
0.390967
0.390972
0.390946
0.3909
0.390816
0.390773
0.390789
0.390788
0.390613
0.390637
0.39094
0.391077
0.391098
0.391103
0.391105
0.391108
0.391109
0.391111
0.391112
0.391115
0.391116
0.391117
0.391119
0.391121
0.391123
0.391124
0.391125
0.391128
0.3911
0.391057
0.391042
0.391053
0.390993
0.390957
0.390948
0.390965
0.390915
0.39088
0.390877
0.390837
0.390834
0.390736
0.390779
0.390807
0.390661
0.390728
0.390751
0.390727
0.390723
0.390538
0.382646
0.389011
0.390585
0.39071
0.390695
0.390777
0.39078
0.390592
0.390672
0.390723
0.390527
0.390554
0.390887
0.39116
0.391221
0.391244
0.391209
0.391178
0.391141
0.391113
0.391115
0.391083
0.391058
0.390928
0.390967
0.391001
0.39086
0.390849
0.39082
0.390826
0.390724
0.390797
0.390837
0.390621
0.390735
0.390822
0.390637
0.390707
0.390912
0.390925
0.390908
0.39088
0.390893
0.390909
0.390873
0.390743
0.39071
0.390716
0.390701
0.39072
0.390668
0.390643
0.390628
0.39057
0.390673
0.391018
0.391006
0.390933
0.390931
0.39094
0.390959
0.390891
0.390856
0.390851
0.39081
0.39077
0.39076
0.390711
0.390663
0.390623
0.39058
0.390559
0.390704
0.390921
0.390874
0.390871
0.390875
0.390865
0.39086
0.390722
0.390761
0.39078
0.390652
0.39066
0.39066
0.390666
0.390548
0.390639
0.390718
0.390488
0.382653
0.388967
0.39071
0.39109
0.39116
0.391172
0.391175
0.391183
0.391137
0.391101
0.391061
0.391027
0.391028
0.390998
0.390918
0.390876
0.390882
0.390897
0.390899
0.390858
0.390714
0.390808
0.390901
0.390888
0.390863
0.390886
0.390919
0.390691
0.390781
0.390854
0.390818
0.39072
0.390746
0.39077
0.390665
0.390648
0.390493
0.390612
0.390718
0.390523
0.390617
0.390667
0.390477
0.390581
0.390642
0.390439
0.390543
0.390694
0.390546
0.390574
0.390643
0.390609
0.390607
0.390515
0.390576
0.390698
0.390587
0.390578
0.390667
0.390681
0.390642
0.390539
0.390594
0.390663
0.390466
0.390582
0.390694
0.390487
0.390589
0.390664
0.390516
0.390487
0.390672
0.390732
0.390647
0.390662
0.390613
0.390589
0.390483
0.390579
0.3907
0.39064
0.390633
0.390497
0.390602
0.390672
0.390473
0.390584
0.39067
0.390459
0.382653
0.388967
0.39071
0.39109
0.391161
0.391173
0.391176
0.39118
0.391185
0.391191
0.391198
0.391205
0.391215
0.391178
0.391146
0.391107
0.391077
0.391082
0.391001
0.390984
0.391005
0.391003
0.391021
0.390967
0.390781
0.390842
0.39091
0.390708
0.390803
0.390857
0.390641
0.390729
0.390784
0.390552
0.390645
0.39079
0.390776
0.390769
0.390553
0.39064
0.390709
0.3906
0.390612
0.390527
0.390646
0.390785
0.390697
0.390734
0.390751
0.39071
0.390546
0.390607
0.390645
0.390441
0.390546
0.390702
0.390587
0.390624
0.39064
0.390524
0.390601
0.390713
0.390707
0.390706
0.390506
0.39061
0.390702
0.390491
0.390588
0.390671
0.390475
0.390591
0.390702
0.390671
0.390667
0.390507
0.390598
0.390673
0.390515
0.390605
0.390711
0.390601
0.390642
0.390659
0.39063
0.390521
0.390628
0.390715
0.390692
0.39063
0.382653
0.388967
0.39071
0.39109
0.39116
0.391172
0.391176
0.39118
0.391185
0.39119
0.391197
0.391204
0.391213
0.391222
0.391232
0.391245
0.39121
0.391179
0.391142
0.391113
0.391121
0.391144
0.391103
0.391015
0.390992
0.390988
0.390877
0.390914
0.390987
0.390928
0.390925
0.390843
0.390931
0.390973
0.390826
0.390912
0.390938
0.390858
0.39087
0.390855
0.390871
0.390847
0.390803
0.390753
0.390687
0.390715
0.390723
0.390605
0.390549
0.390711
0.391025
0.391088
0.3911
0.391103
0.391105
0.391107
0.391109
0.39111
0.391112
0.391114
0.391116
0.391117
0.391119
0.391121
0.391122
0.391126
0.391097
0.391054
0.391046
0.391055
0.391002
0.390967
0.390945
0.39096
0.390899
0.390866
0.390871
0.390873
0.390862
0.390724
0.390759
0.390781
0.390732
0.390726
0.390656
0.390646
0.39052
0.390625
0.390714
0.390487
0.382653
0.388967
0.390711
0.39109
0.391161
0.391173
0.391176
0.391181
0.391185
0.39119
0.391197
0.391204
0.391213
0.391221
0.391233
0.391197
0.391166
0.391129
0.3911
0.391105
0.391023
0.391031
0.39106
0.391037
0.391035
0.390856
0.39091
0.39096
0.390779
0.390878
0.390961
0.390791
0.390902
0.390969
0.390825
0.390899
0.391005
0.390977
0.390968
0.390963
0.390968
0.390973
0.390946
0.3909
0.390817
0.390774
0.39079
0.390788
0.390614
0.390638
0.390939
0.391077
0.391099
0.391104
0.391105
0.391107
0.391109
0.391111
0.391112
0.391115
0.391116
0.391117
0.391122
0.391091
0.391049
0.39103
0.391038
0.390997
0.39097
0.390967
0.390937
0.390887
0.390867
0.390744
0.390792
0.390836
0.390724
0.390791
0.390871
0.390841
0.390849
0.390802
0.390737
0.390743
0.390689
0.390661
0.390588
0.390655
0.39068
0.390486
0.382653
0.388967
0.39071
0.39109
0.391161
0.391172
0.391176
0.39118
0.391185
0.391189
0.391199
0.39116
0.391126
0.391086
0.39105
0.391053
0.391029
0.390939
0.390896
0.390905
0.390902
0.390873
0.390731
0.390806
0.390927
0.390925
0.390905
0.39093
0.390954
0.390879
0.390895
0.390866
0.390875
0.390875
0.390821
0.390623
0.390699
0.390751
0.390734
0.390689
0.390666
0.390676
0.390498
0.390608
0.390758
0.390709
0.390735
0.390717
0.390643
0.390651
0.390915
0.391074
0.391099
0.391104
0.391106
0.391108
0.39111
0.391111
0.391113
0.391114
0.391117
0.39112
0.391092
0.391049
0.391043
0.391052
0.391037
0.391009
0.390966
0.390941
0.390887
0.390882
0.39089
0.390818
0.390893
0.390931
0.390873
0.390874
0.390832
0.39084
0.390809
0.39069
0.390747
0.390776
0.39062
0.390712
0.390748
0.390687
0.390678
0.390502
0.38265
0.388977
0.390575
0.390726
0.390667
0.390686
0.390607
0.390633
0.390741
0.390772
0.390777
0.390581
0.390675
0.390814
0.390756
0.390749
0.390608
0.390594
0.390844
0.391035
0.390939
0.391005
0.391026
0.390958
0.390979
0.39098
0.390873
0.390912
0.390979
0.390879
0.390866
0.390824
0.390921
0.39097
0.390826
0.3909
0.39101
0.390993
0.390992
0.390955
0.390906
0.390863
0.390858
0.390838
0.3908
0.390743
0.390561
0.390593
0.390694
0.390584
0.390601
0.390594
0.39061
0.390489
0.390575
0.390651
0.390454
0.390537
0.390713
0.390651
0.390644
0.390511
0.390591
0.390717
0.390713
0.390712
0.390594
0.390551
0.390677
0.390951
0.390942
0.39096
0.390964
0.390932
0.390896
0.390829
0.390788
0.390784
0.390695
0.390759
0.390857
0.390743
0.390775
0.390839
0.390854
0.390809
0.390634
0.390665
0.39068
0.390486
0.382665
0.38891
0.390702
0.390924
0.39082
0.390822
0.390905
0.39091
0.390873
0.390885
0.390833
0.390657
0.390715
0.390797
0.390778
0.390776
0.390601
0.390749
0.390887
0.390862
0.390834
0.390843
0.39087
0.390844
0.390777
0.390823
0.390894
0.390687
0.390801
0.390911
0.390724
0.390821
0.390958
0.390912
0.390907
0.390867
0.390908
0.39089
0.390836
0.390625
0.390665
0.39071
0.390588
0.390585
0.390528
0.390526
0.390539
0.390531
0.390702
0.390824
0.390679
0.390767
0.390802
0.390666
0.390737
0.391009
0.391055
0.391019
0.391027
0.390995
0.390961
0.390891
0.39086
0.390843
0.390807
0.390809
0.39081
0.390769
0.39076
0.390769
0.39071
0.39067
0.390542
0.390615
0.390736
0.390726
0.390723
0.390521
0.390606
0.39073
0.39062
0.390654
0.390606
0.39057
0.390588
0.390577
0.390537
0.390518
0.390516
0.390445
0.382665
0.38891
0.390702
0.390924
0.390819
0.390808
0.390894
0.390919
0.390875
0.390886
0.390834
0.390657
0.390714
0.390796
0.390744
0.390739
0.390593
0.390745
0.390885
0.390875
0.390874
0.390676
0.390775
0.390843
0.390645
0.390771
0.390883
0.390682
0.390797
0.390908
0.390738
0.39083
0.390865
0.390781
0.390769
0.390703
0.390758
0.390823
0.390771
0.390597
0.39065
0.390709
0.390509
0.390605
0.390664
0.390638
0.390582
0.39056
0.390859
0.391067
0.3911
0.391107
0.391084
0.391042
0.39102
0.390972
0.39099
0.3911
0.391068
0.391033
0.391035
0.390992
0.390954
0.390945
0.390964
0.390894
0.390859
0.390863
0.390865
0.390855
0.390717
0.390753
0.390776
0.390727
0.390722
0.390653
0.390642
0.390516
0.390608
0.390738
0.390622
0.39064
0.390632
0.390645
0.390523
0.390608
0.390682
0.390586
0.390574
0.390445
0.382653
0.388967
0.39071
0.39109
0.39116
0.391172
0.391176
0.39118
0.391183
0.391189
0.391194
0.391202
0.391209
0.391217
0.391225
0.391237
0.3912
0.391168
0.391128
0.391098
0.391102
0.391125
0.391079
0.391046
0.390992
0.390819
0.390891
0.390943
0.390756
0.39088
0.390961
0.390797
0.390864
0.391025
0.391002
0.390924
0.390973
0.391017
0.390935
0.390991
0.391054
0.391016
0.390958
0.390958
0.390892
0.390801
0.390804
0.390818
0.390789
0.390792
0.390643
0.390696
0.391004
0.391098
0.391064
0.391025
0.391023
0.390996
0.39096
0.390942
0.390958
0.39089
0.390858
0.390843
0.390808
0.39081
0.390812
0.390771
0.390761
0.390769
0.390711
0.39067
0.390542
0.390615
0.390737
0.390727
0.390724
0.390522
0.390599
0.39082
0.390804
0.390759
0.3907
0.390651
0.390502
0.390555
0.390687
0.390701
0.390702
0.39051
0.382664
0.388914
0.390675
0.391078
0.391158
0.391171
0.391176
0.391179
0.391184
0.391189
0.391194
0.391201
0.391208
0.391216
0.391224
0.391235
0.391197
0.391165
0.391125
0.391094
0.391098
0.391014
0.390997
0.391016
0.390967
0.390965
0.390843
0.390841
0.390878
0.390785
0.390904
0.390953
0.390783
0.390843
0.391038
0.391042
0.391005
0.390986
0.390932
0.390975
0.391031
0.390966
0.39096
0.390948
0.390956
0.390888
0.390851
0.390829
0.390792
0.390755
0.390716
0.390635
0.39075
0.391003
0.390983
0.390991
0.390982
0.390895
0.390945
0.391099
0.391074
0.391036
0.390993
0.390956
0.390937
0.390941
0.390934
0.3909
0.390872
0.390844
0.390816
0.390783
0.390755
0.390725
0.39073
0.3907
0.390722
0.390751
0.390713
0.390713
0.390607
0.390702
0.390753
0.390604
0.390697
0.390735
0.39056
0.390648
0.39072
0.390489
0.382664
0.388914
0.390674
0.391086
0.391071
0.391037
0.391062
0.390976
0.390989
0.391002
0.390887
0.390837
0.390807
0.390791
0.390802
0.390803
0.390681
0.390727
0.390837
0.390849
0.390852
0.390656
0.390756
0.390822
0.390626
0.390754
0.390869
0.390677
0.390777
0.390836
0.390807
0.390736
0.390792
0.390863
0.390852
0.390846
0.390608
0.390688
0.390749
0.390544
0.390662
0.390766
0.390625
0.390678
0.390688
0.390659
0.390602
0.390709
0.390774
0.390712
0.390726
0.39064
0.390741
0.391035
0.39106
0.39103
0.390979
0.390965
0.390963
0.390935
0.39097
0.391041
0.391008
0.390955
0.390967
0.390891
0.390878
0.390886
0.390816
0.390892
0.390929
0.390862
0.390858
0.390867
0.390896
0.390817
0.390775
0.390694
0.390756
0.390783
0.390622
0.390632
0.390737
0.390732
0.390614
0.390702
0.390754
0.390706
0.390697
0.390494
0.382653
0.388967
0.39071
0.391089
0.39116
0.391172
0.391175
0.391179
0.391182
0.391188
0.391194
0.391199
0.391206
0.391213
0.39122
0.391231
0.391192
0.391159
0.391118
0.391087
0.391088
0.391052
0.391023
0.39089
0.390917
0.390958
0.390847
0.390888
0.390914
0.390867
0.390711
0.390778
0.390829
0.390619
0.390737
0.390832
0.39065
0.390774
0.390853
0.390692
0.390816
0.390882
0.390746
0.390842
0.390885
0.390862
0.390883
0.390855
0.390832
0.390796
0.39076
0.390721
0.390641
0.390768
0.390928
0.390847
0.390846
0.390842
0.390864
0.390898
0.39091
0.390815
0.390849
0.390881
0.390817
0.390819
0.39082
0.390857
0.390835
0.390794
0.390715
0.390686
0.390545
0.39061
0.390737
0.390727
0.390725
0.390522
0.390607
0.390732
0.390725
0.390723
0.390521
0.390608
0.390732
0.390683
0.390686
0.390657
0.390639
0.390476
0.382648
0.389025
0.390525
0.390676
0.390653
0.390673
0.390562
0.390596
0.39072
0.390604
0.390596
0.390573
0.390719
0.391098
0.391203
0.391181
0.391145
0.39116
0.391122
0.391088
0.391038
0.391
0.390967
0.390896
0.390861
0.390763
0.390862
0.390923
0.390738
0.390864
0.390949
0.390787
0.390856
0.391053
0.391049
0.39102
0.391005
0.390952
0.391009
0.391025
0.390948
0.390942
0.39094
0.390962
0.39092
0.390862
0.390683
0.390715
0.390742
0.390615
0.390671
0.39076
0.390744
0.39076
0.390708
0.390518
0.390519
0.390645
0.390645
0.390645
0.390512
0.390584
0.390681
0.39063
0.390624
0.390484
0.390578