/*--------------------------------*- C++ -*----------------------------------*\
  =========                 |
  \\      /  F ield         | OpenFOAM: The Open Source CFD Toolbox
   \\    /   O peration     | Website:  https://openfoam.org
    \\  /    A nd           | Version:  11
     \\/     M anipulation  |
\*---------------------------------------------------------------------------*/
FoamFile
{
    format      ascii;
    class       volScalarField;
    location    "0.018";
    object      nut;
}
// * * * * * * * * * * * * * * * * * * * * * * * * * * * * * * * * * * * * * //

dimensions      [0 2 -1 0 0 0 0];

internalField   nonuniform List<scalar> 
287084
(
0.00083914
0.000853741
0.000857787
0.000858309
0.000858355
0.000858393
0.000858089
0.00085822
0.00085844
0.000858402
0.000858361
0.000857977
0.000857835
0.000858191
0.000858564
0.000858288
0.000858357
0.000858444
0.000858352
0.000858304
0.000858193
0.000857915
0.000857792
0.000857755
0.000857471
0.000857592
0.000857845
0.000857833
0.000857848
0.000857406
0.000857664
0.00085787
0.000857452
0.000857761
0.000858047
0.000857924
0.000857873
0.000858205
0.000858469
0.000858209
0.000858458
0.000858589
0.000858276
0.000858563
0.0008588
0.000858384
0.000858672
0.000858911
0.000858901
0.00085893
0.000858819
0.000858686
0.000858892
0.000859133
0.000858835
0.000858944
0.000858993
0.000858962
0.000858816
0.00085908
0.000859255
0.000858873
0.000859074
0.000859207
0.000859093
0.000859129
0.000858979
0.000859086
0.000859114
0.000858964
0.000858797
0.00085906
0.000859325
0.000859198
0.000859138
0.000859161
0.000859205
0.000859056
0.000859076
0.000859089
0.000858998
0.000858945
0.000858631
0.000858772
0.000859049
0.000858653
0.000858856
0.000858961
0.00085888
0.000858658
0.00118591
0.00120585
0.00121149
0.0012122
0.00121209
0.00121204
0.00121199
0.00121201
0.00121183
0.00121181
0.00121169
0.00121098
0.00121102
0.00121112
0.00121038
0.00121065
0.00121091
0.00121024
0.00121024
0.00121126
0.00121147
0.00121115
0.00121105
0.00121106
0.0012111
0.00121088
0.00121089
0.00121091
0.00121065
0.00121071
0.0012108
0.00121032
0.00121071
0.00121107
0.00121055
0.00121099
0.00121159
0.00121143
0.00121154
0.00121174
0.00121184
0.00121138
0.00121171
0.00121214
0.00121215
0.0012122
0.00121157
0.00121188
0.00121215
0.00121153
0.00121189
0.00121245
0.00121225
0.00121231
0.00121225
0.0012125
0.0012126
0.00121235
0.00121254
0.0012126
0.00121208
0.00121205
0.00121254
0.00121263
0.00121253
0.00121249
0.00121239
0.00121237
0.00121227
0.0012127
0.00121294
0.00121267
0.00121268
0.00121244
0.00121263
0.00121287
0.0012128
0.00121287
0.00121271
0.00121206
0.00121212
0.00121239
0.00121207
0.00121205
0.00121204
0.00121207
0.00121178
0.00121211
0.00121238
0.00121167
0.00118599
0.00120596
0.00121157
0.00121227
0.001212
0.0012121
0.00121213
0.00121204
0.00121207
0.00121197
0.00121181
0.00121157
0.00121095
0.00121099
0.00121125
0.00121117
0.00121108
0.00121052
0.00121031
0.00121085
0.00121125
0.00121111
0.00121103
0.001211
0.00121102
0.00121066
0.00121052
0.00121078
0.0012109
0.0012106
0.001211
0.00121125
0.00121084
0.00121134
0.00121167
0.00121137
0.00121188
0.00121216
0.00121194
0.0012121
0.0012122
0.00121234
0.00121239
0.00121253
0.00121239
0.00121237
0.00121249
0.00121261
0.0012125
0.00121198
0.00121213
0.00121247
0.00121249
0.00121246
0.00121257
0.00121268
0.00121213
0.00121242
0.0012126
0.00121233
0.00121224
0.00121269
0.0012131
0.00121285
0.00121293
0.00121292
0.00121294
0.00121251
0.00121263
0.00121269
0.00121227
0.00121229
0.00121227
0.00121234
0.00121236
0.00121213
0.00121249
0.00121286
0.00121274
0.00121271
0.00121266
0.00121275
0.00121266
0.00121224
0.00121236
0.00121246
0.00121198
0.00121214
0.00121217
0.00121167
0.00118601
0.00120606
0.0012116
0.0012127
0.00121259
0.00121258
0.00121255
0.00121239
0.00121218
0.00121204
0.00121201
0.00121172
0.00121156
0.00121153
0.00121152
0.00121134
0.00121116
0.00121068
0.00121098
0.00121119
0.0012107
0.00121063
0.00121055
0.00121053
0.00121048
0.00121051
0.00121013
0.00121043
0.00121072
0.00121077
0.00121083
0.00121027
0.00121072
0.00121109
0.00121063
0.00121106
0.00121161
0.00121141
0.00121172
0.00121207
0.0012121
0.0012121
0.00121212
0.0012121
0.00121213
0.00121205
0.0012117
0.00121213
0.00121249
0.00121228
0.00121234
0.00121224
0.00121225
0.00121219
0.00121257
0.00121271
0.00121239
0.00121259
0.00121267
0.00121257
0.00121231
0.00121248
0.00121311
0.00121299
0.00121298
0.00121297
0.00121293
0.00121296
0.0012128
0.00121232
0.0012124
0.00121263
0.00121264
0.0012126
0.0012127
0.00121279
0.00121273
0.00121272
0.00121239
0.00121237
0.0012122
0.00121244
0.00121252
0.00121228
0.00121226
0.00121209
0.00121221
0.00121225
0.00121211
0.00121174
0.00118602
0.00120611
0.00121167
0.00121262
0.00121251
0.00121248
0.00121228
0.00121225
0.00121226
0.00121202
0.00121196
0.00121167
0.00121138
0.00121133
0.00121131
0.00121117
0.00121107
0.00121049
0.00121064
0.00121126
0.00121095
0.0012111
0.0012111
0.00121084
0.00121082
0.00121079
0.00121037
0.00121061
0.00121084
0.00121029
0.00121063
0.00121124
0.00121113
0.00121138
0.00121171
0.00121171
0.00121174
0.00121181
0.00121166
0.00121168
0.00121168
0.00121195
0.00121217
0.00121212
0.00121181
0.00121191
0.00121228
0.00121235
0.00121234
0.00121249
0.00121262
0.00121203
0.00121235
0.00121275
0.00121243
0.00121262
0.00121289
0.00121281
0.00121272
0.00121261
0.00121226
0.00121262
0.00121285
0.00121229
0.00121257
0.0012127
0.0012122
0.00121243
0.00121278
0.0012124
0.0012126
0.00121284
0.0012128
0.00121289
0.00121266
0.00121268
0.00121275
0.00121259
0.00121264
0.00121252
0.00121213
0.00121245
0.00121262
0.00121244
0.00121251
0.00121251
0.00121242
0.00121249
0.00121251
0.00121179
0.00118603
0.00120615
0.00121112
0.00121153
0.00121136
0.00121098
0.00121136
0.00121163
0.00121126
0.00121119
0.00121089
0.00121131
0.00121173
0.00121133
0.00121143
0.00121142
0.00121122
0.00121121
0.0012109
0.0012107
0.0012106
0.00121016
0.00121033
0.00121047
0.00120982
0.00121014
0.00121063
0.00121044
0.00121052
0.00121049
0.00121087
0.00121125
0.00121115
0.00121129
0.00121136
0.00121089
0.00121122
0.00121154
0.00121104
0.00121155
0.00121199
0.00121156
0.00121206
0.00121244
0.00121204
0.00121251
0.00121281
0.00121259
0.00121266
0.00121269
0.00121236
0.00121252
0.00121263
0.00121264
0.00121265
0.00121197
0.00121223
0.0012126
0.00121257
0.00121257
0.00121194
0.0012122
0.00121258
0.00121255
0.00121254
0.00121217
0.00121202
0.00121242
0.00121313
0.00121298
0.00121298
0.00121298
0.00121297
0.00121283
0.00121273
0.00121242
0.00121265
0.00121275
0.00121236
0.00121252
0.00121269
0.00121267
0.00121263
0.00121254
0.00121232
0.00121225
0.00121221
0.00121214
0.00121213
0.00121169
0.001186
0.00120634
0.0012111
0.00121129
0.00121133
0.00121128
0.00121139
0.00121138
0.00121104
0.00121114
0.00121215
0.0012126
0.00121261
0.00121255
0.00121248
0.00121226
0.00121204
0.00121196
0.00121175
0.00121138
0.00121133
0.00121132
0.00121121
0.00121121
0.00121104
0.00121074
0.00121034
0.00121064
0.00121087
0.00121086
0.00121074
0.00121103
0.0012113
0.00121092
0.00121144
0.0012118
0.00121152
0.00121195
0.00121228
0.0012124
0.00121262
0.00121248
0.00121262
0.00121278
0.00121268
0.00121278
0.00121271
0.00121265
0.00121271
0.00121259
0.00121257
0.00121263
0.00121266
0.00121218
0.00121241
0.0012127
0.00121263
0.00121262
0.00121198
0.00121223
0.0012126
0.00121222
0.00121243
0.00121248
0.00121234
0.00121197
0.0012122
0.00121257
0.00121221
0.00121231
0.00121235
0.00121201
0.00121223
0.00121257
0.00121242
0.00121239
0.00121202
0.00121247
0.00121275
0.00121252
0.0012125
0.00121254
0.00121236
0.00121244
0.00121259
0.00121236
0.00121227
0.00121241
0.00121246
0.00121177
0.00118604
0.00120615
0.00121171
0.00121293
0.00121309
0.00121307
0.00121302
0.00121296
0.00121291
0.00121284
0.00121277
0.00121269
0.00121262
0.00121253
0.00121245
0.00121223
0.00121201
0.00121193
0.00121171
0.00121134
0.00121127
0.00121126
0.00121114
0.00121113
0.00121101
0.00121083
0.00121032
0.00121048
0.00121073
0.00121039
0.00121085
0.00121116
0.00121078
0.00121132
0.00121168
0.00121141
0.00121181
0.00121254
0.00121257
0.00121267
0.00121294
0.0012129
0.0012131
0.00121322
0.0012132
0.00121324
0.00121318
0.00121301
0.00121295
0.00121292
0.00121301
0.00121282
0.00121275
0.00121269
0.00121276
0.00121256
0.00121245
0.00121247
0.00121223
0.0012125
0.00121307
0.00121287
0.00121285
0.00121285
0.00121284
0.00121245
0.00121265
0.00121271
0.0012123
0.00121231
0.0012123
0.00121231
0.00121194
0.00121217
0.00121253
0.00121249
0.00121247
0.00121183
0.00121207
0.00121275
0.00121269
0.00121255
0.00121236
0.0012122
0.00121174
0.0012119
0.0012123
0.00121234
0.00121234
0.00121173
0.00118604
0.00120628
0.00121125
0.00121182
0.0012117
0.00121137
0.00121122
0.00121102
0.00121117
0.00121216
0.00121265
0.00121267
0.0012126
0.00121252
0.00121229
0.00121206
0.00121198
0.00121175
0.00121136
0.00121125
0.00121136
0.00121119
0.00121101
0.00121098
0.00121089
0.00121073
0.00121025
0.00121041
0.00121067
0.00121035
0.00121082
0.00121113
0.00121076
0.00121131
0.00121168
0.00121142
0.00121183
0.00121257
0.00121262
0.00121255
0.00121267
0.00121283
0.00121298
0.00121286
0.00121282
0.00121271
0.00121264
0.00121228
0.00121251
0.00121263
0.00121214
0.00121238
0.00121247
0.00121198
0.00121226
0.00121267
0.00121264
0.00121263
0.00121199
0.00121225
0.00121263
0.0012126
0.00121258
0.00121195
0.00121218
0.00121286
0.0012128
0.00121265
0.00121246
0.00121229
0.00121196
0.00121188
0.00121259
0.00121293
0.00121281
0.00121279
0.0012126
0.00121245
0.00121256
0.00121285
0.00121282
0.00121292
0.00121269
0.00121267
0.00121277
0.0012126
0.00121202
0.00121216
0.00121238
0.00121166
0.00118599
0.00120641
0.00121106
0.00121104
0.00121143
0.00121166
0.00121098
0.00121124
0.00121164
0.00121155
0.00121146
0.00121075
0.00121093
0.00121123
0.00121112
0.001211
0.00121027
0.00121045
0.00121075
0.00121054
0.00121048
0.00121033
0.00120999
0.00121007
0.00121037
0.00121031
0.00121027
0.00121045
0.00121063
0.00121014
0.00121066
0.00121108
0.00121076
0.00121088
0.00121121
0.00121142
0.00121147
0.00121132
0.00121164
0.00121185
0.00121138
0.00121183
0.00121221
0.00121171
0.0012121
0.00121235
0.00121183
0.00121219
0.00121264
0.0012123
0.00121234
0.00121233
0.00121236
0.001212
0.0012123
0.00121252
0.0012119
0.00121219
0.00121256
0.00121229
0.00121226
0.00121189
0.00121219
0.00121262
0.00121214
0.00121215
0.00121245
0.00121248
0.00121238
0.00121237
0.00121234
0.00121193
0.00121213
0.00121235
0.00121173
0.00121201
0.0012124
0.00121224
0.00121221
0.00121174
0.00121202
0.00121237
0.0012121
0.00121207
0.00121171
0.00121179
0.00121252
0.00121263
0.00121244
0.00121187
0.00118601
0.0012063
0.00121147
0.00121198
0.00121179
0.00121142
0.00121112
0.00121155
0.00121235
0.00121226
0.00121223
0.00121196
0.00121186
0.00121181
0.00121156
0.00121149
0.00121133
0.00121111
0.00121082
0.00121017
0.00121018
0.00121044
0.00121035
0.00121029
0.00120963
0.0012099
0.00121031
0.00121009
0.00121019
0.00121023
0.00121068
0.0012111
0.00121119
0.00121145
0.00121145
0.00121097
0.00121135
0.00121169
0.00121123
0.00121177
0.00121222
0.00121181
0.00121232
0.00121269
0.00121229
0.00121267
0.00121297
0.00121286
0.00121288
0.00121245
0.00121267
0.00121277
0.00121229
0.00121251
0.00121283
0.00121268
0.00121219
0.00121231
0.0012126
0.00121231
0.00121228
0.00121191
0.00121225
0.00121255
0.00121224
0.00121223
0.00121198
0.00121239
0.00121314
0.00121298
0.00121299
0.00121297
0.00121299
0.00121288
0.00121262
0.0012128
0.00121292
0.00121286
0.00121276
0.00121279
0.00121286
0.00121273
0.0012127
0.00121218
0.0012124
0.00121258
0.00121225
0.00121235
0.00121219
0.00121176
0.00118601
0.00120633
0.00121138
0.00121184
0.00121192
0.00121188
0.00121168
0.00121121
0.00121122
0.00121214
0.00121262
0.00121263
0.00121255
0.00121244
0.00121235
0.0012121
0.00121185
0.00121174
0.00121149
0.00121127
0.001211
0.00121078
0.00121066
0.0012105
0.0012103
0.00120986
0.00121009
0.00121035
0.00120981
0.0012102
0.00121047
0.00121003
0.00121057
0.00121102
0.0012106
0.00121119
0.0012117
0.00121134
0.00121191
0.00121234
0.001212
0.00121252
0.00121286
0.00121267
0.00121278
0.00121284
0.00121251
0.00121268
0.00121278
0.00121268
0.00121267
0.00121204
0.00121204
0.00121261
0.00121267
0.00121258
0.00121249
0.00121248
0.00121226
0.00121239
0.00121265
0.00121251
0.00121249
0.0012121
0.00121204
0.00121238
0.00121219
0.00121257
0.00121274
0.0012125
0.00121245
0.00121196
0.00121225
0.00121248
0.00121215
0.00121215
0.0012119
0.00121241
0.00121274
0.00121239
0.00121239
0.00121237
0.00121248
0.00121246
0.00121253
0.00121236
0.00121226
0.00121236
0.00121237
0.00121178
0.00118604
0.00120616
0.00121173
0.00121295
0.00121312
0.00121309
0.00121304
0.00121297
0.00121289
0.00121281
0.00121272
0.00121263
0.00121252
0.00121242
0.00121232
0.00121206
0.0012118
0.0012117
0.00121146
0.00121105
0.00121091
0.00121086
0.00121064
0.00121062
0.0012105
0.00121037
0.00120995
0.00121015
0.00121042
0.00121012
0.00121064
0.00121099
0.00121069
0.00121112
0.00121195
0.00121216
0.0012123
0.00121248
0.00121252
0.00121281
0.00121313
0.00121322
0.00121334
0.00121331
0.00121318
0.00121311
0.00121309
0.00121318
0.00121315
0.00121305
0.00121294
0.00121281
0.00121254
0.00121292
0.0012131
0.00121284
0.00121285
0.00121268
0.00121303
0.00121317
0.00121283
0.00121285
0.00121273
0.00121294
0.001213
0.00121253
0.00121271
0.00121278
0.00121234
0.00121235
0.00121233
0.00121234
0.00121196
0.00121219
0.00121255
0.0012125
0.00121248
0.00121185
0.0012121
0.00121248
0.00121245
0.00121244
0.00121181
0.00121205
0.00121273
0.00121268
0.00121254
0.00121248
0.0012123
0.00121167
0.00118599
0.0012064
0.00121119
0.0012115
0.00121138
0.00121117
0.00121162
0.00121184
0.00121154
0.00121149
0.00121129
0.00121081
0.00121089
0.00121114
0.00121099
0.00121085
0.00121023
0.00120998
0.00121044
0.00121089
0.00121045
0.00121047
0.00121058
0.00121048
0.00121032
0.00121022
0.00120988
0.00120995
0.00121019
0.00121004
0.00121059
0.00121096
0.00121067
0.00121112
0.00121197
0.0012122
0.00121237
0.00121259
0.00121268
0.00121272
0.00121283
0.0012129
0.00121293
0.00121296
0.00121299
0.00121292
0.00121285
0.00121248
0.00121276
0.00121322
0.00121298
0.00121301
0.00121302
0.00121295
0.00121241
0.00121244
0.00121269
0.00121273
0.00121272
0.00121234
0.00121218
0.00121266
0.00121295
0.0012126
0.00121264
0.00121258
0.00121271
0.00121253
0.00121245
0.00121245
0.00121221
0.00121253
0.00121303
0.00121269
0.00121284
0.00121311
0.00121298
0.00121289
0.00121298
0.00121282
0.00121221
0.00121221
0.00121253
0.0012124
0.0012126
0.00121284
0.00121275
0.00121276
0.00121257
0.00121184
0.00118605
0.00120616
0.00121173
0.00121295
0.00121312
0.00121309
0.00121303
0.00121296
0.00121288
0.00121279
0.00121269
0.00121259
0.00121248
0.00121236
0.00121225
0.00121197
0.0012117
0.00121159
0.00121132
0.00121106
0.00121077
0.00121053
0.00121032
0.00121005
0.0012099
0.00120953
0.00120986
0.00121012
0.00121003
0.00121025
0.00121035
0.00121018
0.0012106
0.00121103
0.00121065
0.00121128
0.00121182
0.00121149
0.00121209
0.00121253
0.0012122
0.00121273
0.00121306
0.00121275
0.00121281
0.00121286
0.00121305
0.00121331
0.00121325
0.00121308
0.00121275
0.00121259
0.00121268
0.00121261
0.00121259
0.0012124
0.00121262
0.00121345
0.00121345
0.00121348
0.00121344
0.00121332
0.00121327
0.00121308
0.00121294
0.00121252
0.00121269
0.00121277
0.00121235
0.00121236
0.00121234
0.00121235
0.00121197
0.00121219
0.00121255
0.00121251
0.00121249
0.00121185
0.00121211
0.00121248
0.00121246
0.00121244
0.00121181
0.00121208
0.00121246
0.0012123
0.0012123
0.00121221
0.00121215
0.00121163
0.00118608
0.00120598
0.0012117
0.00121244
0.0012122
0.0012121
0.00121216
0.00121215
0.00121191
0.00121184
0.00121156
0.00121088
0.00121086
0.00121107
0.00121092
0.00121076
0.00120999
0.00121012
0.00121039
0.00121018
0.00120996
0.00120986
0.00120983
0.00120966
0.00120941
0.00120955
0.00120981
0.00120926
0.00120969
0.00121036
0.00121055
0.0012107
0.00121106
0.00121139
0.00121128
0.00121159
0.00121166
0.00121181
0.00121201
0.00121183
0.00121223
0.00121255
0.00121204
0.00121247
0.00121301
0.00121257
0.00121287
0.00121309
0.00121306
0.00121306
0.00121286
0.00121256
0.00121273
0.00121376
0.00121407
0.0012141
0.0012141
0.00121393
0.0012138
0.0012138
0.00121359
0.00121346
0.00121338
0.00121339
0.00121335
0.00121318
0.00121305
0.00121275
0.00121287
0.00121291
0.00121238
0.00121261
0.00121269
0.00121253
0.0012125
0.00121227
0.00121224
0.0012121
0.001212
0.00121247
0.0012127
0.00121257
0.00121256
0.00121228
0.00121249
0.00121256
0.00121246
0.00121253
0.00121235
0.00121176
0.00118608
0.00120599
0.00121162
0.00121291
0.0012131
0.00121308
0.00121302
0.00121295
0.00121286
0.00121276
0.00121266
0.00121255
0.00121243
0.0012123
0.00121217
0.00121189
0.00121161
0.00121132
0.00121104
0.00121089
0.00121047
0.00121035
0.00121029
0.00120991
0.00120987
0.00120984
0.00120986
0.00120939
0.00120973
0.00121011
0.0012102
0.00121044
0.00121018
0.0012107
0.00121108
0.00121129
0.00121155
0.00121128
0.00121185
0.00121232
0.00121187
0.00121239
0.00121283
0.00121253
0.00121256
0.00121238
0.0012128
0.00121304
0.00121306
0.00121306
0.00121264
0.00121243
0.00121274
0.00121386
0.00121412
0.00121399
0.00121385
0.00121383
0.00121367
0.00121353
0.00121345
0.00121346
0.0012134
0.00121323
0.0012131
0.0012129
0.00121277
0.00121249
0.00121265
0.00121268
0.00121243
0.00121243
0.00121217
0.00121209
0.00121183
0.00121213
0.00121253
0.00121249
0.00121248
0.0012121
0.00121195
0.00121245
0.00121274
0.00121261
0.00121256
0.00121256
0.00121259
0.00121252
0.0012125
0.00121183
0.00118605
0.00120616
0.00121173
0.00121295
0.00121311
0.00121308
0.00121302
0.00121294
0.00121285
0.00121276
0.00121265
0.00121253
0.00121241
0.00121227
0.00121213
0.001212
0.0012117
0.00121141
0.00121111
0.00121084
0.00121068
0.0012106
0.00121033
0.00121014
0.00120993
0.00120935
0.00120958
0.0012099
0.0012096
0.00120996
0.00121024
0.00121002
0.00121058
0.00121105
0.00121071
0.00121138
0.00121195
0.00121165
0.00121227
0.00121272
0.0012124
0.00121291
0.00121335
0.0012133
0.00121334
0.00121333
0.00121342
0.00121341
0.00121342
0.00121313
0.00121274
0.00121303
0.001214
0.00121419
0.00121405
0.00121393
0.0012139
0.00121374
0.00121359
0.00121351
0.00121353
0.00121329
0.00121317
0.00121309
0.00121296
0.00121294
0.00121293
0.00121278
0.00121273
0.00121273
0.00121254
0.00121239
0.00121198
0.00121219
0.00121256
0.00121251
0.0012125
0.00121186
0.00121211
0.00121249
0.00121243
0.00121242
0.00121223
0.00121218
0.00121172
0.0012119
0.00121232
0.00121234
0.00121234
0.00121173
0.00118608
0.00120599
0.00121162
0.00121291
0.0012131
0.00121308
0.00121301
0.00121293
0.00121284
0.00121274
0.00121264
0.00121251
0.00121239
0.00121226
0.00121197
0.00121168
0.00121137
0.00121108
0.0012109
0.00121046
0.00121033
0.00121023
0.00120996
0.00120992
0.00120971
0.00120914
0.00120937
0.00120968
0.00120921
0.0012098
0.00121038
0.00121013
0.00121061
0.0012112
0.00121148
0.00121177
0.00121151
0.00121167
0.0012121
0.00121235
0.00121233
0.00121265
0.00121286
0.00121232
0.00121268
0.0012129
0.00121236
0.00121273
0.00121302
0.00121271
0.00121271
0.00121245
0.00121279
0.0012139
0.00121416
0.00121419
0.00121402
0.00121392
0.00121391
0.0012137
0.00121355
0.00121347
0.00121349
0.00121327
0.00121315
0.00121306
0.00121308
0.00121305
0.00121289
0.00121275
0.00121271
0.00121255
0.00121238
0.00121239
0.00121224
0.00121204
0.00121249
0.00121267
0.00121251
0.00121248
0.00121203
0.00121229
0.00121242
0.0012123
0.00121234
0.00121226
0.00121198
0.00121217
0.00121239
0.00121167
0.00118608
0.00120599
0.00121162
0.00121294
0.00121283
0.00121265
0.00121258
0.00121239
0.00121213
0.00121192
0.00121154
0.00121128
0.00121131
0.00121121
0.00121113
0.0012108
0.00121
0.00120999
0.00121037
0.00120988
0.00120996
0.00121007
0.00120991
0.0012098
0.0012091
0.00120927
0.00120952
0.00120901
0.00120949
0.00120988
0.00120955
0.0012102
0.00121076
0.00121046
0.00121116
0.00121178
0.00121184
0.00121224
0.00121234
0.00121213
0.00121251
0.0012128
0.00121254
0.00121263
0.00121251
0.00121255
0.00121262
0.00121261
0.00121303
0.00121408
0.0012143
0.00121432
0.0012143
0.00121428
0.00121425
0.00121421
0.00121418
0.00121415
0.00121412
0.00121409
0.00121406
0.00121403
0.00121402
0.00121384
0.00121371
0.00121369
0.00121355
0.00121341
0.00121331
0.00121334
0.00121313
0.00121301
0.00121301
0.001213
0.00121295
0.00121251
0.00121262
0.00121269
0.00121226
0.00121227
0.00121226
0.00121227
0.00121216
0.00121203
0.00121221
0.0012125
0.0012124
0.00121231
0.00121214
0.00121171
0.00118603
0.00120619
0.00121131
0.00121181
0.00121156
0.00121154
0.00121122
0.00121132
0.00121138
0.00121065
0.00121086
0.00121122
0.00121056
0.00121063
0.00121057
0.00121003
0.00120977
0.00121011
0.0012107
0.00121036
0.00121032
0.00121022
0.00120995
0.00120991
0.00120969
0.00120914
0.00120941
0.00120973
0.00120929
0.00120985
0.00121046
0.00121026
0.00121095
0.00121154
0.00121146
0.00121207
0.00121247
0.00121264
0.00121286
0.00121296
0.00121318
0.00121334
0.00121339
0.00121336
0.00121324
0.00121272
0.00121284
0.00121315
0.00121292
0.00121287
0.00121274
0.0012125
0.00121272
0.00121304
0.00121266
0.00121267
0.00121261
0.00121263
0.00121221
0.00121245
0.00121265
0.00121201
0.00121231
0.00121254
0.0012119
0.00121208
0.00121271
0.00121248
0.00121271
0.0012128
0.00121245
0.00121239
0.00121235
0.00121234
0.00121197
0.00121219
0.00121255
0.0012125
0.00121248
0.00121185
0.0012121
0.00121248
0.00121223
0.00121218
0.00121207
0.00121185
0.0012121
0.00121245
0.00121235
0.00121205
0.00118605
0.00120616
0.00121173
0.00121295
0.00121311
0.00121307
0.001213
0.00121291
0.00121282
0.00121271
0.00121261
0.00121233
0.00121206
0.00121176
0.00121147
0.00121129
0.00121116
0.00121081
0.00121048
0.0012102
0.00120985
0.00120953
0.00120894
0.00120907
0.00120939
0.00120913
0.00120917
0.001209
0.00120957
0.00120998
0.00121018
0.00121025
0.00121067
0.00121111
0.0012114
0.00121175
0.00121187
0.00121216
0.00121243
0.00121254
0.0012127
0.00121276
0.00121236
0.00121279
0.00121332
0.0012132
0.00121319
0.0012131
0.00121296
0.00121299
0.0012138
0.00121429
0.00121434
0.00121431
0.00121428
0.00121425
0.00121421
0.00121418
0.00121414
0.00121411
0.00121408
0.00121405
0.00121402
0.001214
0.00121397
0.00121396
0.00121379
0.00121369
0.00121369
0.00121349
0.00121336
0.00121327
0.00121329
0.00121308
0.00121296
0.00121295
0.00121297
0.00121281
0.0012124
0.00121251
0.00121271
0.00121226
0.00121254
0.00121265
0.00121222
0.00121218
0.00121214
0.0012122
0.00121219
0.00121179
0.00118605
0.00120616
0.00121173
0.00121295
0.0012131
0.00121307
0.001213
0.00121292
0.00121281
0.00121271
0.00121259
0.00121247
0.00121232
0.00121217
0.00121201
0.0012117
0.00121139
0.00121106
0.00121076
0.00121057
0.00121045
0.00121013
0.00120989
0.00120971
0.00120952
0.00120909
0.00120934
0.00120969
0.00120946
0.0012099
0.00121025
0.00121028
0.00121101
0.00121157
0.00121149
0.00121208
0.00121273
0.00121294
0.00121318
0.00121338
0.00121358
0.00121375
0.00121379
0.00121373
0.00121353
0.00121344
0.00121351
0.00121351
0.00121296
0.00121301
0.00121393
0.00121432
0.00121435
0.00121433
0.0012143
0.00121426
0.00121422
0.00121419
0.00121415
0.00121412
0.00121409
0.00121406
0.00121403
0.001214
0.00121398
0.00121395
0.00121393
0.00121392
0.00121381
0.00121365
0.00121358
0.0012136
0.0012134
0.00121327
0.00121323
0.00121327
0.0012131
0.00121298
0.00121296
0.00121282
0.00121281
0.0012125
0.00121262
0.0012127
0.00121225
0.00121245
0.00121251
0.00121244
0.00121242
0.00121183
0.00118602
0.00120629
0.00121134
0.00121177
0.00121166
0.00121184
0.00121177
0.00121109
0.00121122
0.00121125
0.00121051
0.00121044
0.0012113
0.00121197
0.00121197
0.00121183
0.00121151
0.0012112
0.00121086
0.00121056
0.00121037
0.00121009
0.00120987
0.00120937
0.00120944
0.00120956
0.00120919
0.0012093
0.00120942
0.00120971
0.00120971
0.00121029
0.00121078
0.0012105
0.00121123
0.00121185
0.00121161
0.00121213
0.00121302
0.00121329
0.00121342
0.00121349
0.00121365
0.00121378
0.00121373
0.00121337
0.00121329
0.0012133
0.00121325
0.00121329
0.0012131
0.00121299
0.0012129
0.00121268
0.00121296
0.00121399
0.00121391
0.00121364
0.0012136
0.00121358
0.00121361
0.00121336
0.00121322
0.00121317
0.00121301
0.00121286
0.0012128
0.00121262
0.00121245
0.00121231
0.00121215
0.00121207
0.0012125
0.00121316
0.001213
0.00121298
0.00121297
0.00121293
0.00121291
0.00121247
0.00121258
0.00121263
0.00121223
0.00121224
0.00121224
0.00121225
0.00121187
0.00121216
0.00121239
0.00121167
0.00118605
0.00120616
0.00121173
0.00121294
0.0012131
0.00121307
0.001213
0.00121292
0.00121266
0.00121243
0.00121216
0.0012119
0.00121174
0.00121146
0.00121102
0.00121068
0.00121048
0.00121031
0.0012101
0.00120976
0.00120911
0.00120922
0.00120937
0.00120923
0.0012091
0.00120919
0.00120936
0.0012088
0.00120929
0.00120979
0.00121
0.00121004
0.0012105
0.00121096
0.00121101
0.00121132
0.00121117
0.00121184
0.00121243
0.00121205
0.00121253
0.00121284
0.00121237
0.00121277
0.00121303
0.00121243
0.00121277
0.00121325
0.00121278
0.00121284
0.00121303
0.00121289
0.00121285
0.00121252
0.00121267
0.001213
0.00121262
0.00121255
0.00121278
0.00121278
0.00121263
0.00121227
0.00121241
0.00121259
0.00121195
0.00121228
0.0012126
0.00121193
0.00121222
0.00121243
0.00121195
0.00121185
0.0012124
0.00121257
0.00121229
0.00121233
0.00121216
0.00121207
0.00121174
0.00121202
0.00121239
0.0012122
0.00121217
0.00121174
0.00121206
0.00121227
0.00121165
0.00121199
0.00121226
0.00121158
0.00118605
0.00120616
0.00121173
0.00121294
0.0012131
0.00121307
0.001213
0.00121291
0.00121281
0.0012127
0.00121258
0.00121245
0.00121232
0.00121202
0.00121172
0.0012114
0.00121109
0.00121088
0.00121041
0.00121015
0.00121001
0.00120983
0.00120974
0.00120947
0.00120885
0.00120906
0.00120933
0.00120885
0.00120936
0.0012098
0.00120945
0.00121007
0.00121062
0.00121029
0.00121095
0.00121176
0.00121205
0.00121233
0.00121192
0.00121241
0.00121282
0.00121263
0.00121278
0.00121261
0.00121304
0.00121351
0.00121325
0.00121337
0.00121341
0.00121327
0.00121273
0.00121288
0.00121296
0.00121229
0.00121257
0.00121302
0.00121262
0.00121269
0.0012127
0.0012123
0.0012125
0.00121281
0.00121276
0.00121272
0.00121207
0.00121236
0.00121262
0.00121194
0.00121222
0.00121246
0.00121183
0.00121217
0.00121249
0.00121238
0.00121236
0.00121184
0.00121212
0.00121234
0.00121184
0.0012121
0.00121243
0.00121208
0.0012122
0.00121225
0.00121215
0.00121181
0.00121213
0.0012124
0.00121232
0.00121211
0.00118605
0.00120616
0.00121173
0.00121295
0.0012131
0.00121307
0.001213
0.00121291
0.00121281
0.0012127
0.00121258
0.00121245
0.00121231
0.00121216
0.00121199
0.00121183
0.00121151
0.0012112
0.00121086
0.00121056
0.00121039
0.00121028
0.00121001
0.00120964
0.00120952
0.00120951
0.00120925
0.0012095
0.00120994
0.00121003
0.00121033
0.00121043
0.00121108
0.00121159
0.00121151
0.00121213
0.00121254
0.00121259
0.00121289
0.00121307
0.00121331
0.00121338
0.00121336
0.0012133
0.00121316
0.00121328
0.00121333
0.00121296
0.00121278
0.00121326
0.00121421
0.00121437
0.00121437
0.00121434
0.0012143
0.00121427
0.00121423
0.00121419
0.00121416
0.00121413
0.00121409
0.00121406
0.00121403
0.00121401
0.00121398
0.00121396
0.00121385
0.00121369
0.00121364
0.00121365
0.00121346
0.00121333
0.00121325
0.00121328
0.00121307
0.00121296
0.00121296
0.00121296
0.00121291
0.00121248
0.00121258
0.00121264
0.00121248
0.00121245
0.00121223
0.00121219
0.0012118
0.00121212
0.00121239
0.00121167
0.00118605
0.00120616
0.00121173
0.00121295
0.00121311
0.00121307
0.001213
0.00121292
0.00121282
0.00121271
0.00121259
0.00121247
0.00121232
0.00121217
0.00121201
0.0012117
0.00121139
0.00121106
0.00121075
0.00121056
0.00121011
0.00120996
0.00120991
0.00120974
0.00120968
0.00120914
0.00120938
0.00120967
0.00120932
0.00120988
0.00121045
0.00121027
0.00121099
0.00121157
0.00121149
0.00121208
0.00121273
0.00121294
0.00121318
0.00121338
0.00121359
0.00121375
0.00121379
0.00121373
0.00121354
0.00121344
0.00121351
0.00121351
0.00121296
0.00121302
0.00121393
0.00121432
0.00121436
0.00121433
0.0012143
0.00121426
0.00121422
0.00121419
0.00121415
0.00121412
0.00121409
0.00121406
0.00121404
0.00121391
0.00121375
0.00121366
0.00121366
0.00121351
0.0012134
0.00121337
0.00121326
0.00121308
0.001213
0.00121261
0.00121274
0.00121287
0.0012125
0.0012127
0.00121294
0.00121284
0.00121285
0.0012127
0.00121249
0.0012125
0.00121233
0.00121224
0.001212
0.00121221
0.00121228
0.00121166
0.00118605
0.00120616
0.00121173
0.00121295
0.00121311
0.00121307
0.001213
0.00121292
0.00121282
0.00121271
0.00121261
0.00121233
0.00121207
0.00121177
0.00121147
0.00121128
0.00121099
0.00121051
0.00121016
0.00120998
0.00120978
0.00120952
0.00120894
0.00120907
0.0012094
0.0012094
0.0012094
0.00120962
0.00120989
0.00120991
0.00121027
0.00121051
0.0012109
0.00121127
0.00121147
0.0012112
0.00121176
0.00121221
0.00121242
0.0012125
0.00121262
0.0012128
0.00121236
0.00121279
0.00121332
0.00121321
0.00121331
0.00121326
0.00121303
0.00121304
0.00121383
0.00121429
0.00121434
0.00121431
0.00121428
0.00121425
0.00121421
0.00121418
0.00121414
0.00121411
0.00121408
0.00121406
0.00121394
0.00121377
0.00121373
0.00121373
0.00121365
0.00121354
0.00121339
0.00121329
0.0012131
0.00121307
0.00121307
0.00121284
0.00121305
0.00121316
0.00121297
0.00121296
0.00121282
0.00121283
0.00121273
0.00121235
0.00121252
0.0012126
0.00121211
0.00121239
0.0012125
0.00121231
0.00121227
0.00121171
0.00118604
0.00120619
0.00121131
0.00121182
0.00121158
0.00121156
0.00121124
0.00121122
0.00121145
0.00121143
0.00121131
0.00121055
0.00121068
0.00121094
0.00121058
0.00121037
0.00120973
0.00120948
0.00121004
0.00121043
0.00120995
0.00120999
0.00120991
0.00120961
0.00120962
0.00120963
0.00120936
0.00120961
0.00121001
0.00120994
0.0012102
0.00121039
0.00121104
0.00121156
0.00121146
0.00121203
0.00121269
0.00121293
0.00121318
0.00121328
0.00121332
0.00121333
0.00121343
0.00121346
0.00121341
0.00121327
0.00121273
0.00121284
0.00121315
0.00121279
0.00121283
0.00121278
0.00121279
0.00121238
0.00121261
0.00121281
0.00121216
0.00121238
0.00121289
0.00121266
0.00121261
0.00121216
0.00121237
0.00121274
0.00121269
0.00121266
0.00121227
0.00121212
0.00121249
0.00121332
0.00121327
0.00121331
0.0012133
0.00121319
0.00121306