/*--------------------------------*- C++ -*----------------------------------*\
  =========                 |
  \\      /  F ield         | OpenFOAM: The Open Source CFD Toolbox
   \\    /   O peration     | Website:  https://openfoam.org
    \\  /    A nd           | Version:  11
     \\/     M anipulation  |
\*---------------------------------------------------------------------------*/
FoamFile
{
    format      ascii;
    class       volScalarField;
    location    "0.018";
    object      p;
}
// * * * * * * * * * * * * * * * * * * * * * * * * * * * * * * * * * * * * * //

dimensions      [0 2 -2 0 0 0 0];

internalField   nonuniform List<scalar> 
287084
(
1.81614
1.54655
1.46948
1.40884
1.34532
1.29337
1.24676
1.20403
1.16291
1.12169
1.07988
1.03755
0.995129
0.952264
0.90896
0.865104
0.82098
0.776525
0.731851
0.68744
0.643046
0.599155
0.556078
0.513624
0.472796
0.432957
0.394021
0.361003
0.333438
0.305803
0.278183
0.253478
0.232432
0.214185
0.198955
0.18628
0.17608
0.167876
0.161557
0.157004
0.153761
0.151697
0.150622
0.150337
0.150652
0.151439
0.152555
0.153826
0.155121
0.156191
0.15662
0.156853
0.158223
0.160669
0.160491
0.159751
0.161896
0.161383
0.161723
0.162818
0.163817
0.163379
0.158738
0.157769
0.157465
0.151242
0.148949
0.147503
0.141182
0.135336
0.131945
0.127405
0.119275
0.113502
0.110259
0.107017
0.101596
0.0915379
0.0857352
0.0816497
0.0734669
0.0670149
0.0610775
0.0533877
0.0450349
0.0356428
0.0260967
0.0164265
0.00647896
0.000775056
1.68507
1.50178
1.44515
1.39394
1.33737
1.28913
1.24443
1.20191
1.16059
1.11941
1.07785
1.03597
0.993562
0.950758
0.907234
0.863294
0.819006
0.77428
0.729436
0.684602
0.640043
0.595903
0.552433
0.510148
0.469192
0.429485
0.391715
0.358714
0.327905
0.298692
0.272002
0.248276
0.227578
0.209697
0.194669
0.18221
0.172183
0.164398
0.158267
0.153905
0.150919
0.149096
0.148234
0.148164
0.148679
0.149661
0.150952
0.152422
0.153949
0.155393
0.156682
0.157963
0.15933
0.160194
0.159888
0.15981
0.161552
0.162608
0.161942
0.162071
0.162908
0.162441
0.160318
0.157091
0.155361
0.152829
0.14856
0.14543
0.141539
0.13643
0.131792
0.127226
0.121792
0.116066
0.110979
0.105809
0.099562
0.092339
0.08573
0.0794823
0.0725351
0.0657271
0.0587182
0.0511417
0.0432074
0.0348688
0.0262026
0.0170893
0.00814675
0.00208771
1.65664
1.49077
1.43646
1.38521
1.33066
1.28382
1.24025
1.19853
1.15745
1.11632
1.07501
1.03314
0.990717
0.947595
0.903894
0.85963
0.814934
0.769807
0.724453
0.679155
0.633916
0.58933
0.545399
0.50247
0.46127
0.421626
0.384077
0.349247
0.31788
0.288896
0.262359
0.238858
0.218343
0.200841
0.186095
0.174189
0.164568
0.15707
0.151578
0.14767
0.145172
0.143825
0.143429
0.143776
0.144706
0.146063
0.147719
0.14954
0.151413
0.15325
0.154966
0.156499
0.157825
0.158983
0.159975
0.16094
0.161794
0.162233
0.161957
0.161887
0.161857
0.161228
0.159365
0.156963
0.154655
0.151707
0.148276
0.144781
0.140735
0.136168
0.131562
0.126796
0.121495
0.115952
0.110532
0.104932
0.098853
0.0921815
0.0855758
0.0790583
0.0721739
0.0651181
0.057907
0.0503813
0.0425974
0.0344747
0.0260479
0.0171878
0.00834355
0.00202701
1.616
1.46294
1.41575
1.36936
1.31954
1.27563
1.23392
1.19319
1.15271
1.11209
1.07093
1.0291
0.986432
0.943129
0.898959
0.854217
0.809032
0.763146
0.717104
0.670962
0.624821
0.579516
0.534778
0.4912
0.449361
0.409065
0.371045
0.335976
0.303813
0.274366
0.248046
0.224719
0.204579
0.187475
0.173343
0.161979
0.153066
0.146435
0.141572
0.138357
0.136539
0.135904
0.13618
0.137191
0.138749
0.140695
0.142887
0.145221
0.14758
0.149884
0.152066
0.154077
0.155888
0.157494
0.15878
0.159798
0.160648
0.1612
0.161301
0.161148
0.160747
0.159862
0.158302
0.156238
0.153878
0.151058
0.14779
0.144217
0.140237
0.13585
0.131265
0.126425
0.121218
0.115777
0.110201
0.104398
0.098282
0.0918482
0.0852859
0.0786262
0.0717532
0.0646938
0.0574655
0.050029
0.0423405
0.0343553
0.0261342
0.0174102
0.00870297
0.00232994
1.59206
1.44567
1.40052
1.35622
1.30902
1.26717
1.22686
1.18711
1.14729
1.10689
1.06587
1.02388
0.980994
0.937285
0.892544
0.847158
0.801004
0.754265
0.707313
0.660078
0.613064
0.566436
0.520637
0.476118
0.433219
0.392299
0.353708
0.317976
0.285238
0.25553
0.229222
0.20604
0.18635
0.169896
0.15645
0.145852
0.137762
0.131896
0.12799
0.12577
0.124913
0.125228
0.126459
0.128363
0.130773
0.133543
0.136472
0.139479
0.142463
0.145351
0.148075
0.150598
0.152857
0.154849
0.156518
0.157893
0.158961
0.159654
0.159949
0.159889
0.159469
0.158586
0.157138
0.155237
0.152938
0.150211
0.147062
0.143547
0.13965
0.135393
0.130845
0.126012
0.120875
0.115464
0.109847
0.103999
0.0979037
0.091522
0.0849885
0.0782837
0.0713996
0.0643384
0.0571199
0.0497259
0.0421603
0.0343288
0.0261392
0.0174938
0.00875209
0.00227001
1.57198
1.42952
1.38592
1.34361
1.29853
1.25826
1.21929
1.18031
1.14099
1.10091
1.05988
1.01769
0.974412
0.930073
0.884746
0.838401
0.791347
0.743486
0.695266
0.646661
0.59824
0.550278
0.503258
0.457436
0.413287
0.371333
0.331883
0.295293
0.262067
0.232045
0.205766
0.182882
0.163745
0.147919
0.135242
0.125671
0.118504
0.113729
0.110984
0.109917
0.110287
0.111847
0.11426
0.117303
0.120805
0.124596
0.128474
0.132346
0.136124
0.139704
0.143075
0.146167
0.148966
0.15142
0.153521
0.155265
0.156631
0.157577
0.158097
0.158202
0.15787
0.157085
0.155794
0.154042
0.151855
0.149243
0.146211
0.142783
0.138977
0.134807
0.130327
0.125542
0.120448
0.115083
0.109478
0.10362
0.0975243
0.0912082
0.0846803
0.0779771
0.0711097
0.0640601
0.0568535
0.0494898
0.0419433
0.0342088
0.026154
0.0175344
0.00879216
0.00223458
1.5563
1.41549
1.37325
1.33224
1.28869
1.24968
1.21153
1.17333
1.13427
1.09422
1.05314
1.01056
0.966843
0.921785
0.875538
0.82815
0.779864
0.730597
0.68098
0.630751
0.580909
0.531128
0.482337
0.435027
0.38946
0.346267
0.305667
0.268431
0.234457
0.204257
0.177904
0.155367
0.136798
0.121652
0.109892
0.101259
0.0953153
0.0919175
0.0905374
0.0909285
0.0927514
0.0957262
0.0995573
0.104008
0.108875
0.113884
0.118918
0.123849
0.128581
0.133023
0.137133
0.140907
0.144295
0.147295
0.149884
0.152043
0.153752
0.155011
0.155806
0.156147
0.156003
0.155381
0.154264
0.152673
0.150628
0.148137
0.145233
0.141907
0.138204
0.134139
0.12972
0.125
0.119965
0.114652
0.109073
0.10324
0.0971755
0.0908674
0.0843779
0.0776843
0.0708182
0.0637767
0.0566028
0.0493016
0.0417954
0.0340781
0.0260997
0.0175592
0.00885222
0.00233107
1.54331
1.40336
1.36216
1.32208
1.27949
1.24136
1.20383
1.16592
1.12702
1.087
1.04554
1.00261
0.958214
0.912347
0.865119
0.816497
0.766831
0.71598
0.664594
0.612527
0.560614
0.509108
0.458451
0.409295
0.361978
0.317288
0.275522
0.237136
0.202556
0.172079
0.145695
0.1235
0.105459
0.0912063
0.080558
0.0732248
0.0687834
0.0668933
0.0671279
0.0691734
0.072665
0.077283
0.0827106
0.0887164
0.0950469
0.101493
0.107906
0.114052
0.11989
0.125333
0.130336
0.134868
0.13894
0.142545
0.145666
0.148294
0.150435
0.152058
0.153173
0.153791
0.153882
0.153463
0.152551
0.15114
0.149259
0.146931
0.144143
0.140946
0.13735
0.133375
0.129056
0.1244
0.11943
0.114168
0.108631
0.102839
0.0967984
0.090542
0.0840754
0.077411
0.0705892
0.0636128
0.0564928
0.0492313
0.0418075
0.0341508
0.0261587
0.0176069
0.00879064
0.0021874
1.5324
1.39289
1.3524
1.31288
1.2709
1.23314
1.19615
1.15847
1.11943
1.07926
1.03756
0.993998
0.948929
0.902018
0.853473
0.803548
0.752161
0.6996
0.646158
0.592072
0.538023
0.484289
0.43138
0.380185
0.330948
0.284496
0.241357
0.201919
0.166679
0.135764
0.109521
0.0876824
0.0703281
0.057005
0.0476204
0.0418135
0.0390236
0.0388942
0.0409971
0.0449148
0.0502823
0.056728
0.0639482
0.0716683
0.0796254
0.0876353
0.0954823
0.103037
0.110149
0.11672
0.122735
0.128164
0.132994
0.137259
0.14098
0.144128
0.14672
0.14875
0.150227
0.151158
0.151536
0.151372
0.150675
0.149472
0.147777
0.145599
0.142967
0.139901
0.136425
0.132549
0.128323
0.123753
0.118857
0.113654
0.108168
0.102418
0.0964168
0.0901983
0.0837459
0.0771101
0.0702518
0.0632482
0.0562172
0.0489051
0.0413637
0.0338497
0.0259649
0.0174942
0.00887933
0.00226897
1.52293
1.38361
1.34355
1.30432
1.2626
1.22522
1.18834
1.15067
1.11165
1.07114
1.02887
0.984877
0.938717
0.890774
0.841029
0.789333
0.736224
0.681594
0.625912
0.569606
0.513028
0.456881
0.401598
0.34804
0.296711
0.248367
0.203689
0.163028
0.126976
0.0958353
0.0695128
0.0481331
0.0315619
0.019474
0.0116611
0.00744099
0.0064987
0.00834873
0.0125007
0.0184744
0.0259068
0.0343661
0.0435327
0.0531162
0.0628593
0.0725235
0.0819457
0.0909727
0.0994494
0.107303
0.114423
0.120835
0.126533
0.131532
0.135884
0.139599
0.142698
0.145177
0.147049
0.148319
0.148997
0.149115
0.148669
0.147684
0.146183
0.144188
0.141714
0.138787
0.135431
0.131681
0.127545
0.123059
0.118245
0.113102
0.107668
0.101987
0.096022
0.0898452
0.0834524
0.0768428
0.0700708
0.0631593
0.0560873
0.0488569
0.0415017
0.0338854
0.0258718
0.017375
0.00869559
0.00219353
1.51453
1.37537
1.33547
1.2964
1.25468
1.21735
1.18072
1.14307
1.10382
1.06297
1.0202
0.975273
0.928109
0.878903
0.827493
0.774172
0.719035
0.662163
0.604134
0.545125
0.486073
0.427168
0.369261
0.313236
0.259403
0.209141
0.162667
0.120868
0.084024
0.0525752
0.0263547
0.0055662
-0.0100138
-0.0209617
-0.0272215
-0.0294995
-0.0284024
-0.0243767
-0.0180045
-0.00976137
-0.00012343
0.0105153
0.0217845
0.033357
0.0449834
0.0564354
0.0675108
0.0780687
0.0879835
0.0971653
0.10552
0.113
0.119635
0.125439
0.130481
0.134798
0.138426
0.141379
0.143665
0.145321
0.146331
0.146743
0.146557
0.1458
0.144518
0.142697
0.140397
0.137625
0.134405
0.13076
0.126737
0.122335
0.117596
0.112535
0.107161
0.10153
0.095625
0.0894844
0.0831254
0.0765608
0.0698131
0.0628873
0.0558362
0.0486918
0.0412707
0.0335723
0.0257011
0.0173222
0.00875328
0.00229544
1.50705
1.36788
1.32797
1.28894
1.24759
1.21032
1.1734
1.13562
1.09611
1.05471
1.01119
0.965255
0.917099
0.866408
0.813431
0.75821
0.700794
0.641552
0.580922
0.519281
0.457234
0.395467
0.334692
0.275972
0.219774
0.167254
0.119097
0.075908
0.0384107
0.00663456
-0.0195275
-0.0396964
-0.0543394
-0.0636228
-0.0680814
-0.0684413
-0.0651179
-0.0587971
-0.0500447
-0.0394182
-0.0274061
-0.0144682
-0.00100707
0.0126835
0.0262906
0.0395991
0.0524108
0.0645717
0.0759741
0.0865247
0.0961441
0.104765
0.112399
0.119066
0.124856
0.129803
0.13399
0.137434
0.140165
0.142191
0.143554
0.144272
0.144363
0.143859
0.142785
0.141169
0.139042
0.13641
0.133335
0.129821
0.12589
0.1216
0.116943
0.111949
0.106646
0.101068
0.095219
0.0891237
0.0828032
0.0762698
0.0695485
0.0626499
0.0555533
0.0483495
0.0411503
0.033594
0.0256714
0.0172954
0.00863849
0.0022121
1.50036
1.36109
1.32122
1.2822
1.24083
1.20356
1.16658
1.12845
1.08861
1.04651
1.00228
0.955269
0.90561
0.853628
0.798737
0.741416
0.681781
0.619967
0.55658
0.49209
0.427097
0.362242
0.298593
0.236852
0.178097
0.123275
0.0732509
0.0290035
-0.00926474
-0.0413447
-0.0672834
-0.0867754
-0.100193
-0.108074
-0.110706
-0.108842
-0.1032
-0.0944197
-0.0831622
-0.0700161
-0.0555418
-0.0402123
-0.0244317
-0.0085692
0.00708048
0.0223139
0.0368956
0.0506887
0.0636131
0.0755462
0.0864448
0.0962662
0.104929
0.112507
0.119074
0.124688
0.129442
0.133403
0.136583
0.139026
0.140738
0.141767
0.142136
0.141882
0.141033
0.139608
0.137655
0.13519
0.132252
0.12886
0.125044
0.120846
0.116267
0.111362
0.106129
0.100602
0.094807
0.0887585
0.0824902
0.075999
0.0693173
0.0624773
0.0554765
0.0483349
0.0410354
0.0334215
0.0255877
0.0172702
0.00858018
0.00214822
1.4943
1.35513
1.31524
1.27632
1.23501
1.19751
1.1601
1.12166
1.08106
1.0383
0.993063
0.945029
0.894254
0.840485
0.783783
0.724404
0.662287
0.597779
0.531701
0.46398
0.395882
0.327962
0.261067
0.196595
0.135085
0.0779641
0.0263267
-0.0191141
-0.0582122
-0.0907215
-0.116361
-0.135135
-0.147355
-0.153409
-0.1541
-0.15004
-0.141965
-0.130646
-0.11681
-0.101082
-0.0840641
-0.0662792
-0.0481558
-0.0300724
-0.012326
0.00484606
0.0212169
0.0366937
0.0511297
0.0644494
0.0766261
0.0876
0.0973595
0.105863
0.113233
0.11955
0.12489
0.129351
0.132976
0.135818
0.137892
0.139254
0.139904
0.1399
0.139276
0.138055
0.136276
0.13397
0.131169
0.127902
0.124201
0.120099
0.115611
0.110765
0.105606
0.100145
0.094403
0.0884071
0.0821634
0.0757151
0.0690777
0.0622503
0.0552864
0.0481018
0.0408097
0.0333303
0.0255114
0.0172112
0.00860447
0.00216264
1.48893
1.34973
1.30988
1.27102
1.22955
1.19193
1.15417
1.11503
1.07399
1.03045
0.98423
0.934992
0.882756
0.8273
0.768743
0.707019
0.642429
0.575388
0.506203
0.435622
0.364294
0.293062
0.223173
0.155562
0.0914246
0.0321526
-0.0211338
-0.0678143
-0.107666
-0.140438
-0.165728
-0.183672
-0.194619
-0.199099
-0.19768
-0.191311
-0.180781
-0.166885
-0.150419
-0.132086
-0.112499
-0.0922471
-0.0717629
-0.0514489
-0.0316191
-0.0125101
0.00566153
0.0227763
0.0387114
0.0534284
0.0668563
0.0789713
0.0897794
0.099245
0.107428
0.11444
0.120372
0.125346
0.129437
0.132671
0.135099
0.136762
0.137703
0.137953
0.137543
0.136516
0.134914
0.132759
0.130103
0.12696
0.123362
0.119355
0.11496
0.110197
0.105101
0.0996935
0.0940012
0.0880497
0.0818609
0.0754396
0.0688427
0.0620588
0.0550841
0.0479574
0.0406959
0.0332001
0.0254218
0.0171617
0.00854142
0.00209184
1.48407
1.34494
1.3051
1.26602
1.22443
1.18648
1.14849
1.10888
1.06708
1.02277
0.975551
0.925138
0.871465
0.814338
0.753776
0.689902
0.622891
0.552994
0.480964
0.407195
0.332672
0.258444
0.18529
0.114811
0.0480096
-0.0132993
-0.0681433
-0.116006
-0.156712
-0.189645
-0.214633
-0.23179
-0.24135
-0.244075
-0.240629
-0.231974
-0.218949
-0.202483
-0.183408
-0.162479
-0.140369
-0.117668
-0.0948533
-0.0723547
-0.0504698
-0.0294563
-0.00952703
0.00919986
0.0266227
0.0426623
0.0573101
0.0705573
0.0823695
0.0927752
0.101753
0.109454
0.115979
0.121451
0.125966
0.129601
0.132382
0.134351
0.135574
0.136054
0.135865
0.135045
0.1336
0.131604
0.129073
0.126042
0.122558
0.118646
0.114319
0.10963
0.104603
0.0992585
0.0936215
0.0877163
0.0815634
0.0751852
0.0686016
0.06183
0.0548906
0.047788
0.0405807
0.0331076
0.0254342
0.0172442
0.00854345
0.0020886
1.47972
1.34048
1.30053
1.26138
1.21967
1.18155
1.1431
1.10304
1.06067
1.01553
0.967248
0.915612
0.860567
0.801697
0.739212
0.673095
0.603639
0.531118
0.4562
0.379538
0.301804
0.224346
0.148307
0.0748963
0.00569924
-0.0574556
-0.113858
-0.16294
-0.204381
-0.237461
-0.262085
-0.278284
-0.286482
-0.287555
-0.28204
-0.271146
-0.25573
-0.236769
-0.215166
-0.191725
-0.167156
-0.142088
-0.11704
-0.0924013
-0.0685474
-0.0457031
-0.0240776
-0.00380806
0.0150181
0.0323544
0.0481698
0.0624592
0.0752402
0.0865203
0.0962897
0.104676
0.111769
0.117738
0.122681
0.126685
0.129789
0.132057
0.133534
0.134258
0.13427
0.133618
0.132342
0.130491
0.128091
0.125178
0.121784
0.117963
0.11373
0.109106
0.104136
0.0988473
0.0932523
0.087392
0.0812772
0.0749422
0.068407
0.0616961
0.0548466
0.0477875
0.0404974
0.0330372
0.0253624
0.0172112
0.00854473
0.00198228
1.47586
1.33662
1.29657
1.25721
1.21542
1.17693
1.1382
1.09766
1.05458
1.00857
0.959391
0.906654
0.850112
0.789715
0.725369
0.657182
0.585247
0.510265
0.432481
0.352916
0.272322
0.191852
0.112921
0.0368121
-0.0345809
-0.0994354
-0.157368
-0.207565
-0.249625
-0.282809
-0.306963
-0.322448
-0.329299
-0.32871
-0.321288
-0.308197
-0.290493
-0.269134
-0.245109
-0.219289
-0.192391
-0.165075
-0.137898
-0.111273
-0.0855454
-0.0609779
-0.0377527
-0.0160199
0.00414595
0.0226734
0.039594
0.0548741
0.0685492
0.0806339
0.0911589
0.100167
0.107825
0.114255
0.119589
0.123947
0.127364
0.129917
0.131634
0.132569
0.132783
0.132306
0.13118
0.129457
0.127173
0.12437
0.121075
0.117325
0.11316
0.108609
0.103699
0.0984561
0.0929163
0.0870884
0.081005
0.0746925
0.0681404
0.0613837
0.0544854
0.047564
0.0403981
0.0328408
0.0251319
0.017078
0.00854771
0.00204075
1.4725
1.33326
1.29293
1.25344
1.2115
1.17281
1.1338
1.09259
1.04901
1.00239
0.952165
0.898345
0.840544
0.778515
0.712351
0.642134
0.568095
0.490677
0.410355
0.32812
0.244624
0.161498
0.0799036
0.00126982
-0.0718049
-0.138471
-0.197677
-0.248966
-0.291559
-0.32481
-0.348605
-0.363106
-0.368825
-0.366591
-0.357376
-0.342298
-0.322474
-0.298918
-0.272671
-0.244636
-0.215589
-0.186218
-0.15707
-0.128593
-0.101139
-0.0749825
-0.0502939
-0.0272259
-0.00585191
0.0138046
0.0317113
0.047898
0.062392
0.0752193
0.0864388
0.0960536
0.104207
0.111072
0.116775
0.121446
0.125158
0.127945
0.1299
0.131036
0.131414
0.131092
0.130112
0.128512
0.126341
0.123621
0.120418
0.116748
0.112656
0.108161
0.103301
0.0981057
0.0926059
0.0868209
0.0807721
0.0744999
0.0680197
0.0613495
0.0545333
0.0475033
0.0402428
0.032786
0.0250669
0.0169098
0.00841946
0.00205671
1.46956
1.33031
1.28981
1.25028
1.20811
1.16913
1.12958
1.08824
1.04403
0.996687
0.945733
0.890852
0.83187
0.768422
0.700699
0.628663
0.552514
0.472919
0.390319
0.305595
0.219712
0.133975
0.0499848
-0.030678
-0.105536
-0.173443
-0.234172
-0.286274
-0.329347
-0.362576
-0.385919
-0.399646
-0.40427
-0.400677
-0.389777
-0.372892
-0.351134
-0.325581
-0.29734
-0.267315
-0.23634
-0.205111
-0.174211
-0.144077
-0.115085
-0.0874998
-0.0615001
-0.0372227
-0.0147539
0.00588698
0.0246894
0.0416761
0.0568972
0.0703874
0.0822021
0.0923434
0.100975
0.108229
0.114268
0.119224
0.123184
0.126203
0.128352
0.129664
0.130212
0.130028
0.129164
0.127676
0.12559
0.122973
0.119841
0.116232
0.112194
0.107754
0.102939
0.0977887
0.0923299
0.0865595
0.080552
0.0743004
0.0678163
0.0611385
0.0542725
0.0472516
0.0400918
0.0326226
0.0249336
0.0168923
0.00845833
0.00212172
1.46711
1.32781
1.28724
1.24747
1.20519
1.16596
1.12621
1.08441
1.03976
0.9919
0.940097
0.884381
0.824245
0.759552
0.690433
0.61672
0.538884
0.457487
0.372742
0.285867
0.197892
0.109989
0.0239161
-0.0584304
-0.134846
-0.204062
-0.265657
-0.318643
-0.362146
-0.395319
-0.418322
-0.43124
-0.434828
-0.430062
-0.417759
-0.399302
-0.375876
-0.348612
-0.318626
-0.286889
-0.254253
-0.221421
-0.188981
-0.157432
-0.1271
-0.0982769
-0.0711562
-0.0458477
-0.0224361
-0.000945484
0.018628
0.0363132
0.0521558
0.0662069
0.0785291
0.0891539
0.0981742
0.105775
0.112103
0.117315
0.121493
0.124697
0.127032
0.128485
0.129164
0.129113
0.128348
0.126958
0.124959
0.122404
0.11934
0.11579
0.111808
0.107412
0.102641
0.0975151
0.0920868
0.0863648
0.080366
0.0741351
0.0676889
0.0610349
0.0542161
0.0472237
0.0400204
0.0325836
0.0249212
0.0168481
0.00836848
0.00205605
1.46509
1.32573
1.28511
1.24524
1.20284
1.16343
1.12333
1.08122
1.03624
0.987685
0.935464
0.878991
0.817987
0.752331
0.681923
0.60697
0.527617
0.444431
0.358145
0.269464
0.179712
0.0900919
0.00233916
-0.0815156
-0.158939
-0.229198
-0.291804
-0.345541
-0.389344
-0.422359
-0.444948
-0.457334
-0.460143
-0.45428
-0.4408
-0.421028
-0.396234
-0.367558
-0.336151
-0.303009
-0.268975
-0.234833
-0.201158
-0.168404
-0.136989
-0.107159
-0.0790959
-0.0529473
-0.0287513
-0.00655579
0.0136566
0.031899
0.0482678
0.0627792
0.0755145
0.0865319
0.0958838
0.103769
0.110329
0.115746
0.120097
0.123474
0.125932
0.127524
0.128314
0.12835
0.127679
0.126361
0.124426
0.121944
0.118927
0.115428
0.111484
0.107118
0.102387
0.0972969
0.0918902
0.0861735
0.0802112
0.073999
0.0675573
0.060921
0.0540832
0.0470796
0.0399036
0.0324839
0.0249037
0.016874
0.00836776
0.00206678
1.4635
1.32409
1.28346
1.2435
1.20091
1.16142
1.1213
1.07886
1.0335
0.984663
0.931843
0.874802
0.812986
0.746595
0.675311
0.599168
0.518834
0.434567
0.346829
0.25693
0.165585
0.0747036
-0.0143014
-0.0992714
-0.177241
-0.24855
-0.311951
-0.366263
-0.41033
-0.443194
-0.465482
-0.477332
-0.479417
-0.472859
-0.458471
-0.437721
-0.411861
-0.382089
-0.349577
-0.315356
-0.280279
-0.245123
-0.210469
-0.176834
-0.144568
-0.113953
-0.0851784
-0.0583697
-0.0335815
-0.0108584
0.00983859
0.0285311
0.045274
0.0601508
0.0732028
0.0845243
0.0941197
0.102227
0.108971
0.114545
0.119039
0.122535
0.125102
0.126781
0.127659
0.127766
0.127171
0.125911
0.124032
0.121586
0.118613
0.115158
0.111234
0.106911
0.102191
0.0971157
0.0917301
0.086052
0.0800915
0.0738987
0.0674832
0.0608643
0.0540781
0.0471047
0.0399609
0.0325696
0.0249475
0.0168426
0.00829121
0.00198505
1.46246
1.32299
1.28236
1.24235
1.19974
1.16014
1.11967
1.07716
1.03158
0.982407
0.929343
0.871865
0.809816
0.742719
0.670837
0.594101
0.512873
0.427643
0.339081
0.248153
0.155958
0.0642674
-0.0257324
-0.111175
-0.189732
-0.261463
-0.325669
-0.38042
-0.424528
-0.457268
-0.479254
-0.490928
-0.492628
-0.485381
-0.470397
-0.448998
-0.422424
-0.391921
-0.358685
-0.323721
-0.287924
-0.252077
-0.216778
-0.182528
-0.149687
-0.118559
-0.08931
-0.0620568
-0.036873
-0.0137765
0.00725039
0.0262323
0.0432529
0.0583718
0.0716378
0.0831711
0.0929401
0.101174
0.10806
0.113718
0.118313
0.121891
0.124524
0.126279
0.127209
0.12737
0.126811
0.125586
0.123755
0.121339
0.118395
0.114964
0.111072
0.10675
0.10206
0.0970112
0.0916195
0.0859516
0.0799984
0.073815
0.0673871
0.0607855
0.0539641
0.046999
0.0398306
0.0323952
0.0248559
0.0167979
0.00832274
0.00198053
1.4619
1.32245
1.28184
1.24183
1.19919
1.15949
1.11897
1.07628
1.03061
0.981348
0.928056
0.870438
0.80792
0.740697
0.668512
0.591365
0.509823
0.424244
0.33523
0.243798
0.15119
0.0589221
-0.0315313
-0.117322
-0.196665
-0.268049
-0.332162
-0.387366
-0.431819
-0.464572
-0.486379
-0.497764
-0.49925
-0.491723
-0.476453
-0.454719
-0.42777
-0.396893
-0.36328
-0.32794
-0.2918
-0.255601
-0.219966
-0.185408
-0.152278
-0.12088
-0.0913718
-0.0638974
-0.0385191
-0.015233
0.00595097
0.0250878
0.0422324
0.0574702
0.0708558
0.0824877
0.0923387
0.100656
0.107597
0.113314
0.117951
0.121573
0.124247
0.126025
0.126985
0.127173
0.126645
0.125437
0.123618
0.121213
0.118288
0.114867
0.110981
0.10668
0.101976
0.0969378
0.0915673
0.0858954
0.0799614
0.0737793
0.067369
0.0607621
0.0539667
0.0470138
0.0398981
0.0325107
0.0248996
0.0167875
0.00825326
0.00196743
1.4618
1.32235
1.28172
1.24171
1.19908
1.15938
1.11895
1.07617
1.03053
0.981195
0.927938
0.870313
0.80783
0.740668
0.668413
0.591297
0.509702
0.424002
0.335005
0.243541
0.150918
0.0586683
-0.0317384
-0.117513
-0.19676
-0.268115
-0.332279
-0.387504
-0.431974
-0.464602
-0.486446
-0.497875
-0.49936
-0.491812
-0.476528
-0.454788
-0.427836
-0.396948
-0.363338
-0.327972
-0.291817
-0.255609
-0.219975
-0.185413
-0.15227
-0.120868
-0.0913685
-0.0638863
-0.0384914
-0.0152014
0.00598655
0.025126
0.0422764
0.0575161
0.0709043
0.0825339
0.0923904
0.100702
0.107646
0.113366
0.118001
0.121615
0.124287
0.126061
0.127015
0.127203
0.12666
0.12546
0.123632
0.121235
0.118297
0.11487
0.110978
0.10667
0.101976
0.0969288
0.0915574
0.0858759
0.0799343
0.0737377
0.0673131
0.0606943
0.053866
0.0468781
0.0397337
0.0323139
0.0247547
0.0167768
0.00831494
0.00202877
1.46219
1.32273
1.28213
1.24215
1.19953
1.15994
1.11947
1.07693
1.03135
0.982169
0.929038
0.871599
0.809537
0.742421
0.670667
0.593824
0.512651
0.42748
0.338816
0.247855
0.155733
0.0639421
-0.0260597
-0.111482
-0.190134
-0.261889
-0.325795
-0.380505
-0.424614
-0.457468
-0.479521
-0.491085
-0.492793
-0.485512
-0.470512
-0.449113
-0.422523
-0.392011
-0.358757
-0.323772
-0.287984
-0.25212
-0.216807
-0.182541
-0.1497
-0.118551
-0.089284
-0.0620231
-0.0368301
-0.0137305
0.00730191
0.0262905
0.0433074
0.0584233
0.0716918
0.0832262
0.0929949
0.101233
0.108111
0.113772
0.118364
0.12194
0.124565
0.126319
0.127243
0.127394
0.12684
0.125611
0.123774
0.121348
0.118394
0.114959
0.111052
0.10674
0.102028
0.0969725
0.0915942
0.0859093
0.0799649
0.0737631
0.0673464
0.0607322
0.0539312
0.0469556
0.0398169
0.0324539
0.0248231
0.0167081
0.00825533
0.00202657
1.46306
1.32364
1.28303
1.24309
1.20053
1.16101
1.12077
1.07848
1.03303
0.984199
0.931456
0.874318
0.812583
0.746237
0.674914
0.598882
0.518501
0.434081
0.346466
0.256453
0.165276
0.0743964
-0.0147096
-0.099543
-0.17772
-0.248978
-0.312216
-0.366351
-0.410428
-0.443375
-0.465619
-0.477577
-0.479632
-0.473013
-0.458623
-0.437869
-0.411997
-0.382207
-0.349697
-0.315433
-0.280347
-0.245174
-0.210508
-0.176861
-0.144571
-0.113952
-0.0851769
-0.0583532
-0.0335674
-0.0108162
0.00987856
0.0285658
0.045325
0.0601964
0.073253
0.0845739
0.0941718
0.102273
0.109023
0.114588
0.119084
0.122567
0.125126
0.126804
0.127667
0.127777
0.127176
0.125905
0.124025
0.12158
0.118598
0.115128
0.11121
0.106868
0.10215
0.097078
0.0916851
0.0859927
0.0800372
0.0738251
0.0673965
0.0607763
0.0539513
0.0469502
0.0398028
0.0323838
0.0248115
0.0167599
0.00824501
0.00196789
1.46439
1.32504
1.28446
1.24459
1.20217
1.16282
1.12271
1.08059
1.03565
0.987046
0.934804
0.87833
0.817395
0.751707
0.681411
0.606416
0.527161
0.444098
0.357637
0.268983
0.179238
0.0896799
0.00187917
-0.0819221
-0.159407
-0.229756
-0.292175
-0.345703
-0.389423
-0.422605
-0.445218
-0.457644
-0.460398
-0.454454
-0.440997
-0.421225
-0.3964
-0.367707
-0.336276
-0.303106
-0.269071
-0.234907
-0.201209
-0.168443
-0.137009
-0.107161
-0.0790886
-0.0529261
-0.0287214
-0.00653244
0.0136986
0.0319603
0.0483117
0.0628272
0.0755708
0.0865877
0.0959385
0.103819
0.110377
0.115781
0.120142
0.123508
0.125952
0.127547
0.128325
0.12835
0.127675
0.126355
0.124424
0.12193
0.118904
0.115396
0.111446
0.107076
0.102333
0.0972376
0.0918187
0.0861056
0.0801336
0.0739105
0.0674786
0.0608376
0.0540323
0.0470511
0.0399257
0.0325653
0.0249321
0.0168367
0.00825187
0.00191575
1.4662
1.32691
1.28635
1.24665
1.20433
1.16506
1.12529
1.08356
1.03889
0.990985
0.939387
0.883547
0.823464
0.758931
0.689793
0.616142
0.538346
0.456784
0.372151
0.285328
0.197338
0.10947
0.0234046
-0.0589346
-0.135259
-0.204477
-0.266121
-0.318974
-0.362369
-0.395665
-0.418591
-0.431546
-0.435116
-0.430318
-0.418031
-0.39953
-0.37607
-0.348786
-0.318783
-0.287018
-0.254353
-0.22151
-0.189044
-0.157476
-0.127125
-0.0982843
-0.0711556
-0.0458317
-0.0224038
-0.000908839
0.0186748
0.0363611
0.0522111
0.0662722
0.0785925
0.0892157
0.0982354
0.105833
0.112162
0.117358
0.121529
0.124747
0.127042
0.128506
0.129169
0.129098
0.128346
0.126946
0.124937
0.122382
0.119308
0.115749
0.111757
0.107349
0.10257
0.0974378
0.0919949
0.0862684
0.0802706
0.0740353
0.0675786
0.0609295
0.0540788
0.0470919
0.0398808
0.0324438
0.0248713
0.0167947
0.00825798
0.00194052
1.46841
1.32915
1.28871
1.24913
1.20693
1.16804
1.12854
1.08719
1.04306
0.99561
0.944727
0.889898
0.830897
0.767596
0.699826
0.627874
0.551847
0.472253
0.389669
0.304903
0.219061
0.133462
0.0494443
-0.0312128
-0.106039
-0.17405
-0.234496
-0.286755
-0.329682
-0.362936
-0.386327
-0.399955
-0.40463
-0.40089
-0.390055
-0.373143
-0.351331
-0.325777
-0.297499
-0.267456
-0.236451
-0.205208
-0.174278
-0.144117
-0.115105
-0.0875017
-0.0614879
-0.0372079
-0.0147184
0.00592126
0.0247315
0.0417397
0.0569541
0.0704504
0.0822757
0.0924121
0.101043
0.108293
0.114312
0.119277
0.12322
0.126235
0.128369
0.129677
0.13021
0.130022
0.129149
0.127652
0.125572
0.122938
0.119794
0.116177
0.112135
0.107684
0.102865
0.0977052
0.0922222
0.086469
0.0804367
0.0741841
0.0676997
0.0610253
0.0541611
0.0471392
0.039947
0.03254
0.0249225
0.0167803
0.00827985
0.00202095
1.47112
1.33189
1.29157
1.25218
1.21025
1.17151
1.13241
1.09135
1.04773
1.00103
0.951126
0.897197
0.839436
0.777563
0.711441
0.641236
0.567254
0.489806
0.409638
0.327315
0.244064
0.160811
0.0792202
0.000815431
-0.072499
-0.138929
-0.198193
-0.249446
-0.29194
-0.325257
-0.349008
-0.363463
-0.36919
-0.366952
-0.357715
-0.342613
-0.322713
-0.299127
-0.27285
-0.24479
-0.215718
-0.18632
-0.15714
-0.12865
-0.101168
-0.0749853
-0.0502826
-0.0271942
-0.00579481
0.0138601
0.0317784
0.0479619
0.0624642
0.0752953
0.0865189
0.0961205
0.104278
0.111137
0.116837
0.121502
0.125199
0.12799
0.129914
0.131042
0.131417
0.131083
0.130094
0.128493
0.126298
0.12358
0.120368
0.116688
0.112575
0.108071
0.103206
0.0979931
0.092483
0.0866847
0.0806484
0.0743538
0.0678492
0.0611634
0.0542922
0.0472677
0.0400938
0.0326874
0.0250034
0.0168448
0.00829009
0.0019434
1.47431
1.33508
1.295
1.25566
1.21397
1.17559
1.13671
1.09613
1.05311
1.00723
0.958114
0.905357
0.84896
0.788452
0.7242
0.656051
0.584255
0.509259
0.431643
0.352053
0.271561
0.191129
0.112234
0.0362191
-0.0351432
-0.100083
-0.157859
-0.208161
-0.250126
-0.283374
-0.307489
-0.322793
-0.32971
-0.328934
-0.321548
-0.308463
-0.290698
-0.269337
-0.245285
-0.219431
-0.192508
-0.165178
-0.137977
-0.111306
-0.0855626
-0.0609633
-0.0377307
-0.0159804
0.00418792
0.022735
0.0396568
0.0549455
0.0686222
0.0807205
0.0912476
0.100256
0.107908
0.114325
0.119662
0.124007
0.127415
0.129935
0.131652
0.132573
0.132781
0.132289
0.131154
0.129418
0.127136
0.124313
0.121007
0.117252
0.113077
0.10852
0.103595
0.0983413
0.092787
0.0869554
0.0808643
0.0745467
0.0680179
0.0612842
0.0543733
0.0473254
0.0401049
0.0327256
0.0250768
0.0169151
0.00834438
0.00192519
1.47791
1.33868
1.29883
1.25972
1.21801
1.17993
1.14158
1.10144
1.05902
1.01387
0.965726
0.914203
0.859043
0.800403
0.737989
0.671901
0.602525
0.53002
0.455211
0.378545
0.300976
0.22366
0.147498
0.0741434
0.00501748
-0.058096
-0.114413
-0.163567
-0.204866
-0.237927
-0.262504
-0.27871
-0.28693
-0.287881
-0.282395
-0.271451
-0.255995
-0.236994
-0.215348
-0.191878
-0.167282
-0.142192
-0.1171
-0.0924477
-0.0685603
-0.0456988
-0.0240525
-0.0037571
0.015085
0.0324439
0.0482604
0.0625616
0.0753358
0.0866192
0.0963834
0.10476
0.111857
0.117813
0.122749
0.126737
0.129842
0.132097
0.13355
0.134258
0.134266
0.133596
0.132322
0.130456
0.128034
0.125116
0.121721
0.117876
0.11363
0.108999
0.104014
0.0987188
0.0931045
0.087235
0.0811208
0.0747646
0.0682026
0.0614705
0.0545491
0.0474846
0.0403057
0.0328542
0.0251185
0.0169586
0.00836021
0.00195032
1.48214
1.34297
1.30311
1.26415
1.22263
1.18471
1.14665
1.1069
1.06528
1.02103
0.973847
0.923551
0.869902
0.812839
0.752362
0.688542
0.621518
0.551835
0.479829
0.406206
0.331811
0.257441
0.184458
0.114033
0.0473407
-0.0140371
-0.0687042
-0.116709
-0.157301
-0.190236
-0.215237
-0.23222
-0.241769
-0.244399
-0.240925
-0.232226
-0.219175
-0.202686
-0.183577
-0.162622
-0.140484
-0.117745
-0.0949159
-0.0723794
-0.0504721
-0.0294306
-0.00948217
0.009271
0.0266954
0.0427513
0.0574064
0.0706493
0.0824802
0.0928859
0.101863
0.109556
0.116074
0.121539
0.126049
0.129668
0.132428
0.134386
0.13558
0.136058
0.135857
0.13501
0.133567
0.131548
0.129018
0.125976
0.12248
0.11855
0.114215
0.109527
0.104473
0.0991206
0.0934698
0.0875488
0.0813854
0.0749986
0.0684068
0.0616296
0.0546716
0.0475659
0.0402643
0.0327592
0.0250654
0.0169029
0.00842631
0.00211042
1.48675
1.34759
1.30764
1.26882
1.22758