/*--------------------------------*- C++ -*----------------------------------*\
  =========                 |
  \\      /  F ield         | OpenFOAM: The Open Source CFD Toolbox
   \\    /   O peration     | Website:  https://openfoam.org
    \\  /    A nd           | Version:  11
     \\/     M anipulation  |
\*---------------------------------------------------------------------------*/
FoamFile
{
    format      ascii;
    class       volScalarField;
    location    "0.048";
    object      k;
}
// * * * * * * * * * * * * * * * * * * * * * * * * * * * * * * * * * * * * * //

dimensions      [0 2 -2 0 0 0 0];

internalField   nonuniform List<scalar> 
287084
(
0.381734
0.39613
0.406733
0.412379
0.414344
0.414556
0.414513
0.414402
0.414357
0.414582
0.414689
0.414639
0.414635
0.414645
0.414627
0.414419
0.414424
0.414648
0.414527
0.41463
0.414792
0.414705
0.414709
0.414726
0.414715
0.41451
0.414506
0.414703
0.414766
0.41474
0.414726
0.414669
0.414528
0.414334
0.4144
0.414529
0.41444
0.414453
0.414433
0.414231
0.414208
0.414321
0.41428
0.414201
0.414207
0.414214
0.414099
0.414214
0.414379
0.414203
0.414279
0.41437
0.414334
0.414295
0.414078
0.414107
0.414264
0.414221
0.414206
0.414223
0.414228
0.414061
0.414096
0.414407
0.414461
0.414401
0.414187
0.414178
0.414351
0.414415
0.414377
0.41418
0.414221
0.414415
0.414374
0.414376
0.414376
0.41431
0.414268
0.414389
0.414498
0.414476
0.414466
0.414435
0.414363
0.414156
0.414088
0.414245
0.414288
0.41417
0.381785
0.396005
0.406577
0.412338
0.414331
0.414533
0.414527
0.414481
0.414559
0.414647
0.414627
0.414625
0.414543
0.414524
0.414492
0.414385
0.414447
0.414536
0.414391
0.414361
0.414538
0.414631
0.414725
0.414801
0.414761
0.414637
0.414668
0.414803
0.414573
0.414623
0.414729
0.414602
0.414532
0.414481
0.414478
0.414491
0.414491
0.414345
0.414429
0.41459
0.414579
0.414574
0.414347
0.414409
0.414531
0.414526
0.414525
0.414459
0.414449
0.414387
0.41419
0.41416
0.414293
0.414304
0.414268
0.414202
0.414223
0.414125
0.414211
0.414401
0.414293
0.414362
0.414388
0.414342
0.414202
0.414253
0.414435
0.414426
0.414425
0.414287
0.414401
0.414572
0.414539
0.414484
0.414329
0.414296
0.414233
0.414366
0.414487
0.414389
0.414379
0.414339
0.414213
0.414275
0.41436
0.414351
0.41435
0.414245
0.414226
0.414065
0.381787
0.395993
0.406572
0.412292
0.414314
0.414739
0.414725
0.414688
0.414585
0.414682
0.414792
0.414713
0.414707
0.414703
0.414571
0.414613
0.414743
0.414731
0.41473
0.414542
0.414577
0.414676
0.414685
0.414871
0.414891
0.414851
0.414654
0.414659
0.414758
0.414586
0.414536
0.414604
0.414527
0.414501
0.414562
0.414464
0.414501
0.414655
0.414623
0.41465
0.414643
0.414516
0.414508
0.414542
0.414525
0.414442
0.414426
0.414549
0.414575
0.414531
0.414296
0.414304
0.414386
0.414179
0.41423
0.414402
0.414258
0.414189
0.414302
0.414427
0.414404
0.414382
0.414337
0.414185
0.41428
0.414482
0.414455
0.414453
0.414349
0.414337
0.414395
0.414392
0.414194
0.414223
0.414366
0.414264
0.414195
0.414204
0.414204
0.414207
0.41417
0.414321
0.414477
0.414241
0.414269
0.414406
0.414191
0.414217
0.414337
0.414119
0.381769
0.396035
0.406517
0.412232
0.41441
0.414851
0.414829
0.414826
0.414704
0.414775
0.414867
0.414855
0.41485
0.414622
0.414688
0.414819
0.414819
0.414817
0.414677
0.414609
0.414616
0.414619
0.414582
0.414559
0.414573
0.414579
0.414548
0.414484
0.414614
0.414788
0.414784
0.414781
0.414661
0.414651
0.41463
0.414599
0.414538
0.414345
0.414377
0.414581
0.414546
0.414541
0.414413
0.41449
0.41453
0.414513
0.414507
0.41436
0.414295
0.414304
0.414376
0.414349
0.414297
0.414188
0.414149
0.414252
0.414143
0.414203
0.414449
0.414475
0.414421
0.414205
0.414251
0.414465
0.41436
0.41445
0.41451
0.414369
0.414475
0.414543
0.41429
0.414319
0.414448
0.414322
0.414282
0.414338
0.414339
0.414493
0.414593
0.414563
0.414542
0.414344
0.414407
0.414491
0.414436
0.414291
0.41425
0.414309
0.414316
0.414235
0.381769
0.396035
0.406495
0.412254
0.414406
0.414679
0.414536
0.414631
0.414795
0.41457
0.414635
0.414797
0.414814
0.414772
0.414542
0.414613
0.414674
0.414607
0.414611
0.414609
0.414507
0.41453
0.414749
0.41469
0.414714
0.414703
0.414549
0.414533
0.414651
0.414639
0.414649
0.414645
0.414501
0.414509
0.41469
0.414545
0.414622
0.414785
0.414786
0.414775
0.414562
0.414463
0.414528
0.414562
0.414507
0.414298
0.414305
0.414411
0.414205
0.414231
0.414384
0.41436
0.414374
0.41432
0.414141
0.414162
0.414372
0.414301
0.414321
0.414311
0.414168
0.414144
0.414272
0.414159
0.414189
0.414327
0.414315
0.41434
0.414297
0.414145
0.414154
0.41449
0.414562
0.414505
0.414304
0.41429
0.414418
0.41435
0.414378
0.414334
0.414175
0.414172
0.414322
0.414201
0.414287
0.414461
0.414236
0.414285
0.414444
0.414208
0.381752
0.396042
0.40656
0.41222
0.414031
0.414095
0.414122
0.414455
0.414626
0.414612
0.414602
0.414429
0.414423
0.414349
0.414457
0.414715
0.414588
0.414584
0.41458
0.414601
0.414591
0.414445
0.414447
0.414589
0.41459
0.414511
0.414583
0.414719
0.414704
0.414705
0.414568
0.414572
0.414564
0.414566
0.414566
0.414577
0.414584
0.414562
0.414518
0.414463
0.414404
0.414222
0.41421
0.414347
0.41422
0.414219
0.414348
0.414337
0.414379
0.414338
0.414301
0.414243
0.41438
0.414498
0.414497
0.414495
0.414292
0.414263
0.414373
0.414405
0.414364
0.414168
0.414186
0.414364
0.414306
0.414397
0.414489
0.414484
0.414482
0.414287
0.414321
0.414495
0.414319
0.414396
0.414534
0.414288
0.414277
0.414396
0.414237
0.414228
0.414341
0.414231
0.414331
0.4145
0.4144
0.414411
0.4144
0.414416
0.414372
0.414212
0.381722
0.396076
0.406553
0.412231
0.414097
0.414164
0.414301
0.414503
0.414459
0.414453
0.414327
0.41456
0.415012
0.415013
0.414976
0.415044
0.415137
0.415062
0.415061
0.415002
0.415008
0.415004
0.414853
0.414905
0.414987
0.414987
0.414987
0.414755
0.414801
0.414826
0.414614
0.414687
0.414827
0.414679
0.41459
0.414562
0.414452
0.414452
0.414689
0.414747
0.414689
0.414484
0.414472
0.414626
0.414634
0.414596
0.414424
0.414491
0.414531
0.414484
0.414341
0.414361
0.414452
0.41441
0.414285
0.414309
0.41443
0.414442
0.414444
0.414368
0.414346
0.414109
0.414106
0.414366
0.414425
0.414361
0.414362
0.414339
0.414115
0.414146
0.414319
0.414282
0.414189
0.414243
0.414432
0.414422
0.414417
0.414256
0.414215
0.414163
0.414306
0.414474
0.414246
0.41427
0.414414
0.41431
0.414414
0.414477
0.414421
0.414228
0.381756
0.396062
0.406495
0.4121
0.414547
0.415227
0.415199
0.415284
0.415365
0.415345
0.415312
0.415316
0.415321
0.415274
0.415264
0.415154
0.4151
0.415184
0.415204
0.415151
0.415161
0.415147
0.415047
0.414949
0.414969
0.415033
0.415009
0.415012
0.414946
0.414772
0.414648
0.414637
0.414557
0.414535
0.414661
0.414692
0.41456
0.414623
0.41484
0.414849
0.414831
0.414598
0.414637
0.414767
0.414744
0.414741
0.41466
0.414644
0.414537
0.414633
0.414764
0.414635
0.414715
0.414748
0.414706
0.414689
0.414682
0.414692
0.414629
0.414447
0.414344
0.414376
0.41434
0.414355
0.414353
0.414219
0.414261
0.414411
0.414411
0.414346
0.414327
0.414337
0.414319
0.414213
0.41423
0.414498
0.414521
0.414482
0.41429
0.414236
0.414326
0.414269
0.414395
0.414489
0.414465
0.414458
0.4143
0.414349
0.41438
0.414198
0.381737
0.396061
0.406554
0.412199
0.414195
0.414483
0.414521
0.414496
0.414499
0.414403
0.414545
0.414981
0.41494
0.414947
0.414947
0.414968
0.414922
0.415023
0.415157
0.415136
0.415128
0.415131
0.415138
0.415066
0.41507
0.415075
0.415069
0.415027
0.414939
0.414689
0.414603
0.414691
0.414624
0.414583
0.414667
0.414694
0.414557
0.414588
0.414749
0.414663
0.414746
0.41479
0.414635
0.414723
0.41477
0.414764
0.414761
0.414614
0.414595
0.414508
0.414253
0.414179
0.414237
0.414244
0.414154
0.414178
0.414404
0.414424
0.414382
0.414174
0.414184
0.414395
0.414405
0.414366
0.414175
0.414169
0.414334
0.414247
0.414366
0.414498
0.414501
0.4145
0.41427
0.414328
0.414468
0.414331
0.414464
0.414572
0.414564
0.414561
0.414311
0.414303
0.414435
0.414353
0.414427
0.414452
0.414361
0.414358
0.414347
0.414153
0.381721
0.39604
0.406667
0.412081
0.414157
0.41448
0.414454
0.41433
0.414341
0.414671
0.414728
0.41467
0.414465
0.414469
0.414752
0.414802
0.414775
0.414778
0.414716
0.414484
0.414541
0.414731
0.414714
0.414633
0.414657
0.414787
0.414602
0.414673
0.41486
0.414765
0.414654
0.41467
0.414726
0.414633
0.414695
0.41471
0.414656
0.414494
0.41451
0.414559
0.414436
0.414385
0.414321
0.414123
0.414131
0.414277
0.414262
0.414261
0.414221
0.414111
0.414181
0.414247
0.414213
0.414168
0.414061
0.41413
0.414153
0.414066
0.414164
0.414356
0.414361
0.414359
0.414131
0.414191
0.414291
0.414109
0.414199
0.414376
0.414247
0.414238
0.414225
0.41408
0.414055
0.414222
0.414248
0.414149
0.414234
0.414396
0.414401
0.414399
0.414177
0.414236
0.414443
0.414462
0.414464
0.414373
0.414265
0.414324
0.414379
0.414201
0.381748
0.396031
0.406565
0.412202
0.414291
0.414566
0.414535
0.4144
0.414431
0.414607
0.414601
0.414565
0.414591
0.414735
0.414687
0.414643
0.414804
0.414946
0.414921
0.414964
0.414923
0.414828
0.414809
0.41479
0.414802
0.41481
0.414703
0.414718
0.41472
0.414645
0.414598
0.414752
0.414833
0.414813
0.414809
0.414741
0.41469
0.414636
0.414543
0.414436
0.414371
0.414183
0.414163
0.414297
0.414304
0.414263
0.414384
0.414521
0.414486
0.414426
0.41434
0.414298
0.414268
0.414193
0.414217
0.41434
0.41431
0.414158
0.414207
0.414323
0.414323
0.414322
0.41412
0.414212
0.414315
0.414285
0.41428
0.414113
0.414197
0.414331
0.414312
0.414257
0.414322
0.414506
0.41429
0.414311
0.414462
0.414309
0.414399
0.41454
0.414325
0.414404
0.414545
0.414399
0.4143
0.414312
0.414388
0.414368
0.414354
0.414174
0.381732
0.39607
0.406522
0.412227
0.414267
0.414565
0.414702
0.414673
0.414637
0.414551
0.414593
0.414936
0.414874
0.415009
0.415158
0.415034
0.415043
0.415035
0.414908
0.414986
0.415092
0.414865
0.414938
0.415099
0.415057
0.41506
0.415086
0.415076
0.414884
0.414811
0.414758
0.414667
0.41459
0.414543
0.41451
0.414457
0.414418
0.414271
0.414257
0.414368
0.414243
0.414229
0.414339
0.414332
0.41437
0.414328
0.414253
0.414209
0.41437
0.414513
0.414448
0.414471
0.414489
0.414511
0.414443
0.414178
0.414208
0.414308
0.414242
0.414146
0.414232
0.414416
0.414264
0.41436
0.414433
0.414413
0.414407
0.414223
0.414337
0.414471
0.414455
0.414447
0.414241
0.414299
0.414372
0.414338
0.414309
0.414152
0.414279
0.414462
0.41442
0.414253
0.414261
0.41442
0.414441
0.414427
0.414196
0.414248
0.414415
0.414177
0.381756
0.396061
0.406498
0.412081
0.414589
0.415157
0.415108
0.415116
0.415044
0.415142
0.415198
0.415015
0.415097
0.415196
0.415042
0.415136
0.415201
0.415109
0.415108
0.415049
0.415146
0.415199
0.414983
0.415049
0.415115
0.415105
0.415104
0.415054
0.415023
0.414797
0.414703
0.41477
0.414786
0.41476
0.414712
0.414807
0.414853
0.414793
0.414636
0.414571
0.414671
0.414696
0.414653
0.414461
0.414507
0.414673
0.414644
0.414605
0.414505
0.414489
0.414461
0.414467
0.414462
0.414318
0.414365
0.414447
0.414402
0.414318
0.414217
0.414392
0.414503
0.414453
0.414269
0.414235
0.414359
0.414215
0.414248
0.414386
0.414382
0.414324
0.414322
0.414333
0.414315
0.414209
0.414227
0.414498
0.414514
0.414471
0.414256
0.414273
0.414432
0.414436
0.414428
0.414214
0.414196
0.414359
0.414335
0.414335
0.414331
0.414191
0.38173
0.396036
0.406613
0.412225
0.414017
0.414107
0.414186
0.414465
0.414395
0.414404
0.414406
0.414374
0.414315
0.414335
0.414335
0.414512
0.414685
0.41459
0.414645
0.414668
0.414558
0.41465
0.414924
0.414786
0.414895
0.415022
0.414882
0.414865
0.414865
0.414864
0.414756
0.414777
0.414787
0.414619
0.414638
0.414789
0.414789
0.414769
0.414742
0.414715
0.41469
0.414678
0.414694
0.414721
0.414699
0.414713
0.414666
0.414643
0.414605
0.414545
0.414352
0.41425
0.414371
0.414433
0.414391
0.414324
0.414201
0.414308
0.414438
0.414402
0.414342
0.414186
0.41426
0.414393
0.414348
0.414173
0.414201
0.414389
0.414388
0.414386
0.414312
0.414243
0.414197
0.414126
0.41424
0.414507
0.414338
0.414434
0.414583
0.414455
0.414527
0.41456
0.414524
0.414505
0.414333
0.4144
0.414605
0.414592
0.41457
0.414314
0.381756
0.396061
0.406494
0.412097
0.414543
0.415223
0.415232
0.415236
0.415172
0.415274
0.415329
0.415205
0.415242
0.415261
0.415244
0.41526
0.415213
0.41503
0.415084
0.415171
0.415126
0.415126
0.415118
0.415159
0.415108
0.41507
0.415042
0.415056
0.41503
0.415045
0.414979
0.414798
0.41469
0.414642
0.414585
0.414568
0.414498
0.414327
0.41427
0.414335
0.414247
0.414227
0.414405
0.414526
0.414473
0.414339
0.414255
0.414281
0.414242
0.41436
0.414425
0.414264
0.414354
0.414498
0.414465
0.414427
0.414192
0.414165
0.414347
0.414302
0.414419
0.414614
0.414554
0.414542
0.414506
0.414516
0.414521
0.414507
0.41446
0.414309
0.414332
0.414354
0.414316
0.414207
0.414226
0.414497
0.414513
0.41447
0.414254
0.414291
0.414462
0.414495
0.414454
0.414375
0.414359
0.414166
0.414242
0.414398
0.414358
0.414208
0.381793
0.396016
0.40647
0.412254
0.41425
0.414404
0.414543
0.414728
0.41453
0.414601
0.414738
0.414719
0.414725
0.414601
0.414681
0.414805
0.414759
0.414583
0.414615
0.414727
0.414723
0.414687
0.414741
0.414906
0.41469
0.41471
0.414861
0.414854
0.41475
0.414786
0.414886
0.414671
0.414741
0.414853
0.414751
0.414741
0.414626
0.414599
0.414591
0.414538
0.414456
0.41442
0.414392
0.414361
0.414299
0.414164
0.414041
0.414239
0.414421
0.414299
0.414356
0.414371
0.414335
0.414238
0.414386
0.414728
0.414607
0.414702
0.414927
0.414915
0.41486
0.414656
0.414702
0.414761
0.414752
0.414752
0.414717
0.414708
0.414605
0.414537
0.414314
0.414257
0.414459
0.414521
0.414465
0.41427
0.414315
0.414412
0.414287
0.414206
0.414357
0.414504
0.414459
0.414344
0.414277
0.41433
0.414347
0.41435
0.414303
0.414167
0.381769
0.396066
0.406469
0.41207
0.414489
0.415341
0.415417
0.415452
0.415413
0.415352
0.415372
0.415391
0.415411
0.415353
0.415153
0.415179
0.415219
0.414989
0.415064
0.415173
0.414923
0.414959
0.415092
0.415028
0.415036
0.415049
0.415036
0.414978
0.414848
0.414864
0.414891
0.414834
0.414737
0.414582
0.41459
0.414591
0.414552
0.414532
0.414458
0.414404
0.41432
0.414143
0.414228
0.414347
0.41433
0.414321
0.414114
0.414189
0.41432
0.414165
0.414271
0.414354
0.414111
0.414086
0.414318
0.414325
0.414483
0.414667
0.414466
0.414551
0.414678
0.414465
0.414541
0.414623
0.414507
0.414532
0.414487
0.414307
0.414332
0.414422
0.414245
0.414318
0.414373
0.41436
0.414357
0.414143
0.414169
0.414449
0.414464
0.414432
0.414407
0.414317
0.414289
0.414199
0.414314
0.414469
0.414257
0.414338
0.414485
0.414225
0.381757
0.396061
0.406493
0.412105
0.4145
0.415418
0.415451
0.415416
0.41542
0.415404
0.415394
0.415333
0.41532
0.41524
0.415257
0.415267
0.41512
0.415188
0.415242
0.415028
0.415108
0.415225
0.415142
0.415157
0.415149
0.41512
0.41509
0.415073
0.414843
0.414778
0.414803
0.414702
0.414664
0.41463
0.414582
0.414548
0.414476
0.414304
0.414228
0.414277
0.414267
0.414216
0.41425
0.414343
0.414327
0.414353
0.414271
0.414317
0.414373
0.414356
0.414352
0.414139
0.414157
0.414413
0.414362
0.414494
0.414666
0.414578
0.414632
0.414658
0.414621
0.414566
0.414534
0.414491
0.414349
0.414412
0.414515
0.414321
0.414291
0.414464
0.414553
0.414528
0.414524
0.41443
0.414337
0.414396
0.414509
0.414489
0.414493
0.414433
0.414208
0.414255
0.414455
0.414459
0.41445
0.414208
0.414189
0.414331
0.41434
0.414231
0.381769
0.396066
0.40647
0.412064
0.414521
0.415217
0.41519
0.415299
0.415355
0.415252
0.41527
0.41527
0.415268
0.415114
0.415164
0.415207
0.414977
0.415051
0.415164
0.414917
0.414947
0.415088
0.415017
0.415031
0.41499
0.414901
0.414842
0.41484
0.414842
0.414844
0.41479
0.414673
0.414559
0.414679
0.414791
0.414705
0.414736
0.414795
0.414756
0.414671
0.414479
0.414346
0.414287
0.414176
0.414073
0.414033
0.41405
0.414016
0.414115
0.414327
0.4143
0.414261
0.414104
0.414067
0.414314
0.414378
0.414502
0.414693
0.4146
0.414665
0.414687
0.414676
0.414648
0.414618
0.414608
0.414451
0.414501
0.414579
0.414384
0.414369
0.414487
0.414499
0.414451
0.414464
0.41447
0.414462
0.414288
0.414351
0.414439
0.414398
0.414328
0.414229
0.414237
0.414129
0.414227
0.414381
0.414184
0.414144
0.41422
0.414098
0.381765
0.396088
0.406398
0.412218
0.414427
0.414853
0.414883
0.414837
0.414699
0.414777
0.414873
0.414852
0.41485
0.414708
0.414785
0.414875
0.414812
0.41482
0.414823
0.414798
0.414734
0.414899
0.415151
0.4151
0.415102
0.415112
0.415089
0.414875
0.414777
0.414785
0.414735
0.414733
0.41469
0.414581
0.414534
0.414519
0.414447
0.414419
0.414366
0.414221
0.414172
0.414204
0.414183
0.414193
0.414213
0.414225
0.414206
0.414159
0.414039
0.414017
0.414322
0.414984
0.415039
0.415012
0.414952
0.415008
0.415033
0.41502
0.415015
0.414792
0.414835
0.414899
0.414783
0.414779
0.414764
0.414745
0.41471
0.414662
0.414724
0.414756
0.414698
0.414549
0.414502
0.414516
0.414476
0.414511
0.414516
0.414472
0.414484
0.41443
0.414213
0.414268
0.414372
0.414178
0.414151
0.414238
0.4142
0.414204
0.414203
0.414091
0.381755
0.396035
0.406549
0.412208
0.414182
0.414398
0.414239
0.414237
0.414386
0.414401
0.414424
0.414429
0.414282
0.414339
0.414652
0.414676
0.414641
0.414504
0.414587
0.41495
0.415182
0.415159
0.415062
0.415053
0.415009
0.414856
0.414867
0.414988
0.414936
0.414939
0.414868
0.414633
0.414606
0.414713
0.414527
0.414537
0.414673
0.414684
0.41466
0.414391
0.414386
0.414469
0.414445
0.414436
0.414232
0.414297
0.414358
0.41432
0.414264
0.414167
0.414132
0.414074
0.41402
0.414109
0.414238
0.414178
0.414194
0.414189
0.414067
0.414004
0.414057
0.414032
0.41401
0.414033
0.414025
0.414156
0.414217
0.41403
0.414083
0.414357
0.414417
0.414421
0.414411
0.414435
0.414389
0.414229
0.414256
0.414505
0.414547
0.414516
0.414479
0.414424
0.414183
0.414231
0.414367
0.414244
0.414164
0.414257
0.41432
0.414173
0.381757
0.39606
0.406499
0.412076
0.414611
0.415148
0.415106
0.415124
0.415068
0.415045
0.415
0.415103
0.415174
0.415131
0.41499
0.415016
0.415095
0.415039
0.415052
0.415003
0.415103
0.415212
0.415194
0.415199
0.415162
0.415123
0.415069
0.414953
0.414807
0.41484
0.414856
0.414687
0.414762
0.414792
0.414772
0.414757
0.414432
0.414395
0.414419
0.414333
0.414337
0.414299
0.414257
0.414216
0.414196
0.414018
0.41409
0.414269
0.414238
0.414234
0.414095
0.414162
0.414737
0.415042
0.414999
0.415019
0.414973
0.415017
0.415064
0.415055
0.415045
0.415012
0.41489
0.414918
0.414931
0.414691
0.414735
0.414809
0.414607
0.414698
0.414817
0.41468
0.414755
0.414851
0.414801
0.4148
0.414813
0.414824
0.414759
0.414676
0.414579
0.414318
0.414252
0.414417
0.414467
0.414417
0.414205
0.414246
0.414375
0.414135
0.381756
0.396062
0.406494
0.412101
0.414533
0.415294
0.415302
0.415223
0.41531
0.415355
0.41528
0.415309
0.415258
0.415224
0.41512
0.415195
0.415254
0.415031
0.415111
0.415236
0.415221
0.415179
0.415214
0.41528
0.415278
0.415278
0.415234
0.41521
0.414967
0.414869
0.414843
0.414728
0.41466
0.414655
0.414653
0.414572
0.414589
0.41461
0.414458
0.414551
0.414639
0.414631
0.414624
0.414367
0.414417
0.414496
0.414411
0.414461
0.414476
0.414433
0.414231
0.414232
0.414725
0.415071
0.414987
0.415084
0.415136
0.415069
0.415056
0.415025
0.415028
0.414973
0.415007
0.415017
0.414799
0.414844
0.414909
0.414727
0.41482
0.414908
0.414875
0.414872
0.414875
0.414881
0.414842
0.414827
0.41472
0.414717
0.41466
0.414669
0.414653
0.41455
0.414459
0.414407
0.414308
0.414245
0.414395
0.414489
0.414436
0.414241
0.38175
0.39602
0.406601
0.4122
0.414108
0.414606
0.414589
0.414495
0.414396
0.41443
0.414498
0.414462
0.414354
0.414509
0.415
0.414905
0.414936
0.415259
0.41534
0.415294
0.415134
0.415159
0.41526
0.415007
0.414989
0.415081
0.415066
0.415089
0.415056
0.415004
0.414892
0.414837
0.414796
0.414729
0.414578
0.414537
0.414483
0.414294
0.414323
0.414514
0.414555
0.414513
0.41448
0.414477
0.414421
0.414422
0.414379
0.41428
0.414349
0.414409
0.414159
0.414211
0.414297
0.414267
0.414227
0.414168
0.414307
0.414316
0.414336
0.414334
0.414347
0.414263
0.414358
0.414534
0.41454
0.414541
0.414328
0.41439
0.414566
0.414501
0.414524
0.414522
0.414468
0.414368
0.414426
0.414461
0.414317
0.414401
0.414558
0.414313
0.414323
0.414435
0.414229
0.414276
0.414435
0.414459
0.414417
0.414362
0.414347
0.414106
0.381753
0.396076
0.406449
0.412201
0.414478
0.414833
0.41499
0.415029
0.414841
0.414924
0.415059
0.415051
0.415052
0.414958
0.414953
0.414938
0.414767
0.414802
0.414939
0.414926
0.414927
0.41479
0.414918
0.415044
0.414855
0.414949
0.415098
0.414999
0.41485
0.414855
0.414862
0.414646
0.414708
0.414739
0.414716
0.414706
0.414583
0.41456
0.414466
0.414231
0.414119
0.414142
0.414087
0.414022
0.414053
0.41412
0.414099
0.414085
0.41392
0.413898
0.414198
0.414257
0.414224
0.414203
0.414038
0.414108
0.41419
0.414046
0.414159
0.414323
0.414292
0.414288
0.414268
0.414263
0.414147
0.414053
0.414048
0.413972
0.413979
0.414238
0.414339
0.414311
0.414226
0.414265
0.414295
0.414148
0.414249
0.414316
0.414236
0.414131
0.414219
0.414424
0.414422
0.414418
0.414297
0.414258
0.414111
0.414048
0.414104
0.414017
0.381756
0.396062
0.406496
0.412089
0.414578
0.415185
0.415138
0.415149
0.415122
0.415212
0.415252
0.415144
0.415222
0.415269
0.415244
0.415249
0.415218
0.415171
0.415015
0.415059
0.415191
0.415099
0.415193
0.415231
0.415182
0.415176
0.415114
0.41493
0.414801
0.41479
0.414747
0.414753
0.414725
0.414658
0.414445
0.414419
0.41453
0.41454
0.414496
0.414309
0.414262
0.414243
0.414256
0.41425
0.414129
0.414109
0.413981
0.41407
0.414289
0.414262
0.414265
0.4142
0.414204
0.414219
0.414242
0.414184
0.41398
0.414027
0.41423
0.414218
0.414121
0.414161
0.414376
0.414422
0.414383
0.414304
0.414284
0.414094
0.414049
0.414165
0.4142
0.41411
0.414209
0.414383
0.414382
0.41438
0.414271
0.41425
0.414151
0.414079
0.414099
0.414039
0.414155
0.414354
0.414342
0.41434
0.414176
0.414279
0.414379
0.414183
0.381756
0.396062
0.406493
0.412106
0.4145
0.41542
0.415452
0.415351
0.415348
0.415293
0.415338
0.415351
0.415297
0.415299
0.4153
0.415173
0.415233
0.415294
0.415073
0.415153
0.415287
0.415066
0.415112
0.41529
0.415289
0.415285
0.415274
0.41528
0.415262
0.415268
0.41521
0.415083
0.414975
0.414877
0.414582
0.414557
0.414684
0.414682
0.414642
0.414609
0.41443
0.414415
0.414476
0.414451
0.414378
0.414292
0.414318
0.41433
0.414281
0.414167
0.414109
0.414348
0.415078
0.41515
0.415034
0.415106
0.415137
0.415055
0.415049
0.415065
0.415087
0.415044
0.415013
0.414965
0.414769
0.414809
0.414872
0.41467
0.414757
0.414851
0.414753
0.414777
0.414719
0.414691
0.414685
0.414526
0.414565
0.414618
0.414546
0.41453
0.414554
0.414562
0.414379
0.414434
0.414491
0.414462
0.41445
0.41432
0.414275
0.41409
0.381756
0.396062
0.406494
0.412101
0.414534
0.415296
0.415304
0.415225
0.415313
0.415358
0.415282
0.415309
0.415258
0.415226
0.415123
0.415198
0.415256
0.415033
0.415111
0.415238
0.415175
0.415215
0.415253
0.415226
0.415211
0.415211
0.415186
0.415125
0.41496
0.414857
0.414798
0.414667
0.414632
0.414667
0.41467
0.414583
0.414587
0.414607
0.414461
0.414556
0.414642
0.414633
0.414627
0.414368
0.414418
0.414496
0.414478
0.41449
0.414465
0.414441
0.414234
0.414249
0.414744
0.414919
0.414896
0.414876
0.414919
0.414945
0.414885
0.414875
0.414712
0.414794
0.414868
0.414682
0.414764
0.414825
0.414728
0.414744
0.414729
0.414555
0.4146
0.414681
0.414675
0.414674
0.414615
0.41459
0.414391
0.414302
0.414343
0.41427
0.414386
0.414491
0.414297
0.414387
0.414467
0.414439
0.414426
0.414343
0.414293
0.414107
0.381757
0.39606
0.4065
0.412075
0.41461
0.415148
0.41507
0.415115
0.415183
0.415165
0.41518
0.415137
0.414998
0.415075
0.415187
0.415149
0.415016
0.415052
0.415126
0.415057
0.41507
0.415095
0.415088
0.414879
0.414937
0.415018
0.414819
0.414914
0.415068
0.415057
0.415056
0.41496
0.41494
0.414938
0.414923
0.414792
0.414735
0.414635
0.414317
0.414302
0.414364
0.414371
0.41437
0.414271
0.414243
0.414031
0.414076
0.414326
0.414338
0.414288
0.41412
0.414159
0.414757
0.414973
0.414943
0.414906
0.414915
0.414962
0.414959
0.414956
0.414763
0.414724
0.414827
0.414849
0.414809
0.414614
0.414623
0.414698
0.414494
0.414552
0.414714
0.414716
0.414711
0.414528
0.414452
0.414566
0.414657
0.414606
0.41462
0.414629
0.414607
0.414451
0.414327
0.414323
0.41429
0.414253
0.414388
0.414475
0.414419
0.41422
0.381756
0.396033
0.406559
0.412182
0.414209
0.414505
0.414473
0.414322
0.414295
0.414589
0.414698
0.41465
0.414474
0.414489
0.414655
0.414591
0.414662
0.414698
0.414599
0.414673
0.414728
0.41482
0.415082
0.414894
0.414969
0.415133
0.414962
0.414902
0.415001
0.41503
0.414976
0.414871
0.414788
0.41477
0.41472
0.414579
0.414558
0.414651
0.414658
0.414581
0.414627
0.414649
0.414549
0.414542
0.414537
0.414545
0.414565
0.414582
0.414469
0.414474
0.414497
0.414479
0.414456
0.414274
0.414069
0.414108
0.414147
0.414008
0.414061
0.414326
0.414333
0.414291
0.414118
0.414144
0.414381
0.414381
0.414419
0.414426
0.414397
0.414328
0.414449
0.414636
0.414555
0.414617
0.414633
0.414564
0.414572
0.414578
0.414551
0.414519
0.41448
0.414438
0.414277
0.414367
0.414557
0.414537
0.414508
0.414458
0.414388
0.414145
0.381796
0.396006
0.406488
0.412247
0.414224
0.414383
0.414529
0.414717
0.414625
0.414638
0.414557
0.414517
0.414452
0.414588
0.41476
0.414757
0.414755
0.414597
0.4146
0.414556
0.414686
0.415057
0.415042
0.41498
0.41477
0.414778
0.414939
0.414899
0.414873
0.414823
0.414776
0.414636
0.414713
0.414807
0.414752
0.414623
0.414566
0.414606
0.414621
0.414583
0.414515
0.414523
0.414486
0.414446
0.414391
0.414358
0.41432
0.414265
0.414142
0.414116
0.414017
0.414109
0.414346
0.414341
0.414358
0.414273
0.414346
0.41433
0.414483
0.414636
0.414608
0.414512
0.414543
0.414608
0.414485
0.414491
0.41444
0.414479
0.41449
0.414402
0.414479
0.414523
0.414478
0.4144
0.414311
0.414416
0.414516
0.414495
0.414498
0.41443
0.414166
0.414192
0.414365
0.414402
0.414361
0.414116
0.414159
0.414319
0.414297
0.414173
0.381793
0.396016
0.406472
0.412254
0.41425
0.414401
0.414535
0.41472
0.414562
0.4146
0.414612
0.414574
0.41447
0.414568
0.414799
0.414824
0.414783
0.414551
0.414638
0.41493
0.414971
0.414934
0.414845
0.414836
0.414773
0.414696
0.41467
0.414695
0.414678
0.414645
0.414551
0.414641
0.414794
0.414789
0.414783
0.414661
0.414508
0.414462
0.414519
0.414517
0.414515
0.414461
0.41434
0.414131
0.41419
0.414283
0.414265
0.414258
0.414068
0.414209
0.414612
0.414474
0.41455
0.414795
0.414804
0.414749
0.414522
0.414524
0.414728
0.414788
0.414756
0.41472
0.41469
0.414477
0.414527
0.414628
0.414445
0.414533
0.414616
0.414571
0.414486
0.414375
0.414348
0.414277
0.414388
0.414468
0.414453
0.414451
0.414364
0.414351
0.414308
0.414316
0.414275
0.414218
0.414079
0.414032
0.414284
0.41439
0.414338
0.414147
0.381757
0.396062
0.406493
0.412102
0.414523
0.415325
0.41535
0.415335
0.415325
0.4153
0.415324
0.415362
0.415324
0.415254
0.415214
0.415189
0.415099
0.415183
0.415241
0.415028
0.415108
0.415225
0.415118
0.415146
0.415104
0.415065
0.41504
0.414989
0.414882
0.414753
0.414801
0.414825
0.414657
0.414722
0.414765
0.414525
0.414577
0.414726
0.414558
0.414503
0.414518
0.414416
0.414508
0.414664
0.414495
0.41459
0.414664
0.414521
0.414594
0.414626
0.414577
0.414495
0.414299
0.414286
0.41428
0.414445
0.414642
0.414518
0.414511
0.414504
0.414524
0.414516
0.414524
0.414483
0.414339
0.414405
0.414507
0.414313
0.414288
0.414467
0.414553
0.414527
0.414523
0.41443
0.414337
0.414431
0.414493
0.414436
0.414288
0.414236
0.414335
0.414269
0.414391
0.41448
0.414455
0.414452
0.4143
0.414355
0.414385
0.414202
0.38177
0.396066
0.406467
0.412072
0.414477
0.415406
0.415445
0.415383
0.415406
0.415342
0.415304
0.415328
0.41535
0.415269
0.415264
0.415364
0.415372
0.415344
0.415345
0.415312
0.415266
0.415184
0.415094
0.415133
0.415241
0.415215
0.415172
0.415185
0.415145
0.415102
0.415043
0.415013
0.414933
0.414672
0.414626
0.4148
0.414829
0.414779
0.414578
0.414505
0.414605
0.414632
0.414588
0.414458
0.414512
0.414536
0.414345
0.414376
0.414567
0.414585
0.414602
0.414578
0.414522
0.414351
0.414409
0.414653
0.41465
0.414596
0.414405
0.414443
0.414641
0.414502
0.414589
0.414756
0.414647
0.414704
0.41477
0.414791
0.414755
0.414698
0.414505
0.414535
0.414658
0.414624
0.414585
0.414482
0.414375
0.414428
0.414501
0.414459
0.41439
0.414262
0.414242
0.414132
0.414182
0.414342
0.414262
0.41421
0.414191
0.414081
0.381765
0.396086
0.406407
0.412183
0.414493
0.414892
0.414861
0.414725
0.414674
0.414724
0.414579
0.414664
0.414789
0.414555
0.414621
0.41476
0.414744
0.414747
0.414671
0.414812
0.414938
0.41493
0.414942
0.41488
0.414718
0.414614
0.414633
0.414554
0.414633
0.414851
0.414831
0.414788
0.414593
0.414668
0.414766
0.414746
0.41474
0.414651
0.414608
0.414444
0.414261
0.414207
0.414072
0.414149
0.414321
0.414269
0.414262
0.414143
0.414238
0.414431
0.414402
0.414363
0.414175
0.414195
0.414445
0.414372
0.414467
0.414739
0.414746
0.414713
0.414686
0.414635
0.414436
0.414486
0.414666
0.414602
0.414635
0.414597
0.414535
0.414499
0.414473
0.414384
0.414461
0.414507
0.41435
0.414441
0.414512
0.414262
0.41429
0.414435
0.414428
0.414447
0.414422
0.414391
0.414287
0.414214
0.414381
0.414495
0.41444
0.414235
0.381756
0.396062
0.406494
0.4121
0.414532
0.415248
0.415242
0.415344
0.415379
0.415332
0.415331
0.415317
0.415315
0.4152
0.415217
0.415266
0.415181
0.415256
0.415282
0.415114
0.415182
0.415235
0.415177
0.415173
0.415146
0.415106
0.414814
0.414788
0.414939
0.414962
0.414967
0.414961
0.414905
0.414747
0.414628
0.41455
0.414379
0.414309
0.414361
0.414241
0.414225
0.414329
0.414218
0.414256
0.414405
0.414244
0.414289
0.414446
0.41429
0.414389
0.4145
0.414478
0.414475
0.414262
0.414283
0.414472
0.414516
0.414488
0.414357
0.414442
0.414495
0.414328
0.414391
0.414503
0.414283
0.414345
0.414494
0.414276
0.414305
0.414486
0.414468
0.414503
0.41451
0.4145
0.414355
0.41439
0.414457
0.414406
0.41423
0.41425
0.414436
0.414449
0.41446
0.414409
0.414358
0.414163
0.41424
0.414396
0.414356
0.414206
0.381732
0.396054
0.406587
0.412202
0.414116
0.414315
0.414296
0.414263
0.414358
0.41451
0.414516
0.414517
0.41431
0.414344
0.414777
0.414911
0.414884
0.414794
0.414926
0.415094
0.414893
0.414947
0.415185
0.415237
0.415199
0.415134
0.415126
0.415051
0.414891
0.414721
0.414789
0.41482
0.414786
0.414783
0.41473
0.414805
0.414802
0.414595
0.414592
0.414689
0.414716
0.414714
0.414457
0.414503
0.414607
0.414568
0.414604
0.414573
0.414515
0.414336
0.414172
0.414135
0.414067
0.414198
0.414338
0.414339
0.414339
0.414168
0.414229
0.414336