/*--------------------------------*- C++ -*----------------------------------*\
  =========                 |
  \\      /  F ield         | OpenFOAM: The Open Source CFD Toolbox
   \\    /   O peration     | Website:  https://openfoam.org
    \\  /    A nd           | Version:  11
     \\/     M anipulation  |
\*---------------------------------------------------------------------------*/
FoamFile
{
    format      ascii;
    class       volScalarField;
    location    "0.048";
    object      nut;
}
// * * * * * * * * * * * * * * * * * * * * * * * * * * * * * * * * * * * * * //

dimensions      [0 2 -1 0 0 0 0];

internalField   nonuniform List<scalar> 
287084
(
0.000836895
0.000869385
0.000894127
0.000907883
0.000913021
0.000914001
0.000914177
0.000914074
0.00091403
0.000914521
0.000914742
0.00091461
0.000914566
0.000914538
0.000914436
0.000913908
0.000913851
0.000914272
0.000913939
0.000914102
0.000914402
0.000914162
0.000914129
0.000914141
0.000914103
0.000913646
0.000913644
0.000914081
0.000914222
0.000914198
0.000914256
0.000914298
0.00091414
0.000913856
0.000914136
0.000914562
0.000914507
0.000914678
0.000914772
0.00091446
0.000914538
0.000914912
0.000914932
0.000914862
0.00091497
0.000915071
0.000914891
0.000915211
0.000915633
0.000915291
0.000915498
0.000915715
0.000915635
0.000915553
0.000915075
0.000915135
0.000915454
0.00091534
0.000915299
0.000915331
0.000915332
0.000914947
0.000915013
0.000915683
0.000915781
0.000915637
0.000915132
0.000915087
0.000915464
0.000915595
0.000915495
0.000915028
0.000915117
0.000915548
0.000915444
0.000915442
0.000915427
0.000915278
0.000915167
0.000915416
0.00091565
0.00091559
0.000915551
0.000915482
0.000915307
0.00091485
0.000914724
0.000915077
0.000915168
0.000914877
0.00118295
0.00122728
0.00126053
0.00127886
0.00128534
0.00128615
0.00128623
0.00128613
0.00128639
0.00128665
0.00128655
0.00128648
0.00128616
0.00128601
0.00128581
0.00128538
0.00128547
0.00128565
0.0012851
0.00128492
0.00128539
0.00128561
0.00128584
0.00128604
0.00128589
0.00128551
0.00128564
0.00128611
0.00128545
0.0012857
0.00128617
0.00128592
0.00128586
0.00128588
0.00128604
0.00128628
0.00128648
0.00128623
0.00128668
0.00128737
0.00128752
0.00128768
0.00128713
0.00128747
0.00128799
0.00128809
0.00128819
0.00128808
0.00128813
0.001288
0.00128744
0.0012874
0.00128785
0.00128792
0.00128782
0.00128761
0.00128767
0.00128735
0.0012876
0.00128819
0.00128785
0.00128804
0.00128811
0.00128795
0.00128748
0.00128762
0.00128817
0.00128812
0.0012881
0.00128765
0.001288
0.00128852
0.0012884
0.00128822
0.00128772
0.00128761
0.00128738
0.00128778
0.00128815
0.00128782
0.00128778
0.00128764
0.00128723
0.00128743
0.0012877
0.00128766
0.00128765
0.00128732
0.00128726
0.00128676
0.00118302
0.00122744
0.00126075
0.00127892
0.00128544
0.0012869
0.00128692
0.00128683
0.0012865
0.00128678
0.00128707
0.00128676
0.00128665
0.00128655
0.00128604
0.00128607
0.00128636
0.00128623
0.00128612
0.00128544
0.00128547
0.0012857
0.00128567
0.00128621
0.00128625
0.00128613
0.00128555
0.00128562
0.00128602
0.00128559
0.00128555
0.0012859
0.00128582
0.00128591
0.0012863
0.00128619
0.00128651
0.00128719
0.00128729
0.00128757
0.00128773
0.00128751
0.00128765
0.0012879
0.00128799
0.00128785
0.0012879
0.00128837
0.00128854
0.00128846
0.00128779
0.00128785
0.00128815
0.00128753
0.00128771
0.00128826
0.00128782
0.00128759
0.00128793
0.00128831
0.00128824
0.00128816
0.00128799
0.00128751
0.00128779
0.00128838
0.00128829
0.00128827
0.00128793
0.00128788
0.00128804
0.00128802
0.00128739
0.00128746
0.00128789
0.00128755
0.00128732
0.00128734
0.00128733
0.00128733
0.0012872
0.00128766
0.00128813
0.00128739
0.00128747
0.00128789
0.00128721
0.00128728
0.00128765
0.00128694
0.00118298
0.00122771
0.00126084
0.00127903
0.00128601
0.00128746
0.0012874
0.00128737
0.00128695
0.00128711
0.00128733
0.00128721
0.00128711
0.00128629
0.00128639
0.00128669
0.00128657
0.00128646
0.00128592
0.00128561
0.00128555
0.00128548
0.00128531
0.00128519
0.00128522
0.00128524
0.00128517
0.00128503
0.00128552
0.00128617
0.00128629
0.00128642
0.00128622
0.00128638
0.00128651
0.00128662
0.00128664
0.00128625
0.00128655
0.00128739
0.00128747
0.00128763
0.0012874
0.00128778
0.00128804
0.00128811
0.0012882
0.00128783
0.0012877
0.0012878
0.00128807
0.00128803
0.0012879
0.00128759
0.00128748
0.00128782
0.00128748
0.00128767
0.00128843
0.0012885
0.00128832
0.00128763
0.00128776
0.00128841
0.00128806
0.00128833
0.00128849
0.00128804
0.00128835
0.00128854
0.00128773
0.0012878
0.00128818
0.00128777
0.00128763
0.00128779
0.00128778
0.00128824
0.00128854
0.00128844
0.00128836
0.00128773
0.00128792
0.00128817
0.00128799
0.00128753
0.00128739
0.00128757
0.00128759
0.0012873
0.001183
0.00122778
0.00126088
0.00127922
0.00128612
0.00128703
0.00128658
0.00128682
0.00128728
0.00128651
0.00128663
0.00128704
0.00128699
0.00128675
0.00128592
0.00128602
0.0012861
0.00128577
0.00128567
0.00128557
0.00128515
0.00128514
0.00128576
0.00128553
0.00128559
0.00128555
0.00128511
0.00128512
0.00128557
0.00128565
0.00128582
0.00128597
0.00128571
0.00128593
0.0012867
0.00128647
0.00128692
0.00128765
0.00128786
0.00128804
0.00128757
0.00128744
0.00128781
0.00128807
0.00128803
0.0012875
0.00128762
0.00128804
0.00128748
0.00128762
0.00128815
0.00128811
0.00128818
0.00128804
0.00128749
0.00128757
0.00128822
0.001288
0.00128805
0.00128801
0.00128755
0.00128746
0.00128784
0.00128747
0.00128754
0.00128796
0.0012879
0.00128795
0.0012878
0.0012873
0.00128731
0.00128834
0.00128854
0.00128835
0.00128771
0.00128764
0.00128803
0.0012878
0.00128787
0.00128773
0.00128722
0.0012872
0.00128765
0.00128727
0.00128753
0.00128806
0.00128735
0.0012875
0.00128799
0.00128722
0.00118295
0.00122783
0.00126115
0.0012792
0.00128506
0.00128532
0.00128537
0.00128635
0.0012868
0.00128667
0.00128655
0.0012859
0.00128577
0.00128542
0.00128563
0.00128631
0.00128579
0.00128565
0.00128552
0.00128547
0.00128535
0.00128481
0.00128474
0.00128514
0.00128512
0.00128487
0.00128513
0.00128562
0.00128567
0.0012858
0.00128551
0.0012857
0.00128587
0.00128609
0.00128631
0.00128658
0.00128683
0.00128699
0.00128708
0.00128712
0.00128714
0.00128676
0.00128689
0.00128747
0.00128721
0.00128732
0.00128783
0.00128788
0.00128808
0.00128801
0.00128795
0.0012878
0.00128825
0.00128863
0.00128864
0.00128864
0.00128801
0.00128791
0.00128824
0.00128833
0.00128818
0.00128755
0.00128759
0.00128812
0.00128792
0.00128818
0.00128845
0.00128841
0.00128838
0.00128775
0.00128784
0.00128836
0.00128779
0.00128801
0.00128842
0.00128764
0.00128759
0.00128795
0.00128744
0.0012874
0.00128774
0.00128738
0.00128769
0.0012882
0.00128788
0.00128791
0.00128786
0.00128791
0.00128776
0.00128723
0.00118286
0.00122796
0.00126116
0.0012793
0.00128532
0.00128558
0.00128598
0.00128653
0.00128631
0.0012862
0.0012857
0.00128631
0.00128759
0.00128746
0.00128722
0.00128729
0.00128745
0.00128708
0.00128695
0.00128664
0.00128655
0.00128645
0.00128591
0.00128602
0.00128625
0.00128626
0.00128629
0.00128564
0.00128588
0.00128609
0.0012856
0.00128601
0.00128666
0.00128643
0.00128639
0.00128655
0.00128646
0.0012867
0.00128767
0.00128808
0.0012881
0.00128766
0.00128779
0.00128843
0.00128859
0.00128858
0.00128815
0.00128844
0.00128863
0.00128854
0.00128814
0.00128823
0.00128853
0.00128841
0.00128803
0.00128811
0.00128848
0.0012885
0.0012885
0.00128824
0.00128815
0.0012874
0.00128736
0.00128815
0.00128831
0.00128809
0.00128806
0.00128797
0.00128725
0.00128732
0.00128784
0.0012877
0.00128739
0.00128754
0.00128811
0.00128806
0.00128803
0.00128752
0.00128737
0.0012872
0.00128763
0.00128814
0.00128742
0.00128749
0.00128793
0.0012876
0.00128791
0.0012881
0.00128792
0.00128728
0.00118296
0.00122793
0.00126101
0.00127892
0.00128676
0.00128893
0.00128881
0.00128899
0.00128915
0.00128898
0.00128876
0.00128865
0.00128853
0.00128824
0.00128807
0.00128758
0.00128727
0.00128739
0.00128731
0.00128702
0.00128693
0.00128679
0.00128639
0.00128604
0.00128607
0.00128628
0.00128624
0.00128633
0.00128623
0.00128584
0.00128563
0.00128581
0.00128579
0.00128597
0.00128662
0.00128699
0.00128684
0.00128729
0.00128821
0.00128848
0.00128864
0.00128811
0.00128841
0.00128896
0.00128903
0.00128913
0.00128898
0.00128901
0.00128874
0.00128909
0.00128953
0.00128915
0.00128942
0.00128953
0.0012894
0.00128934
0.0012893
0.00128932
0.00128911
0.00128852
0.00128818
0.00128825
0.00128812
0.00128814
0.00128811
0.00128766
0.00128776
0.00128821
0.00128818
0.00128796
0.00128788
0.00128788
0.0012878
0.00128746
0.00128749
0.00128831
0.00128836
0.00128822
0.00128761
0.00128743
0.0012877
0.00128751
0.00128789
0.00128817
0.00128809
0.00128806
0.00128756
0.00128771
0.00128779
0.00128719
0.00118291
0.00122793
0.00126121
0.00127925
0.00128569
0.00128665
0.00128673
0.00128657
0.00128648
0.00128606
0.00128638
0.00128759
0.00128732
0.00128719
0.00128704
0.00128695
0.00128665
0.00128681
0.00128707
0.00128687
0.00128672
0.00128662
0.00128655
0.00128627
0.00128625
0.00128628
0.0012863
0.00128625
0.0012861
0.00128549
0.00128542
0.00128592
0.00128596
0.0012861
0.00128665
0.00128702
0.00128688
0.00128725
0.00128801
0.00128799
0.00128847
0.00128881
0.00128851
0.00128894
0.00128922
0.00128932
0.0012894
0.00128902
0.00128901
0.00128879
0.00128803
0.00128781
0.001288
0.00128803
0.00128774
0.0012878
0.00128849
0.00128853
0.00128838
0.00128771
0.00128771
0.00128834
0.00128834
0.00128819
0.00128757
0.00128752
0.00128801
0.00128771
0.00128806
0.00128844
0.00128843
0.0012884
0.00128766
0.00128782
0.00128824
0.00128779
0.00128819
0.00128851
0.00128847
0.00128844
0.00128765
0.00128762
0.00128802
0.00128775
0.00128797
0.00128804
0.00128774
0.00128773
0.00128768
0.00128704
0.00118285
0.00122787
0.00126156
0.0012789
0.00128559
0.00128666
0.00128653
0.00128606
0.00128599
0.00128689
0.00128694
0.00128661
0.00128582
0.00128567
0.00128638
0.00128637
0.00128611
0.00128596
0.0012856
0.00128473
0.00128477
0.00128525
0.0012851
0.00128478
0.00128482
0.00128523
0.00128471
0.00128502
0.00128574
0.00128562
0.00128549
0.00128579
0.00128624
0.00128625
0.00128674
0.0012871
0.00128724
0.00128703
0.00128736
0.00128777
0.00128762
0.00128767
0.00128766
0.0012872
0.00128736
0.00128792
0.00128796
0.00128803
0.00128796
0.00128765
0.00128789
0.00128811
0.00128801
0.00128786
0.00128751
0.00128771
0.00128776
0.00128747
0.00128774
0.00128831
0.0012883
0.00128826
0.00128752
0.00128767
0.00128795
0.00128736
0.00128761
0.00128813
0.0012877
0.00128764
0.00128758
0.0012871
0.001287
0.0012875
0.00128756
0.00128723
0.00128748
0.00128797
0.00128796
0.00128794
0.00128724
0.00128741
0.00128804
0.00128809
0.00128809
0.00128779
0.00128745
0.00128763
0.00128779
0.00128721
0.00118294
0.00122784
0.00126125
0.00127929
0.00128602
0.00128693
0.00128679
0.00128628
0.00128626
0.00128668
0.00128652
0.00128626
0.00128617
0.00128645
0.00128613
0.00128581
0.00128612
0.00128638
0.00128613
0.0012861
0.00128582
0.0012854
0.00128524
0.00128511
0.00128511
0.00128514
0.00128487
0.00128501
0.00128517
0.00128513
0.00128523
0.00128598
0.00128653
0.00128679
0.00128712
0.00128724
0.00128741
0.00128756
0.00128757
0.0012875
0.00128755
0.00128718
0.0012873
0.00128788
0.00128803
0.00128801
0.00128847
0.00128896
0.0012889
0.00128874
0.00128848
0.00128836
0.00128826
0.00128801
0.00128807
0.00128843
0.00128831
0.00128781
0.00128792
0.00128825
0.00128822
0.00128818
0.00128752
0.00128776
0.00128805
0.00128793
0.00128788
0.00128733
0.00128756
0.00128795
0.00128786
0.00128767
0.00128784
0.00128839
0.0012877
0.00128774
0.00128819
0.0012877
0.00128796
0.00128839
0.0012877
0.00128794
0.00128836
0.0012879
0.00128758
0.00128761
0.00128784
0.00128777
0.00128772
0.00128712
0.00118289
0.00122796
0.00126112
0.00127937
0.00128595
0.00128693
0.00128731
0.00128713
0.0012869
0.0012865
0.00128648
0.00128738
0.00128701
0.00128724
0.00128752
0.00128694
0.00128677
0.00128655
0.00128597
0.00128604
0.0012862
0.00128536
0.00128548
0.0012859
0.00128573
0.00128575
0.00128589
0.00128597
0.00128554
0.00128553
0.00128563
0.00128565
0.00128574
0.00128595
0.00128621
0.00128641
0.00128664
0.00128652
0.00128679
0.00128742
0.00128729
0.00128746
0.001288
0.00128813
0.00128838
0.00128835
0.0012882
0.00128811
0.00128865
0.00128912
0.00128893
0.001289
0.00128904
0.00128909
0.00128885
0.00128799
0.00128805
0.00128833
0.00128808
0.00128774
0.00128797
0.00128851
0.00128799
0.00128825
0.00128844
0.00128835
0.00128829
0.00128769
0.00128801
0.0012884
0.00128832
0.00128827
0.0012876
0.00128776
0.00128796
0.00128783
0.00128772
0.00128721
0.00128759
0.00128815
0.001288
0.00128747
0.00128748
0.00128797
0.00128802
0.00128797
0.00128723
0.00128739
0.0012879
0.00128713
0.00118296
0.00122794
0.00126105
0.00127891
0.00128695
0.00128878
0.00128857
0.0012885
0.00128815
0.00128831
0.00128832
0.00128758
0.00128766
0.00128776
0.00128709
0.00128717
0.00128716
0.00128667
0.00128646
0.00128609
0.00128622
0.00128623
0.00128544
0.00128556
0.00128573
0.00128571
0.00128577
0.00128573
0.00128583
0.00128536
0.00128536
0.0012859
0.00128632
0.00128662
0.00128687
0.00128755
0.00128808
0.00128825
0.00128809
0.00128819
0.00128876
0.00128907
0.00128912
0.00128868
0.00128895
0.00128957
0.00128955
0.00128948
0.0012892
0.00128916
0.00128907
0.00128908
0.00128904
0.00128857
0.00128868
0.0012889
0.00128872
0.00128841
0.00128805
0.00128855
0.00128886
0.00128866
0.00128804
0.00128789
0.00128824
0.00128775
0.00128782
0.00128821
0.00128816
0.00128795
0.00128792
0.00128792
0.00128784
0.00128748
0.00128751
0.00128834
0.00128837
0.00128821
0.00128753
0.00128756
0.00128804
0.00128804
0.001288
0.00128733
0.00128726
0.00128776
0.00128768
0.00128767
0.00128765
0.00128718
0.00118288
0.00122786
0.00126141
0.00127937
0.00128518
0.00128551
0.00128571
0.00128646
0.00128612
0.00128599
0.00128583
0.00128555
0.00128517
0.00128503
0.00128482
0.00128515
0.00128546
0.00128494
0.0012849
0.00128476
0.00128424
0.00128436
0.00128508
0.00128456
0.00128486
0.00128527
0.0012849
0.00128499
0.00128519
0.00128545
0.00128543
0.00128586
0.00128629
0.00128619
0.00128667
0.00128756
0.00128797
0.00128828
0.00128855
0.00128877
0.00128897
0.00128916
0.00128941
0.00128965
0.0012897
0.00128984
0.00128976
0.00128973
0.00128963
0.00128945
0.00128884
0.0012885
0.00128885
0.00128901
0.00128884
0.00128858
0.00128815
0.00128844
0.00128879
0.00128863
0.0012884
0.00128786
0.00128804
0.00128842
0.00128823
0.00128764
0.00128769
0.00128824
0.0012882
0.00128816
0.0012879
0.00128765
0.00128748
0.00128723
0.00128756
0.00128837
0.00128782
0.0012881
0.00128855
0.00128813
0.00128834
0.00128843
0.00128831
0.00128823
0.00128769
0.00128789
0.00128852
0.00128847
0.00128839
0.00128756
0.00118297
0.00122794
0.00126104
0.00127896
0.0012868
0.00128897
0.00128894
0.00128884
0.00128851
0.00128867
0.00128867
0.00128809
0.001288
0.00128784
0.00128756
0.00128737
0.00128699
0.00128619
0.00128613
0.00128618
0.00128583
0.00128566
0.00128549
0.00128552
0.00128533
0.00128522
0.00128521
0.00128541
0.00128555
0.00128589
0.00128603
0.00128586
0.00128596
0.00128626
0.00128654
0.00128694
0.00128716
0.00128703
0.00128721
0.00128774
0.00128774
0.00128792
0.00128867
0.0012892
0.00128915
0.00128882
0.00128862
0.00128874
0.00128863
0.00128899
0.00128917
0.00128865
0.00128889
0.00128929
0.00128914
0.00128897
0.00128818
0.00128805
0.00128856
0.00128837
0.00128867
0.00128923
0.00128899
0.0012889
0.00128875
0.00128873
0.0012887
0.00128862
0.00128844
0.00128793
0.00128797
0.00128801
0.00128786
0.00128749
0.00128753
0.00128835
0.00128837
0.00128822
0.00128753
0.00128763
0.00128814
0.00128823
0.00128809
0.00128783
0.00128777
0.00128716
0.00128739
0.00128787
0.00128773
0.00128723
0.00118308
0.0012278
0.00126096
0.00127945
0.00128589
0.00128642
0.00128679
0.00128725
0.0012865
0.00128656
0.0012868
0.00128654
0.00128634
0.00128572
0.00128573
0.00128587
0.00128548
0.00128468
0.00128453
0.00128465
0.00128442
0.00128412
0.00128414
0.00128455
0.00128384
0.00128392
0.00128447
0.00128462
0.00128454
0.00128497
0.00128565
0.00128542
0.0012861
0.00128693
0.0012871
0.00128755
0.00128765
0.00128799
0.00128834
0.00128851
0.00128855
0.00128868
0.00128878
0.00128884
0.00128876
0.00128842
0.00128809
0.00128873
0.00128931
0.00128891
0.00128907
0.00128908
0.00128892
0.00128856
0.00128897
0.00128998
0.00128954
0.00128977
0.00129041
0.00129031
0.00129008
0.00128939
0.00128948
0.00128962
0.00128954
0.00128949
0.00128934
0.00128927
0.0012889
0.00128866
0.00128793
0.00128772
0.00128831
0.00128848
0.00128828
0.00128765
0.00128776
0.00128805
0.00128764
0.00128737
0.00128782
0.00128826
0.00128811
0.00128774
0.00128752
0.00128768
0.00128772
0.00128772
0.00128757
0.00128711
0.00118301
0.00122795
0.00126095
0.00127887
0.00128662
0.00128932
0.00128949
0.00128948
0.00128922
0.00128886
0.00128873
0.00128858
0.00128841
0.001288
0.00128712
0.00128695
0.0012868
0.00128583
0.00128579
0.00128588
0.00128488
0.00128479
0.00128505
0.00128474
0.00128472
0.00128478
0.00128484
0.00128485
0.00128471
0.00128509
0.00128558
0.00128587
0.00128607
0.0012861
0.00128665
0.00128716
0.00128752
0.0012879
0.00128806
0.00128824
0.00128827
0.00128797
0.00128843
0.00128895
0.00128901
0.00128905
0.00128845
0.0012887
0.00128911
0.00128861
0.0012889
0.00128912
0.0012883
0.00128817
0.00128883
0.00128879
0.00128921
0.00128971
0.00128902
0.00128922
0.00128956
0.00128883
0.00128901
0.00128921
0.0012888
0.00128882
0.00128864
0.00128804
0.00128807
0.00128831
0.00128773
0.00128792
0.00128805
0.00128799
0.00128795
0.00128726
0.00128731
0.00128817
0.00128819
0.00128807
0.00128798
0.00128768
0.00128758
0.00128729
0.00128764
0.00128811
0.00128744
0.00128769
0.00128814
0.00128729
0.00118297
0.00122794
0.00126102
0.00127898
0.00128665
0.00128955
0.00128958
0.00128935
0.00128921
0.00128899
0.00128876
0.00128836
0.00128808
0.00128758
0.00128737
0.00128713
0.0012864
0.00128632
0.00128622
0.00128529
0.0012853
0.00128545
0.00128503
0.00128496
0.00128489
0.00128483
0.00128485
0.00128499
0.00128456
0.00128473
0.00128524
0.00128542
0.00128583
0.00128627
0.00128667
0.0012871
0.00128738
0.0012873
0.00128747
0.00128798
0.00128825
0.00128834
0.00128864
0.00128908
0.00128914
0.00128929
0.00128907
0.00128922
0.00128939
0.00128931
0.00128925
0.00128853
0.00128853
0.00128926
0.00128903
0.00128937
0.00128983
0.00128949
0.00128958
0.00128959
0.00128941
0.00128918
0.00128902
0.00128882
0.00128833
0.00128847
0.00128874
0.00128809
0.00128796
0.00128845
0.00128869
0.00128858
0.00128853
0.00128821
0.00128789
0.00128805
0.00128838
0.00128829
0.00128829
0.00128808
0.00128736
0.00128749
0.0012881
0.0012881
0.00128806
0.00128729
0.00128722
0.00128766
0.00128768
0.0012873
0.00118301
0.00122795
0.00126095
0.00127884
0.00128671
0.00128892
0.00128876
0.00128897
0.00128899
0.00128849
0.00128834
0.00128812
0.00128787
0.00128713
0.00128701
0.00128686
0.00128586
0.00128579
0.00128586
0.00128481
0.00128465
0.00128486
0.00128447
0.0012844
0.00128423
0.00128399
0.00128393
0.00128413
0.00128444
0.00128484
0.00128513
0.00128529
0.00128549
0.00128644
0.00128737
0.00128765
0.00128827
0.00128893
0.00128923
0.00128933
0.00128904
0.00128888
0.00128889
0.00128869
0.00128847
0.00128841
0.0012885
0.00128839
0.00128869
0.00128931
0.00128917
0.00128899
0.00128843
0.00128825
0.00128894
0.00128906
0.00128937
0.00128989
0.00128952
0.00128965
0.00128965
0.00128955
0.0012894
0.00128924
0.00128915
0.00128861
0.00128871
0.00128891
0.00128826
0.00128817
0.0012885
0.0012885
0.00128831
0.00128832
0.00128831
0.00128826
0.0012877
0.00128787
0.00128812
0.00128798
0.00128774
0.00128741
0.00128743
0.00128708
0.00128737
0.00128784
0.00128722
0.00128709
0.00128731
0.0012869
0.00118299
0.00122802
0.00126073
0.00127932
0.00128642
0.00128778
0.00128779
0.00128752
0.00128694
0.00128699
0.00128708
0.00128679
0.00128652
0.00128582
0.00128577
0.00128575
0.00128526
0.00128498
0.00128468
0.00128432
0.00128386
0.00128415
0.00128474
0.00128447
0.00128443
0.00128449
0.00128456
0.00128412
0.00128414
0.00128458
0.00128491
0.00128545
0.0012859
0.00128616
0.00128661
0.00128714
0.00128746
0.00128786
0.00128813
0.00128805
0.00128821
0.00128856
0.00128869
0.00128886
0.00128902
0.00128912
0.00128909
0.00128894
0.00128854
0.00128843
0.00128932
0.00129132
0.00129141
0.00129125
0.00129098
0.00129107
0.00129107
0.00129094
0.00129085
0.00129008
0.00129014
0.00129027
0.00128984
0.00128976
0.00128965
0.00128954
0.00128938
0.00128918
0.00128933
0.00128938
0.00128916
0.00128866
0.00128848
0.00128849
0.00128834
0.00128842
0.00128841
0.00128825
0.00128827
0.00128808
0.00128738
0.00128754
0.00128785
0.00128723
0.00128713
0.0012874
0.00128727
0.00128727
0.00128726
0.00128688
0.00118296
0.00122786
0.00126119
0.00127929
0.00128565
0.00128636
0.00128578
0.00128564
0.00128595
0.0012858
0.00128566
0.00128544
0.00128473
0.00128462
0.0012853
0.00128507
0.00128465
0.00128391
0.00128386
0.00128469
0.00128513
0.00128483
0.00128434
0.00128419
0.00128401
0.00128358
0.00128374
0.00128436
0.00128454
0.00128498
0.00128527
0.00128511
0.00128563
0.00128659
0.00128663
0.00128725
0.00128823
0.00128877
0.00128913
0.00128868
0.00128898
0.00128949
0.00128961
0.00128972
0.00128918
0.00128944
0.00128965
0.00128952
0.00128932
0.00128897
0.0012888
0.00128854
0.0012883
0.00128849
0.0012888
0.00128853
0.00128849
0.00128839
0.00128793
0.00128765
0.00128774
0.00128759
0.00128745
0.00128746
0.00128737
0.00128772
0.00128786
0.00128722
0.00128734
0.00128815
0.0012883
0.00128827
0.0012882
0.00128824
0.00128807
0.00128754
0.0012876
0.00128835
0.00128846
0.00128835
0.00128821
0.00128803
0.00128726
0.0012874
0.00128781
0.00128742
0.00128716
0.00128744
0.00128763
0.00128713
0.00118297
0.00122794
0.00126104
0.00127887
0.00128698
0.00128868
0.00128847
0.00128839
0.00128805
0.00128778
0.00128742
0.0012875
0.00128746
0.00128704
0.0012863
0.00128607
0.001286
0.0012855
0.00128522
0.00128477
0.00128479
0.00128489
0.00128464
0.00128453
0.00128437
0.0012843
0.00128428
0.00128417
0.00128407
0.00128462
0.0012852
0.00128526
0.00128612
0.00128685
0.00128743
0.00128798
0.00128754
0.00128794
0.00128846
0.00128858
0.00128891
0.00128904
0.00128911
0.00128912
0.00128915
0.00128865
0.00128889
0.00128943
0.0012893
0.00128924
0.00128874
0.00128887
0.00129057
0.00129143
0.00129121
0.00129118
0.00129095
0.001291
0.00129106
0.00129095
0.00129084
0.00129066
0.00129021
0.00129023
0.0012902
0.0012894
0.00128948
0.00128966
0.00128898
0.00128922
0.00128955
0.00128908
0.00128928
0.00128954
0.00128936
0.00128932
0.00128934
0.00128935
0.00128912
0.00128885
0.00128853
0.0012877
0.00128748
0.00128798
0.00128812
0.00128795
0.00128729
0.00128741
0.0012878
0.00128702
0.00118297
0.00122794
0.00126102
0.00127895
0.00128673
0.00128913
0.00128907
0.00128869
0.00128879
0.00128873
0.00128827
0.00128812
0.00128769
0.0012873
0.00128667
0.00128659
0.00128644
0.00128542
0.00128534
0.00128541
0.00128508
0.0012847
0.00128462
0.0012847
0.00128465
0.0012847
0.00128472
0.0012849
0.00128451
0.00128467
0.00128513
0.00128537
0.0012858
0.00128644
0.00128708
0.00128745
0.00128808
0.00128866
0.00128864
0.00128932
0.00128991
0.00129014
0.00129032
0.00128965
0.0012899
0.0012902
0.00128994
0.00129008
0.00129009
0.0012899
0.0012892
0.00128912
0.00129057
0.00129156
0.0012912
0.00129141
0.00129148
0.00129118
0.00129105
0.00129087
0.0012908
0.00129055
0.00129058
0.00129054
0.0012898
0.00128988
0.00129003
0.00128941
0.00128965
0.00128988
0.00128973
0.00128968
0.00128965
0.00128964
0.00128949
0.00128941
0.00128905
0.00128902
0.00128882
0.00128883
0.00128876
0.00128842
0.00128812
0.00128795
0.00128763
0.00128742
0.00128788
0.00128817
0.00128799
0.00128735
0.00118295
0.00122781
0.00126135
0.00127925
0.00128541
0.00128698
0.00128685
0.00128642
0.00128594
0.00128585
0.00128584
0.00128547
0.00128486
0.00128506
0.00128627
0.00128566
0.00128542
0.00128609
0.00128601
0.00128555
0.00128476
0.00128459
0.00128471
0.00128379
0.00128369
0.00128403
0.00128414
0.00128448
0.00128475
0.00128505
0.00128526
0.0012857
0.00128623
0.00128668
0.00128687
0.00128737
0.00128778
0.00128771
0.00128826
0.00128925
0.0012897
0.00128982
0.00128991
0.00129004
0.00128995
0.00129001
0.00128988
0.00128956
0.00128973
0.00128986
0.00128901
0.00128909
0.00128926
0.00128907
0.00128886
0.00128857
0.00128892
0.00128885
0.00128882
0.00128873
0.00128869
0.00128835
0.00128857
0.00128905
0.001289
0.00128894
0.00128822
0.00128836
0.00128886
0.00128861
0.00128864
0.00128859
0.00128839
0.00128804
0.00128819
0.00128827
0.0012878
0.00128804
0.0012885
0.00128772
0.00128773
0.00128806
0.00128741
0.00128754
0.00128802
0.00128808
0.00128794
0.00128776
0.00128771
0.00128692
0.00118296
0.00122798
0.00126088
0.00127925
0.00128655
0.00128769
0.00128809
0.00128808
0.00128732
0.00128738
0.00128757
0.00128729
0.00128702
0.00128644
0.00128612
0.00128574
0.00128488
0.00128465
0.00128474
0.00128438
0.00128409
0.00128341
0.00128362
0.00128388
0.00128325
0.0012836
0.00128421
0.00128417
0.00128409
0.00128458
0.00128516
0.00128511
0.00128596
0.00128672
0.00128731
0.00128791
0.00128811
0.00128856
0.00128872
0.00128839
0.00128836
0.00128869
0.00128871
0.00128864
0.00128883
0.00128908
0.00128903
0.00128897
0.00128841
0.00128828
0.00128914
0.00128924
0.00128905
0.00128889
0.00128828
0.0012884
0.00128856
0.00128802
0.00128828
0.0012887
0.00128852
0.00128843
0.00128829
0.00128821
0.00128778
0.00128743
0.00128736
0.00128707
0.00128704
0.00128779
0.00128807
0.00128794
0.00128764
0.00128772
0.00128779
0.0012873
0.00128759
0.00128777
0.0012875
0.00128715
0.00128741
0.00128803
0.00128801
0.00128798
0.00128759
0.00128746
0.001287
0.00128679
0.00128696
0.00128665
0.00118297
0.00122794
0.00126102
0.0012789
0.00128687
0.00128878
0.00128855
0.00128845
0.00128819
0.00128827
0.00128817
0.00128758
0.00128755
0.00128741
0.00128702
0.00128671
0.00128628
0.00128579
0.00128498
0.0012848
0.00128491
0.00128437
0.00128447
0.00128446
0.00128426
0.00128431
0.00128426
0.00128396
0.00128394
0.00128438
0.00128481
0.00128544
0.00128601
0.00128647
0.00128646
0.00128701
0.00128794
0.0012885
0.00128882
0.00128863
0.00128881
0.001289
0.00128923
0.00128935
0.00128906
0.00128905
0.00128866
0.00128892
0.00128956
0.00128942
0.00128935
0.00128906
0.00128899
0.00128894
0.00128891
0.00128863
0.00128791
0.00128796
0.0012885
0.00128837
0.00128799
0.00128804
0.00128863
0.00128871
0.00128852
0.00128821
0.00128809
0.00128744
0.00128725
0.00128757
0.00128764
0.00128731
0.00128758
0.00128809
0.00128806
0.00128802
0.00128766
0.00128757
0.00128724
0.00128699
0.00128704
0.00128683
0.00128718
0.00128778
0.00128773
0.00128772
0.0012872
0.00128751
0.00128781
0.00128717
0.00118297
0.00122794
0.00126102
0.00127896
0.00128663
0.00128952
0.00128953
0.00128908
0.0012889
0.00128853
0.00128844
0.00128823
0.00128779
0.00128751
0.0012872
0.00128649
0.00128634
0.00128619
0.00128518
0.00128511
0.00128524
0.0012843
0.00128425
0.00128466
0.00128462
0.00128467
0.00128479
0.00128507
0.00128539
0.00128587
0.00128625
0.00128647
0.00128678
0.00128714
0.00128688
0.00128743
0.0012884
0.00128892
0.00128925
0.00128954
0.00128931
0.00128951
0.0012899
0.00128996
0.00128982
0.0012896
0.00128969
0.00128971
0.00128952
0.0012891
0.00128885
0.00128951
0.0012917
0.00129183
0.00129137
0.0012915
0.0012915
0.00129115
0.00129104
0.00129101
0.00129099
0.00129078
0.00129061
0.00129039
0.00128971
0.00128978
0.00128992
0.00128923
0.00128946
0.0012897
0.00128935
0.00128939
0.00128917
0.00128905
0.001289
0.00128848
0.00128857
0.00128871
0.00128847
0.00128839
0.00128845
0.00128846
0.00128787
0.00128803
0.0012882
0.0012881
0.00128805
0.00128764
0.00128749
0.00128688
0.00118297
0.00122794
0.00126102
0.00127895
0.00128673
0.00128914
0.00128908
0.00128869
0.0012888
0.00128875
0.00128828
0.00128812
0.00128769
0.00128731
0.00128668
0.00128659
0.00128645
0.00128542
0.00128534
0.00128542
0.00128494
0.00128481
0.00128474
0.00128453
0.00128444
0.00128449
0.00128457
0.00128464
0.00128449
0.00128463
0.00128499
0.00128519
0.00128572
0.00128648
0.00128714
0.00128748
0.00128807
0.00128865
0.00128865
0.00128933
0.00128992
0.00129015
0.00129032
0.00128966
0.0012899
0.00129019
0.00129015
0.00129017
0.00129006
0.00128993
0.00128921
0.00128918
0.00129063
0.00129109
0.00129092
0.00129076
0.0012908
0.00129079
0.00129052
0.0012904
0.00128982
0.00128999
0.00129015
0.0012895
0.00128969
0.00128982
0.00128946
0.00128946
0.00128936
0.00128878
0.00128887
0.00128909
0.00128903
0.001289
0.00128878
0.00128867
0.00128803
0.00128773
0.00128783
0.00128758
0.00128793
0.00128824
0.00128762
0.00128788
0.00128812
0.00128803
0.00128797
0.00128771
0.00128754
0.00128692
0.00118297
0.00122794
0.00126104
0.00127887
0.00128697
0.00128868
0.00128836
0.00128836
0.00128841
0.00128815
0.00128798
0.00128761
0.00128691
0.00128687
0.00128691
0.00128649
0.00128575
0.00128554
0.00128545
0.00128493
0.00128469
0.00128453
0.00128431
0.00128354
0.00128367
0.00128397
0.0012835
0.00128405
0.00128488
0.00128529
0.00128582
0.00128611
0.00128667
0.00128731
0.00128789
0.0012881
0.00128848
0.00128868
0.00128814
0.00128848
0.00128899
0.00128927
0.00128946
0.00128929
0.0012893
0.00128869
0.00128884
0.00128961
0.00128961
0.0012894
0.00128881
0.00128886
0.00129064
0.00129122
0.00129104
0.00129083
0.00129077
0.00129083
0.00129073
0.00129064
0.00128996
0.00128976
0.00129001
0.00129001
0.00128982
0.00128916
0.00128913
0.00128931
0.00128863
0.00128876
0.00128922
0.00128919
0.00128914
0.00128854
0.00128827
0.0012886
0.00128885
0.00128867
0.00128869
0.0012887
0.00128861
0.00128811
0.00128771
0.00128769
0.00128757
0.00128744
0.00128785
0.00128812
0.00128793
0.00128728
0.00118296
0.00122785
0.00126122
0.0012792
0.00128573
0.00128669
0.00128651
0.00128591
0.00128566
0.00128638
0.00128651
0.00128612
0.00128532
0.00128509
0.00128531
0.00128481
0.00128472
0.00128452
0.0012839
0.00128383
0.00128373
0.00128377
0.0012844
0.0012837
0.00128388
0.00128444
0.00128404
0.00128409
0.00128474
0.00128526
0.00128561
0.00128585
0.0012862
0.00128677
0.00128723
0.00128739
0.00128787
0.00128866
0.00128913
0.00128927
0.00128973
0.00129004
0.00128993
0.00129005
0.00129013
0.00129021
0.00129029
0.00129034
0.00128996
0.00128992
0.00128993
0.0012898
0.00128965
0.001289
0.00128828
0.00128831
0.00128835
0.00128783
0.00128791
0.00128865
0.0012886
0.0012884
0.00128779
0.0012878
0.00128848
0.00128842
0.00128849
0.00128845
0.00128832
0.00128806
0.00128839