/*--------------------------------*- C++ -*----------------------------------*\
  =========                 |
  \\      /  F ield         | OpenFOAM: The Open Source CFD Toolbox
   \\    /   O peration     | Website:  https://openfoam.org
    \\  /    A nd           | Version:  11
     \\/     M anipulation  |
\*---------------------------------------------------------------------------*/
FoamFile
{
    format      ascii;
    class       volScalarField;
    location    "0.048";
    object      omega;
}
// * * * * * * * * * * * * * * * * * * * * * * * * * * * * * * * * * * * * * //

dimensions      [0 0 -1 0 0 0 0];

internalField   nonuniform List<scalar> 
287084
(
55.0344
56.0548
56.7633
57.1184
57.2302
57.2392
57.2359
57.2251
57.2245
57.243
57.2484
57.2469
57.247
57.2454
57.2416
57.2288
57.2316
57.2485
57.2382
57.2452
57.2555
57.2508
57.2519
57.2502
57.2475
57.2352
57.237
57.2494
57.2532
57.2507
57.2467
57.2446
57.2334
57.2222
57.229
57.2375
57.2329
57.2349
57.2315
57.2166
57.2173
57.2264
57.2194
57.2144
57.2152
57.2157
57.2096
57.2177
57.2281
57.2164
57.2216
57.224
57.2241
57.2241
57.2073
57.2104
57.2217
57.2159
57.2153
57.2167
57.2168
57.2065
57.2103
57.2309
57.2333
57.2291
57.2138
57.2154
57.2261
57.2268
57.2269
57.2144
57.2183
57.2323
57.2294
57.2299
57.2298
57.2215
57.2192
57.2295
57.2359
57.2336
57.2299
57.2285
57.2244
57.2082
57.2065
57.2195
57.221
57.2144
55.038
56.0457
56.7533
57.1164
57.2291
57.237
57.2354
57.2324
57.2393
57.2447
57.2427
57.242
57.2356
57.2323
57.2297
57.2255
57.2312
57.2368
57.2248
57.224
57.2385
57.2412
57.2479
57.255
57.2524
57.2436
57.247
57.2566
57.2397
57.2433
57.2503
57.2394
57.2325
57.2325
57.2354
57.2337
57.2313
57.2237
57.231
57.2415
57.24
57.2397
57.2248
57.2296
57.2376
57.2367
57.2365
57.2314
57.2312
57.2271
57.2134
57.2139
57.2246
57.2238
57.2176
57.2141
57.219
57.211
57.2168
57.2294
57.2226
57.2262
57.2274
57.2243
57.2145
57.2195
57.2321
57.2298
57.2296
57.2217
57.2299
57.2408
57.2377
57.2302
57.2223
57.2233
57.2187
57.2274
57.2346
57.2262
57.2262
57.2255
57.2163
57.2202
57.2255
57.2244
57.2242
57.2159
57.2146
57.2054
55.0381
56.0449
56.7529
57.1131
57.2292
57.2524
57.2503
57.2443
57.2394
57.2482
57.255
57.2511
57.2514
57.2505
57.2403
57.2435
57.2525
57.2525
57.2524
57.2379
57.24
57.2434
57.2459
57.2601
57.261
57.2604
57.2454
57.2468
57.2543
57.2379
57.2361
57.2446
57.235
57.2339
57.2419
57.2337
57.2365
57.2477
57.2457
57.2481
57.2451
57.236
57.2367
57.2393
57.2382
57.2321
57.2324
57.2394
57.2405
57.2392
57.2214
57.2231
57.2291
57.2139
57.2182
57.2302
57.2167
57.2131
57.223
57.2307
57.2281
57.2236
57.2207
57.2131
57.2216
57.2348
57.2346
57.2347
57.2265
57.2265
57.2312
57.2296
57.2144
57.2175
57.2277
57.2173
57.2134
57.2174
57.2173
57.2175
57.2145
57.2246
57.2341
57.2176
57.2206
57.2305
57.2143
57.2169
57.2256
57.2093
55.0369
56.0477
56.7487
57.1098
57.2368
57.2603
57.2567
57.2565
57.25
57.2544
57.2601
57.2587
57.2581
57.2433
57.2484
57.2568
57.2561
57.2558
57.2444
57.2411
57.2419
57.2421
57.239
57.2377
57.2389
57.2392
57.2382
57.2337
57.2437
57.2546
57.2536
57.2529
57.2436
57.2413
57.2398
57.2375
57.2341
57.2234
57.2279
57.2427
57.2375
57.2371
57.2302
57.235
57.2372
57.2357
57.2352
57.2234
57.2205
57.2219
57.2236
57.2245
57.2216
57.2108
57.2105
57.2217
57.2123
57.2169
57.2315
57.2336
57.2306
57.2148
57.2199
57.235
57.2273
57.2328
57.2361
57.2276
57.2347
57.2384
57.2211
57.2241
57.2332
57.2212
57.2196
57.2271
57.2267
57.2364
57.2419
57.239
57.2345
57.2235
57.2294
57.2347
57.2309
57.2175
57.2173
57.2251
57.2247
57.2183
55.0369
56.0477
56.7473
57.1115
57.2357
57.2476
57.2382
57.2448
57.2554
57.2399
57.2449
57.2526
57.2528
57.2528
57.2378
57.2428
57.2463
57.2437
57.2446
57.2424
57.2348
57.2382
57.2544
57.2493
57.2517
57.2487
57.2374
57.2383
57.2475
57.2462
57.2472
57.2461
57.2352
57.237
57.2509
57.2389
57.2442
57.255
57.2543
57.2531
57.2362
57.2317
57.2375
57.2393
57.2362
57.2211
57.2232
57.231
57.2155
57.2184
57.2296
57.2252
57.2241
57.2208
57.2101
57.2138
57.2293
57.2236
57.2258
57.2228
57.2123
57.2128
57.223
57.2132
57.2156
57.2256
57.2222
57.2209
57.218
57.2102
57.2135
57.2365
57.2397
57.2356
57.2213
57.2226
57.2325
57.224
57.2233
57.223
57.2136
57.2146
57.2262
57.2159
57.2217
57.2331
57.2174
57.2217
57.2326
57.2153
55.0357
56.0486
56.7517
57.107
57.2095
57.2092
57.2107
57.2342
57.2437
57.2418
57.2405
57.2271
57.2252
57.2232
57.2332
57.2502
57.2419
57.2426
57.2423
57.2439
57.2409
57.2302
57.2321
57.2428
57.2426
57.2364
57.2407
57.2496
57.2477
57.2454
57.2386
57.2417
57.2411
57.2415
57.2415
57.2396
57.2369
57.2352
57.2321
57.2283
57.2249
57.2151
57.2167
57.2273
57.2172
57.2179
57.228
57.2238
57.2236
57.2235
57.2206
57.217
57.2287
57.2356
57.235
57.2347
57.2186
57.2186
57.2275
57.2287
57.2278
57.2129
57.2155
57.2288
57.224
57.2292
57.2348
57.2339
57.2336
57.2212
57.2247
57.2372
57.2238
57.2292
57.238
57.2209
57.2218
57.2312
57.2181
57.2186
57.2275
57.2181
57.2249
57.2358
57.23
57.2318
57.2279
57.2259
57.2256
57.2162
55.0335
56.0511
56.7511
57.1082
57.2144
57.214
57.2224
57.2352
57.2308
57.2303
57.2235
57.2426
57.2719
57.2696
57.267
57.2729
57.2788
57.2753
57.2758
57.2711
57.2721
57.2711
57.2594
57.2626
57.2679
57.2675
57.2674
57.2521
57.2551
57.2564
57.2426
57.2481
57.2572
57.2446
57.2398
57.2411
57.2327
57.2337
57.2496
57.252
57.2481
57.2336
57.235
57.244
57.2443
57.2442
57.2311
57.2353
57.2375
57.2342
57.2243
57.2267
57.2331
57.228
57.2196
57.2231
57.2315
57.2313
57.2313
57.2252
57.2235
57.2083
57.2102
57.2276
57.2302
57.2278
57.2284
57.2251
57.2084
57.2123
57.2247
57.2191
57.2129
57.2187
57.2315
57.2295
57.2259
57.2176
57.2176
57.2139
57.2236
57.2339
57.2181
57.2208
57.2313
57.2237
57.2302
57.2337
57.2296
57.2159
55.036
56.0497
56.7465
57.1015
57.249
57.2879
57.2855
57.2899
57.2948
57.2927
57.2906
57.2911
57.2913
57.2875
57.2849
57.2766
57.2755
57.2824
57.2829
57.2816
57.2827
57.2793
57.2685
57.2643
57.2666
57.2709
57.2687
57.2681
57.264
57.249
57.2433
57.246
57.2369
57.2362
57.2465
57.2477
57.2401
57.2452
57.2605
57.2592
57.2563
57.2416
57.2456
57.2545
57.2518
57.2514
57.2451
57.2449
57.2395
57.246
57.2543
57.2464
57.2512
57.2527
57.2492
57.2484
57.2487
57.2495
57.2441
57.2279
57.2239
57.2298
57.2266
57.2281
57.2274
57.2169
57.2203
57.231
57.229
57.2244
57.2246
57.2254
57.2217
57.2145
57.2185
57.2355
57.2366
57.2361
57.2182
57.2163
57.2266
57.2213
57.2293
57.2346
57.2322
57.229
57.2207
57.225
57.2267
57.2151
55.0346
56.05
56.7511
57.1065
57.2204
57.2312
57.2357
57.2336
57.2305
57.2269
57.2407
57.2699
57.2673
57.2682
57.2681
57.2697
57.2657
57.2718
57.2802
57.2778
57.2773
57.2776
57.278
57.2752
57.2762
57.2735
57.2697
57.2684
57.2626
57.2427
57.2403
57.2507
57.2415
57.2394
57.2465
57.2478
57.2399
57.2427
57.2545
57.2481
57.2529
57.2553
57.2458
57.2516
57.2541
57.2535
57.2531
57.2415
57.2401
57.2343
57.2142
57.2125
57.2204
57.2204
57.2133
57.2154
57.2295
57.2301
57.229
57.2133
57.2156
57.2285
57.2286
57.2281
57.2135
57.2146
57.2274
57.2196
57.2275
57.2356
57.2351
57.2349
57.2198
57.2243
57.2336
57.2249
57.2343
57.2406
57.2394
57.239
57.2223
57.2235
57.2338
57.2269
57.2306
57.2317
57.2273
57.228
57.2263
57.2114
55.0333
56.0492
56.7586
57.0975
57.2183
57.2341
57.2318
57.2229
57.2258
57.2483
57.2504
57.2463
57.2316
57.2344
57.2531
57.2551
57.2528
57.2497
57.2464
57.2324
57.2381
57.2509
57.2493
57.2435
57.2461
57.2555
57.2417
57.2471
57.2598
57.2504
57.2437
57.2458
57.2498
57.2452
57.2482
57.2489
57.2451
57.234
57.2356
57.239
57.2289
57.2232
57.2195
57.2085
57.2112
57.222
57.2184
57.2184
57.2157
57.2083
57.214
57.218
57.2148
57.2084
57.2042
57.2102
57.2112
57.2072
57.2136
57.2261
57.2256
57.2251
57.2101
57.2147
57.221
57.2092
57.2158
57.2273
57.2192
57.2197
57.2167
57.2061
57.2065
57.217
57.2176
57.2125
57.218
57.2285
57.2281
57.2277
57.2132
57.2186
57.233
57.2325
57.232
57.2244
57.2181
57.2235
57.2268
57.2154
55.0353
56.0479
56.752
57.1071
57.2275
57.2399
57.2372
57.2275
57.2313
57.244
57.2439
57.2411
57.2428
57.2535
57.2463
57.2436
57.2571
57.2654
57.2629
57.2628
57.2625
57.2551
57.2548
57.2563
57.2544
57.2512
57.2468
57.2485
57.2486
57.2425
57.24
57.253
57.2573
57.2554
57.2551
57.2497
57.2439
57.2401
57.2335
57.2263
57.2227
57.2125
57.2137
57.2243
57.2213
57.2185
57.2289
57.2374
57.234
57.2266
57.2205
57.2202
57.2185
57.2141
57.2171
57.2258
57.2227
57.2118
57.2158
57.2235
57.2229
57.2228
57.2098
57.2164
57.2228
57.2199
57.2195
57.2094
57.2154
57.2239
57.2227
57.2189
57.2244
57.2368
57.2214
57.2239
57.235
57.2232
57.2294
57.2385
57.2238
57.2297
57.2388
57.2261
57.2205
57.2228
57.228
57.2255
57.2219
57.2119
55.0342
56.0505
56.749
57.1089
57.2257
57.2375
57.2456
57.246
57.2437
57.2378
57.2434
57.2687
57.2624
57.2714
57.2805
57.2729
57.2746
57.2717
57.2623
57.2686
57.2751
57.2597
57.2652
57.2757
57.2745
57.2751
57.2742
57.2723
57.2572
57.2512
57.2475
57.2412
57.2362
57.2333
57.2319
57.2283
57.2256
57.2184
57.2197
57.2285
57.2187
57.2188
57.2277
57.2235
57.2231
57.2229
57.217
57.2148
57.2284
57.237
57.2341
57.2365
57.2349
57.2329
57.2291
57.2126
57.2158
57.2226
57.2163
57.2101
57.2182
57.2303
57.2203
57.2267
57.2309
57.2289
57.2282
57.2168
57.2255
57.2337
57.2318
57.2307
57.2177
57.2219
57.2265
57.2233
57.2177
57.21
57.2217
57.2332
57.2301
57.218
57.2204
57.2323
57.231
57.2283
57.2138
57.2189
57.2303
57.2131
55.0361
56.0496
56.7466
57.1004
57.2517
57.2825
57.2761
57.2755
57.2731
57.2801
57.283
57.2713
57.2769
57.283
57.2732
57.2793
57.2829
57.2781
57.2788
57.2741
57.2795
57.2822
57.2678
57.2722
57.2762
57.275
57.2748
57.2708
57.2681
57.2507
57.2471
57.253
57.2537
57.2527
57.2495
57.2567
57.2592
57.2554
57.2412
57.2395
57.248
57.2489
57.2477
57.2333
57.2371
57.2452
57.2453
57.2453
57.2347
57.2346
57.2353
57.2342
57.2307
57.2224
57.2268
57.2321
57.2284
57.2193
57.2152
57.23
57.2361
57.2325
57.2193
57.2193
57.2294
57.2169
57.2196
57.2294
57.2287
57.2243
57.2245
57.2253
57.2215
57.2142
57.2183
57.2355
57.2361
57.235
57.2187
57.2213
57.233
57.2329
57.2318
57.2157
57.2163
57.2292
57.2261
57.2264
57.2254
57.2146
55.0339
56.0485
56.7555
57.1072
57.206
57.2066
57.2141
57.234
57.2291
57.2305
57.2299
57.2241
57.2208
57.2255
57.2252
57.237
57.2474
57.2419
57.2442
57.2451
57.2392
57.2461
57.265
57.2546
57.262
57.2698
57.2612
57.2612
57.2609
57.2575
57.2506
57.253
57.2537
57.2435
57.2457
57.2539
57.2546
57.253
57.2515
57.2525
57.248
57.2475
57.249
57.2509
57.2491
57.2476
57.2441
57.2431
57.2401
57.2362
57.2217
57.2176
57.2279
57.2311
57.2277
57.2197
57.214
57.2236
57.2317
57.2283
57.2205
57.2126
57.2198
57.2284
57.2252
57.2126
57.2164
57.2301
57.23
57.2294
57.2206
57.2135
57.2134
57.211
57.2193
57.237
57.2251
57.232
57.2415
57.2336
57.2377
57.2393
57.2362
57.2313
57.2225
57.2296
57.2432
57.2411
57.2383
57.2219
55.0361
56.0496
56.7464
57.1013
57.2488
57.2876
57.2852
57.2851
57.2831
57.2893
57.2922
57.285
57.2862
57.2871
57.2856
57.2834
57.2822
57.2713
57.275
57.2805
57.2793
57.2796
57.2761
57.2756
57.2749
57.2751
57.2732
57.2747
57.2697
57.2677
57.2644
57.2509
57.243
57.2422
57.2382
57.2371
57.2328
57.2193
57.2185
57.2269
57.2165
57.216
57.2309
57.2377
57.2338
57.221
57.218
57.2234
57.2201
57.2272
57.2306
57.2205
57.2268
57.2328
57.2329
57.2329
57.2147
57.2147
57.2293
57.2241
57.2317
57.2442
57.2385
57.2381
57.2383
57.2364
57.2335
57.2323
57.2303
57.2222
57.2237
57.225
57.2214
57.2141
57.2182
57.2354
57.236
57.2349
57.2186
57.222
57.2311
57.2315
57.2315
57.2254
57.2243
57.2124
57.2184
57.2286
57.2256
57.2149
55.0387
56.0461
56.7457
57.111
57.2236
57.2266
57.2371
57.2508
57.2374
57.2425
57.2513
57.2492
57.246
57.2403
57.2477
57.2555
57.2522
57.2395
57.2426
57.2502
57.2491
57.2464
57.2511
57.2623
57.2469
57.2494
57.2605
57.2595
57.2516
57.2544
57.2614
57.2463
57.2516
57.259
57.2506
57.2493
57.244
57.2443
57.241
57.2341
57.2284
57.2263
57.2245
57.2225
57.2183
57.2082
57.2029
57.22
57.231
57.2233
57.2261
57.2266
57.2241
57.2175
57.2305
57.253
57.2447
57.2515
57.2631
57.2643
57.2613
57.2465
57.2501
57.2538
57.2528
57.2527
57.2499
57.2482
57.2401
57.2347
57.2184
57.2179
57.2344
57.2369
57.2329
57.219
57.223
57.2293
57.2186
57.2141
57.2271
57.2359
57.2328
57.2213
57.2191
57.2265
57.2244
57.2244
57.2215
57.212
55.0371
56.0498
56.7444
57.0993
57.2457
57.294
57.2954
57.2973
57.2976
57.2959
57.298
57.2964
57.295
57.2913
57.2792
57.2814
57.2838
57.2684
57.2737
57.2806
57.2631
57.2664
57.2755
57.2718
57.2719
57.2729
57.2726
57.2647
57.2565
57.2586
57.2605
57.2561
57.2461
57.2388
57.2404
57.2406
57.2377
57.2335
57.2283
57.2247
57.2184
57.2096
57.2178
57.2254
57.2235
57.2223
57.2093
57.2152
57.2237
57.2137
57.221
57.2258
57.2091
57.2093
57.2278
57.2263
57.2366
57.2479
57.2341
57.2404
57.2484
57.2339
57.2392
57.2442
57.2348
57.2343
57.2338
57.2229
57.2249
57.2313
57.2187
57.2233
57.2265
57.2252
57.2249
57.211
57.2145
57.2325
57.2325
57.2298
57.2249
57.2185
57.2166
57.2135
57.2238
57.2335
57.219
57.2251
57.2346
57.2163
55.0361
56.0496
56.7463
57.1017
57.2466
57.2995
57.3005
57.2976
57.2975
57.2962
57.2958
57.291
57.2875
57.285
57.2867
57.2871
57.2783
57.2821
57.2851
57.2709
57.2765
57.2838
57.2796
57.2814
57.2775
57.2756
57.2764
57.2748
57.2539
57.252
57.2574
57.2463
57.2415
57.2403
57.2371
57.2363
57.2318
57.2177
57.2157
57.223
57.2187
57.2154
57.2188
57.225
57.2235
57.2222
57.2194
57.2236
57.2271
57.2255
57.2251
57.2113
57.2143
57.2336
57.2283
57.2372
57.2479
57.243
57.2453
57.2466
57.2442
57.2374
57.2373
57.2364
57.2259
57.2302
57.2367
57.2207
57.2205
57.2347
57.2393
57.2368
57.2339
57.2267
57.2233
57.2289
57.2362
57.2341
57.2312
57.2282
57.2146
57.2198
57.2338
57.2334
57.2321
57.215
57.2158
57.2269
57.2265
57.2178
55.0371
56.0498
56.7445
57.099
57.2473
57.2873
57.2848
57.2911
57.294
57.2885
57.2908
57.2877
57.2851
57.2768
57.2807
57.283
57.2676
57.2729
57.28
57.2627
57.2658
57.2757
57.2679
57.2678
57.2673
57.259
57.256
57.2592
57.2566
57.2535
57.2495
57.2413
57.2372
57.248
57.255
57.2508
57.2516
57.2525
57.2527
57.2464
57.2298
57.2208
57.2168
57.2089
57.2054
57.2057
57.2044
57.2019
57.2108
57.2215
57.2216
57.2215
57.2063
57.2052
57.2252
57.2266
57.2367
57.2499
57.2445
57.2476
57.2485
57.2477
57.2458
57.2461
57.245
57.2329
57.2361
57.2411
57.2282
57.2285
57.2351
57.2351
57.2341
57.2356
57.233
57.2297
57.2201
57.2256
57.2312
57.2277
57.2196
57.2156
57.2196
57.211
57.2176
57.2274
57.2109
57.2099
57.219
57.2087
55.0369
56.051
56.7401
57.1096
57.2383
57.2577
57.2609
57.258
57.2484
57.2546
57.2605
57.2583
57.2577
57.2496
57.2547
57.2601
57.2575
57.2585
57.2584
57.2529
57.2487
57.2631
57.2789
57.2767
57.2773
57.2764
57.2733
57.2554
57.2515
57.2558
57.249
57.2463
57.243
57.239
57.239
57.2364
57.2284
57.2257
57.2248
57.2138
57.2123
57.2181
57.2162
57.2173
57.2161
57.2136
57.2119
57.2116
57.2023
57.202
57.2292
57.2699
57.2703
57.2712
57.2695
57.2716
57.2728
57.2716
57.2711
57.2565
57.2595
57.2635
57.2569
57.2576
57.2534
57.2523
57.2525
57.249
57.2516
57.2532
57.2493
57.2356
57.235
57.2392
57.236
57.2361
57.2362
57.2327
57.2319
57.2295
57.2153
57.2198
57.2265
57.2106
57.2105
57.2204
57.2166
57.2172
57.2171
57.2082
55.0359
56.048
56.7509
57.1071
57.2191
57.2279
57.2173
57.2182
57.2269
57.227
57.2287
57.229
57.2203
57.2252
57.245
57.2459
57.2456
57.235
57.242
57.2659
57.2813
57.281
57.2704
57.2703
57.2693
57.2583
57.2601
57.2691
57.2625
57.2608
57.2563
57.2422
57.2431
57.252
57.2372
57.2392
57.2496
57.2485
57.2454
57.2276
57.2292
57.2355
57.2316
57.2307
57.2178
57.2225
57.2262
57.2228
57.2157
57.2121
57.2126
57.2052
57.202
57.2098
57.218
57.2155
57.2173
57.2159
57.2033
57.2006
57.2079
57.2024
57.201
57.2058
57.205
57.2128
57.2158
57.2036
57.2086
57.2255
57.2269
57.2299
57.2289
57.2274
57.225
57.2164
57.2203
57.2358
57.2385
57.2357
57.2301
57.2287
57.2132
57.2175
57.2267
57.2156
57.2112
57.2192
57.2227
57.2137
55.0361
56.0496
56.7467
57.1001
57.2532
57.2816
57.276
57.2757
57.2746
57.2748
57.2714
57.2773
57.2812
57.2781
57.268
57.2703
57.2755
57.2703
57.2701
57.2692
57.276
57.2825
57.2805
57.2776
57.2748
57.272
57.2702
57.2611
57.2533
57.2569
57.2579
57.2478
57.2527
57.2544
57.2529
57.2518
57.2298
57.2299
57.2324
57.2229
57.2209
57.2181
57.2177
57.2147
57.214
57.2032
57.2088
57.2208
57.2173
57.2168
57.209
57.2156
57.2573
57.2749
57.2701
57.27
57.2695
57.2722
57.2751
57.2741
57.2734
57.2737
57.2644
57.2648
57.2654
57.2493
57.2524
57.2571
57.2437
57.2504
57.2578
57.2494
57.254
57.26
57.2585
57.2589
57.2571
57.2543
57.2493
57.2433
57.2373
57.2183
57.2174
57.231
57.2329
57.2304
57.2148
57.2186
57.2273
57.2102
55.0361
56.0496
56.7464
57.1015
57.2484
57.2899
57.29
57.2867
57.2916
57.2939
57.2878
57.2875
57.2867
57.2868
57.2788
57.2829
57.2861
57.2711
57.2768
57.2846
57.2835
57.2803
57.2827
57.2869
57.2864
57.2864
57.2829
57.2809
57.262
57.258
57.2597
57.2478
57.2444
57.2476
57.2462
57.2404
57.2412
57.2427
57.2338
57.2402
57.2456
57.2447
57.2442
57.227
57.2309
57.236
57.2318
57.2337
57.2342
57.2331
57.2178
57.2199
57.257
57.2771
57.2718
57.2775
57.2802
57.2746
57.2742
57.2747
57.2737
57.2695
57.2711
57.2714
57.2571
57.26
57.2641
57.2523
57.2588
57.2641
57.2639
57.2639
57.2613
57.2609
57.2579
57.2576
57.2492
57.249
57.2477
57.2498
57.2462
57.2354
57.2283
57.2265
57.219
57.2169
57.2295
57.2347
57.2308
57.2169
55.0354
56.0472
56.7546
57.1059
57.2149
57.2437
57.2418
57.2314
57.2264
57.2298
57.2342
57.2317
57.224
57.2382
57.2715
57.2638
57.2666
57.2882
57.2919
57.2884
57.2769
57.2795
57.2865
57.2682
57.2687
57.276
57.2717
57.2702
57.2677
57.2667
57.2584
57.2532
57.2506
57.2466
57.2362
57.2335
57.2329
57.2216
57.2248
57.2361
57.2363
57.2363
57.234
57.2337
57.2294
57.2272
57.2272
57.2225
57.2262
57.2298
57.2126
57.2165
57.222
57.2199
57.214
57.2122
57.2263
57.2257
57.2271
57.2268
57.2278
57.221
57.2272
57.2385
57.2382
57.238
57.2242
57.2293
57.2412
57.2376
57.2399
57.2369
57.2296
57.2254
57.2306
57.2325
57.2239
57.2296
57.2398
57.2227
57.2246
57.2328
57.2171
57.2207
57.2286
57.2289
57.229
57.2248
57.2236
57.2079
55.0359
56.0505
56.7436
57.1085
57.2418
57.2565
57.266
57.2712
57.2591
57.2651
57.2736
57.2723
57.2722
57.2677
57.2681
57.2649
57.2522
57.2557
57.2651
57.2623
57.2621
57.2541
57.2631
57.2707
57.2581
57.265
57.2746
57.2655
57.2562
57.2576
57.2582
57.2444
57.2488
57.2507
57.249
57.2483
57.2389
57.2364
57.2299
57.2124
57.2085
57.2138
57.2061
57.2022
57.2053
57.2097
57.2085
57.2051
57.1954
57.1964
57.2174
57.2191
57.2161
57.211
57.2027
57.2093
57.2144
57.2055
57.2136
57.2239
57.2207
57.2206
57.2219
57.2215
57.209
57.2037
57.2066
57.2006
57.2016
57.2193
57.2244
57.2224
57.2164
57.2192
57.2209
57.212
57.2188
57.2225
57.2153
57.2088
57.2172
57.2307
57.2295
57.2284
57.2189
57.2155
57.2046
57.2031
57.2108
57.2034
55.0361
56.0497
56.7465
57.1009
57.251
57.2846
57.281
57.2823
57.2802
57.2847
57.2866
57.2808
57.2851
57.2875
57.2853
57.2824
57.2798
57.2776
57.2692
57.273
57.2818
57.2762
57.2815
57.2833
57.2792
57.2791
57.2758
57.2591
57.2529
57.2558
57.2499
57.2477
57.2459
57.2421
57.2301
57.2309
57.237
57.2378
57.2372
57.2199
57.2188
57.2205
57.2201
57.2186
57.2081
57.2057
57.1996
57.2077
57.2222
57.219
57.2188
57.2166
57.218
57.2164
57.2144
57.2108
57.1992
57.2044
57.2187
57.2164
57.2095
57.2137
57.2262
57.2269
57.227
57.2208
57.2192
57.2044
57.2035
57.2131
57.2144
57.21
57.2165
57.2277
57.2268
57.2262
57.2176
57.215
57.2075
57.2053
57.2101
57.2052
57.213
57.2257
57.2257
57.2257
57.2138
57.2209
57.227
57.2139
55.0361
56.0497
56.7464
57.1017
57.2466
57.2996
57.3006
57.2954
57.2961
57.2918
57.2929
57.2933
57.2918
57.2924
57.2922
57.282
57.2852
57.2887
57.2738
57.2796
57.288
57.2727
57.2769
57.2893
57.2871
57.2869
57.2871
57.2878
57.2855
57.2829
57.2786
57.2698
57.2626
57.2568
57.2391
57.2404
57.2475
57.2476
57.2474
57.2417
57.2299
57.2311
57.2359
57.2323
57.2239
57.2209
57.2235
57.2241
57.2215
57.2101
57.2083
57.2308
57.277
57.2814
57.2747
57.2787
57.2801
57.2764
57.2767
57.2751
57.2732
57.2699
57.2677
57.2671
57.255
57.2575
57.2615
57.2481
57.2544
57.2601
57.252
57.2514
57.2503
57.2511
57.2506
57.2382
57.2402
57.2435
57.2375
57.237
57.2391
57.2393
57.2278
57.2312
57.2346
57.232
57.2299
57.2199
57.2162
57.206
55.0361
56.0497
56.7464
57.1015
57.2484
57.2901
57.2901
57.2868
57.2918
57.2941
57.288
57.2877
57.2869
57.287
57.2791
57.2831
57.2862
57.2712
57.2769
57.2848
57.282
57.2827
57.283
57.2839
57.2816
57.2784
57.2765
57.2743
57.2617
57.2537
57.2527
57.243
57.2426
57.2488
57.2465
57.2405
57.2412
57.2429
57.234
57.2406
57.2458
57.2448
57.2443
57.2271
57.2309
57.236
57.2342
57.2337
57.2317
57.2314
57.2181
57.2212
57.2573
57.2657
57.2657
57.2643
57.2653
57.2667
57.2617
57.2611
57.2514
57.257
57.2614
57.2492
57.2547
57.2582
57.2531
57.2552
57.2522
57.2393
57.2429
57.2481
57.2472
57.2472
57.2423
57.2401
57.2246
57.2208
57.2274
57.2212
57.2286
57.2349
57.222
57.2283
57.233
57.2304
57.2263
57.2203
57.2203
57.2087
55.0361
56.0496
56.7467
57.1
57.2532
57.2817
57.276
57.278
57.2825
57.2803
57.2782
57.2782
57.2702
57.2751
57.282
57.2793
57.2697
57.2723
57.2769
57.274
57.2754
57.274
57.2717
57.259
57.2636
57.2687
57.2557
57.2629
57.2729
57.2715
57.2711
57.267
57.267
57.2643
57.2604
57.2512
57.2472
57.241
57.2215
57.2228
57.2277
57.2267
57.2263
57.2185
57.2166
57.2035
57.2084
57.2234
57.2246
57.2216
57.2096
57.2152
57.2588
57.2697
57.2661
57.2637
57.2652
57.2683
57.2675
57.2671
57.2517
57.2508
57.2592
57.2598
57.259
57.2442
57.2455
57.251
57.2359
57.2404
57.2515
57.2512
57.2504
57.2348
57.2314
57.2412
57.2464
57.2448
57.2464
57.244
57.2392
57.2276
57.2223
57.2255
57.2198
57.2176
57.2288
57.2336
57.2296
57.2154
55.0359
56.0479
56.7515
57.1053
57.2216
57.2357
57.233
57.2221
57.2225
57.2434
57.2484
57.2449
57.2322
57.235
57.2472
57.2422
57.2454
57.2471
57.242
57.2458
57.2476
57.2556
57.2749
57.261
57.2664
57.2772
57.2627
57.2602
57.2686
57.2699
57.2664
57.256
57.2501
57.2492
57.2488
57.2413
57.2414
57.2491
57.249
57.2431
57.2449
57.246
57.2411
57.2415
57.2412
57.2419
57.2406
57.2381
57.2332
57.2341
57.2357
57.2341
57.2309
57.2162
57.2046
57.2088
57.2111
57.2028
57.2073
57.2235
57.2238
57.2229
57.2098
57.213
57.2306
57.2299
57.23
57.2301
57.2284
57.2237
57.2336
57.2455
57.2411
57.2439
57.2444
57.2418
57.243
57.2406
57.2354
57.2329
57.2328
57.2324
57.2207
57.2274
57.2398
57.2374
57.2322
57.2284
57.2249
57.21
55.0389
56.0455
56.747
57.1103
57.2217
57.2251
57.236
57.2501
57.2421
57.2403
57.2377
57.2377
57.2329
57.242
57.2526
57.2514
57.2507
57.2383
57.2366
57.2365
57.2486
57.2699
57.2701
57.2662
57.2511
57.2538
57.2658
57.2598
57.2551
57.2518
57.2482
57.2421
57.2496
57.2557
57.252
57.2399
57.239
57.2427
57.2436
57.2435
57.2358
57.2347
57.232
57.2284
57.2246
57.2224
57.2197
57.2165
57.2077
57.2062
57.2022
57.2104
57.226
57.2245
57.2223
57.2193
57.2283
57.2264
57.2365
57.2457
57.2436
57.2368
57.2389
57.2432
57.236
57.2376
57.2335
57.2341
57.2345
57.2305
57.2346
57.237
57.2333
57.2246
57.2214
57.2306
57.2366
57.2345
57.2315
57.2279
57.2115
57.215
57.2245
57.225
57.2251
57.2089
57.2129
57.2241
57.2219
57.2128
55.0387
56.0461
56.7458
57.111
57.2236
57.2264
57.2365
57.2503
57.2399
57.2415
57.2419
57.2393
57.232
57.2405
57.2526
57.2529
57.2529
57.2377
57.2451
57.2619
57.2625
57.2627
57.2556
57.2551
57.2499
57.2457
57.247
57.2463
57.245
57.2457
57.2387
57.2447
57.2548
57.2546
57.254
57.2435
57.2345
57.2346
57.2396
57.2364
57.2364
57.2336
57.2212
57.2089
57.215
57.221
57.2191
57.2183
57.2065
57.2187
57.2459
57.2355
57.2413
57.2551
57.2569
57.254
57.2372
57.2394
57.2523
57.2526
57.2531
57.2527
57.2485
57.2336
57.2381
57.2447
57.2326
57.2387
57.2437
57.2399
57.2307
57.2259
57.2272
57.2218
57.2287
57.2332
57.2316
57.2314
57.2245
57.2244
57.2211
57.2189
57.2157
57.2133
57.2029
57.2021
57.2227
57.2278
57.224
57.2103
55.0361
56.0496
56.7463
57.1015
57.2478
57.2924
57.2934
57.2921
57.2916
57.2926
57.292
57.291
57.2901
57.2846
57.2833
57.2844
57.2774
57.282
57.2851
57.2709
57.2766
57.2838
57.2748
57.2743
57.2742
57.2712
57.2666
57.2628
57.2551
57.25
57.2546
57.2561
57.246
57.2501
57.2528
57.2368
57.2414
57.2516
57.2372
57.2351
57.2396
57.2315
57.2376
57.2478
57.2366
57.2431
57.2475
57.2388
57.243
57.2446
57.2407
57.2313
57.2207
57.2234
57.223
57.2342
57.2464
57.2385
57.239
57.2385
57.2401
57.2364
57.2363
57.2354
57.2253
57.2297
57.2362
57.2203
57.2203
57.2349
57.2392
57.2368
57.2339
57.2268
57.2233
57.2314
57.2348
57.231
57.2173
57.2163
57.2273
57.2212
57.2289
57.234
57.2316
57.2284
57.2207
57.2255
57.2271
57.2154
55.0371
56.0498
56.7443
57.0994
57.2451
57.2987
57.3002
57.2951
57.294
57.2925
57.2927
57.2922
57.2911
57.2879
57.2889
57.2934
57.2944
57.2919
57.2889
57.2882
57.285
57.277
57.2736
57.2775
57.2814
57.2823
57.2791
57.2772
57.277
57.2746
57.2682
57.2655
57.2606
57.2453
57.2454
57.257
57.2576
57.256
57.2377
57.2351
57.2436
57.2447
57.2421
57.233
57.237
57.2383
57.226
57.2292
57.2432
57.2424
57.2404
57.2396
57.2358
57.225
57.2311
57.2447
57.246
57.243
57.2291
57.2335
57.2477
57.2371
57.2431
57.2539
57.2474
57.2503
57.2514
57.2524
57.2528
57.2497
57.2357
57.2384
57.2435
57.2436
57.2436
57.2323
57.2258
57.2309
57.2355
57.2318
57.2236
57.2178
57.2197
57.2112
57.2148
57.226
57.2173
57.2145
57.2162
57.2076
55.0369
56.0509
56.7405
57.1075
57.2433
57.2632
57.2604
57.2472
57.246
57.2532
57.2412
57.2469
57.2547
57.2385
57.2435
57.2524
57.2504
57.2471
57.2449
57.2568
57.2642
57.2628
57.2619
57.2581
57.2445
57.24
57.2451
57.2388
57.2441
57.2557
57.2562
57.2559
57.2412
57.2467
57.2531
57.2512
57.2507
57.2438
57.2398
57.2273
57.2143
57.2108
57.2049
57.2125
57.2238
57.2189
57.2184
57.2121
57.2191
57.2285
57.2286
57.2285
57.214
57.2169
57.2356
57.2288
57.2355
57.251
57.2526
57.2498
57.2449
57.244
57.2316
57.2362
57.2487
57.2419
57.2415
57.2409
57.2362
57.2317
57.2305
57.2273
57.2333
57.2358
57.2261
57.2321
57.2362
57.2191
57.2222
57.2326
57.23
57.2294
57.2273
57.2268
57.2185
57.2147
57.2287
57.2352
57.2311
57.2164
55.0361
56.0496
56.7464
57.1015
57.2481
57.2895
57.2887
57.2941
57.2956
57.2917
57.2916
57.2905
57.2894
57.2837
57.2849
57.2882
57.2833
57.287
57.288
57.2774
57.2816
57.2845
57.2825
57.2827
57.2773
57.2724
57.254
57.2552
57.2672
57.2661
57.2633
57.2621
57.2608
57.2485
57.2389
57.2345
57.2224
57.2209
57.2285
57.2187
57.2187
57.2271
57.2175
57.2204
57.2311
57.219
57.2227
57.2337
57.2223
57.2292
57.2361
57.236
57.236
57.2199
57.2225
57.2336
57.234
57.2348
57.2271
57.2324
57.2353
57.2247
57.2288
57.236
57.221
57.2257
57.2356
57.2205
57.2237
57.2369
57.2357
57.2385
57.2358
57.2312
57.2243
57.228
57.2324
57.2288
57.2163
57.2197
57.2333
57.2316
57.2289
57.2251
57.2243
57.2124
57.2183
57.2284
57.2255
57.2148
55.0341
56.0497
56.7535
57.1061
57.2141
57.222
57.2195
57.2174
57.2258
57.2356
57.2353
57.2352
57.2218
57.226
57.2564
57.263
57.2609
57.2545
57.2651
57.2755
57.2617
57.2665
57.2804
57.2812
57.2814
57.2764
57.276
57.2703
57.256
57.2477
57.2542
57.2559
57.2532
57.2501
57.2498
57.2591
57.2577
57.2419
57.2432
57.2507
57.2503
57.2498
57.2327
57.2364
57.2433
57.2399
57.2397
57.2392
57.2368
57.2209
57.2118
57.2126
57.2075
57.2163
57.2248
57.2242
57.2241
57.2136
57.2175
57.2244
57.2215
57.2113
57.2145
57.2258
57.2259
57.2256
57.2113
57.2131
57.2206
57.2274
57.2252
57.2226
57.2187
57.2201
57.2242
57.2183
57.2203
57.2206
57.2122
57.219
57.2332
57.2287
57.2282
57.2229
57.2242
57.2212
57.2137
57.2122
57.2159
57.2073
55.0361
56.0496
56.7464
57.1008
57.2508
57.284
57.2773
57.2855
57.29
57.2866
57.2864
57.2797
57.2815
57.2826
57.2802
57.2788
57.2758
57.2763
57.2777
57.2747
57.265
57.27
57.2748
57.2736
57.2736
57.2701
57.26
57.2578
57.2605
57.2495
57.2565
57.2644
57.2624
57.2618
57.249
57.2524
57.2584
57.2516
57.2523
57.2529
57.254
57.2504
57.238
57.2437
57.2509
57.2367
57.2423
57.251
57.2486
57.2458
57.2292
57.2319
57.2359
57.2278
57.2267
57.2231
57.2114
57.216
57.23
57.2241
57.2235
57.2227
57.2136
57.2182
57.2339
57.2206
57.2259
57.2331
57.2182
57.2238
57.2362
57.2344
57.2317
57.2169
57.2201
57.2345
57.2353
57.2343
57.2182
57.2219
57.2312
57.2316
57.2316
57.2256
57.2244
57.2125
57.2185
57.2286
57.2257
57.2149
55.0342
56.0505
56.749
57.1089
57.2257
57.2374
57.2455
57.246
57.2437
57.2379
57.2435
57.2688
57.2624
57.2713
57.2806
57.2794
57.2792
57.2654
57.2712
57.2777
57.2622
57.2674
57.2748
57.2745
57.2745
57.2688
57.2661
57.2682
57.2694
57.2658
57.2612
57.2508
57.2451
57.2423
57.2432
57.243
57.2327
57.2375
57.2515
57.2371
57.2421
57.2488
57.2319
57.2358
57.2428
57.2427
57.2426
57.2388
57.2371
57.2284
57.231
57.232
57.2276
57.2274
57.2256
57.212
57.2157
57.2225
57.2065
57.2067
57.2213
57.2256
57.2225
57.2127
57.217
57.2191
57.2063
57.2055
57.2245
57.2319
57.2298
57.2278
57.2172
57.2217
57.2263
57.2245
57.224
57.2129
57.2232
57.2395
57.2376
57.2349
57.2208
57.2246
57.2321
57.2187
57.225
57.2379
57.2354
57.2258
55.0339
56.0485
56.7557
57.1062
57.2129
57.2207
57.213
57.2178
57.254
57.2623
57.2531
57.2603
57.266
57.258
57.261
57.2615
57.2576
57.2602
57.2614
57.253
57.2579
57.261
57.2552
57.2554
57.2545
57.2432
57.2393
57.2486
57.2539
57.2512
57.248
57.2432
57.2373
57.2382
57.2335
57.2304
57.2303
57.2298
57.2307
57.2279
57.2209
57.2196
57.2217
57.2116
57.217
57.2274
57.2111
57.2109
57.2213
57.2218
57.2164
57.2221
57.2358
57.2339
57.2311
57.2155
57.2174
57.2281
57.2306
57.2277
57.2218
57.2206
57.2075
57.2134
57.2237
57.2103
57.208
57.2225
57.2279
57.2259
57.2251
57.2165
57.2153
57.2108
57.2189
57.2365
57.2247
57.2319
57.2399
57.2382
57.2376
57.227
57.224
57.2157
57.2205
57.232
57.224
57.2245
57.2234
57.2122
55.0359
56.0494
56.7484
57.1061
57.2179
57.2207
57.2309
57.2397
57.2253
57.2281
57.246
57.2579
57.2565
57.2553
57.2534
57.2392
57.2437
57.2594
57.2591
57.2575
57.2422
57.2451
57.2605
57.2635
57.2607
57.2552
57.2537
57.2368
57.2363
57.249
57.2498
57.2488
57.2361
57.241
57.2463
57.2291
57.2323
57.2412
57.234
57.2324
57.2282
57.2149
57.2144
57.2246
57.2201
57.2169
57.2294
57.2385
57.2351
57.2274
57.2207
57.2203
57.2188
57.2147
57.2178
57.2264
57.2246
57.2228
57.2139
57.2207
57.2299
57.2301
57.2301
57.2156
57.2192
57.2337
57.243
57.2491
57.2444
57.2443
57.245
57.2438
57.2297
57.2303
57.235
57.2228
57.2286
57.2404
57.2383
57.2349
57.2276
57.2333
57.2363
57.2327
57.2258
57.2162
57.2227
57.2282
57.2244
57.2108
55.0365
56.0475
56.7512
57.1037
57.2242
57.2399
57.2401
57.2402
57.2369
57.2292
57.2395
57.2702
57.2624
57.2711
57.2798
57.268
57.2743
57.2787
57.2718
57.2766
57.2787
57.275
57.2614
57.2624
57.2668