/*--------------------------------*- C++ -*----------------------------------*\
  =========                 |
  \\      /  F ield         | OpenFOAM: The Open Source CFD Toolbox
   \\    /   O peration     | Website:  https://openfoam.org
    \\  /    A nd           | Version:  11
     \\/     M anipulation  |
\*---------------------------------------------------------------------------*/
FoamFile
{
    format      ascii;
    class       volScalarField;
    location    "0.048";
    object      p;
}
// * * * * * * * * * * * * * * * * * * * * * * * * * * * * * * * * * * * * * //

dimensions      [0 2 -2 0 0 0 0];

internalField   nonuniform List<scalar> 
287084
(
1.74039
1.45854
1.39427
1.32692
1.25872
1.20697
1.15816
1.11286
1.06792
1.0248
0.984457
0.943184
0.900158
0.855828
0.81073
0.765476
0.719911
0.674048
0.628054
0.582174
0.536601
0.491669
0.44758
0.404779
0.363535
0.324016
0.286686
0.252379
0.222707
0.197878
0.176761
0.154616
0.13339
0.11732
0.104579
0.0948357
0.0878626
0.0833618
0.0810363
0.0806205
0.0818376
0.084382
0.0880016
0.092482
0.0975559
0.103017
0.108665
0.114318
0.119562
0.124375
0.127747
0.132249
0.139824
0.145511
0.150398
0.155526
0.158398
0.159658
0.159767
0.159954
0.160032
0.159628
0.158609
0.157188
0.155063
0.152919
0.150148
0.14626
0.141427
0.135291
0.127724
0.124017
0.122335
0.116496
0.111803
0.107201
0.101209
0.0963044
0.0890345
0.0797083
0.0711773
0.061335
0.0515842
0.0452988
0.0415065
0.0377863
0.0281589
0.0152955
0.00496645
0.000792851
1.60541
1.41567
1.36436
1.30782
1.24772
1.19982
1.15346
1.10958
1.06641
1.02399
0.98241
0.940267
0.897033
0.85298
0.808274
0.763013
0.717337
0.67128
0.625078
0.578964
0.533158
0.487953
0.443734
0.400368
0.358761
0.320655
0.284648
0.25036
0.219518
0.19271
0.168499
0.146585
0.127566
0.112167
0.0998616
0.0904856
0.0838004
0.0795958
0.0775503
0.0774164
0.0789004
0.0817059
0.0855756
0.0902963
0.0955954
0.101272
0.107145
0.113025
0.118724
0.124176
0.129342
0.134553
0.140041
0.144407
0.148614
0.153154
0.156138
0.157842
0.158881
0.159425
0.159475
0.159298
0.158284
0.156756
0.15527
0.152646
0.149319
0.146239
0.141754
0.13631
0.130892
0.126328
0.122367
0.117552
0.11217
0.106281
0.100202
0.0934361
0.0863072
0.078644
0.0701424
0.0621125
0.05571
0.0491845
0.041844
0.0346981
0.0258186
0.0162117
0.007919
0.00235231
1.57904
1.40856
1.35744
1.30163
1.24386
1.19616
1.15012
1.10629
1.06338
1.02097
0.978871
0.936314
0.892972
0.848797
0.803886
0.758339
0.712262
0.665793
0.619134
0.57252
0.526239
0.480579
0.435893
0.392536
0.350895
0.311476
0.274706
0.240624
0.209497
0.181683
0.157675
0.136344
0.117843
0.102743
0.0908291
0.0818844
0.0757102
0.0720061
0.0705013
0.0708986
0.0729081
0.0762406
0.0806281
0.0858205
0.0915767
0.0976919
0.10398
0.110268
0.116406
0.122328
0.127874
0.13319
0.138476
0.143316
0.147714
0.151518
0.154246
0.15635
0.157688
0.158543
0.158975
0.158639
0.157721
0.156329
0.154228
0.152037
0.149333
0.145638
0.141584
0.137007
0.132181
0.127535
0.122977
0.117729
0.112059
0.106315
0.100048
0.0932949
0.0860906
0.0782438
0.0707547
0.0636014
0.0561946
0.0490752
0.0418963
0.0341911
0.0256514
0.0165071
0.00760829
0.00200262
1.53252
1.37523
1.32982
1.27974
1.22787
1.18379
1.14054
1.09859
1.05691
1.01522
0.97318
0.930499
0.886981
0.842562
0.797351
0.751332
0.704718
0.657619
0.610268
0.562938
0.515892
0.469489
0.424094
0.380059
0.337849
0.297902
0.260556
0.226049
0.194831
0.166807
0.142188
0.120894
0.102955
0.0884547
0.0771948
0.0690043
0.0635777
0.0606919
0.0600014
0.0612217
0.064031
0.0681471
0.0732825
0.0791879
0.0856167
0.092365
0.0992453
0.106096
0.11279
0.11922
0.125313
0.131053
0.136478
0.1414
0.145734
0.149549
0.152687
0.15502
0.156616
0.157602
0.157982
0.157828
0.157101
0.155785
0.154094
0.151764
0.148683
0.14522
0.141361
0.136997
0.132438
0.127681
0.12278
0.117528
0.111932
0.105963
0.0996152
0.0930187
0.0859674
0.0787438
0.0714903
0.0640203
0.0566242
0.0493217
0.0417075
0.0338897
0.025632
0.0168991
0.008177
0.00246094
1.50955
1.36009
1.31736
1.26885
1.21902
1.17582
1.13324
1.09167
1.05023
1.00857
0.966397
0.92344
0.879552
0.834688
0.788887
0.742201
0.694813
0.646824
0.598563
0.550216
0.502171
0.454762
0.408356
0.363423
0.320323
0.279598
0.24153
0.206513
0.17479
0.146553
0.122012
0.101059
0.0836732
0.0698345
0.0593739
0.0520634
0.0476336
0.0457708
0.0461439
0.048429
0.052301
0.0574542
0.063587
0.0704327
0.0777481
0.0853265
0.0929831
0.100551
0.107903
0.114947
0.121587
0.12779
0.133527
0.138732
0.143339
0.147283
0.150504
0.153053
0.154941
0.156198
0.156819
0.156795
0.15618
0.155031
0.153269
0.150989
0.148289
0.145038
0.141305
0.13712
0.132619
0.127829
0.122785
0.117456
0.111809
0.105823
0.0995013
0.0928684
0.0860014
0.0789167
0.0716657
0.064308
0.0568905
0.0493757
0.0416635
0.0337896
0.0255006
0.0168321
0.00811602
0.00240935
1.486
1.33873
1.29793
1.25177
1.20463
1.16342
1.12248
1.08208
1.04136
1.00007
0.957905
0.914724
0.870458
0.825004
0.778523
0.730968
0.682597
0.633551
0.584086
0.534526
0.485185
0.436478
0.388837
0.342685
0.29853
0.256777
0.217916
0.18223
0.150112
0.12169
0.0971681
0.0765364
0.0597594
0.0467544
0.0372845
0.031125
0.0279277
0.0273771
0.0290876
0.0327217
0.0379132
0.0443441
0.0517029
0.0597072
0.0681106
0.0767053
0.085294
0.0937236
0.101872
0.109627
0.116918
0.123688
0.129895
0.135486
0.140417
0.144666
0.14823
0.15106
0.153163
0.154603
0.155407
0.155568
0.155124
0.154084
0.152467
0.150328
0.147667
0.144491
0.14088
0.136845
0.132451
0.127711
0.122667
0.117313
0.111637
0.105651
0.0993598
0.092804
0.0859875
0.0789682
0.0717976
0.0644641
0.0570279
0.0494777
0.0417366
0.0338374
0.0256106
0.0170059
0.00824729
0.00250428
1.46819
1.32316
1.28399
1.23898
1.1932
1.15287
1.11261
1.07261
1.03212
0.990793
0.948439
0.904861
0.859998
0.81382
0.766407
0.717799
0.668248
0.617844
0.566997
0.51591
0.465043
0.414801
0.365613
0.31805
0.272521
0.229623
0.189747
0.153334
0.120744
0.0921467
0.0677773
0.0475929
0.0315697
0.0195405
0.0112658
0.00645516
0.00472298
0.00572122
0.0090141
0.01423
0.0209861
0.0289325
0.0377428
0.0471187
0.0568039
0.0665836
0.0762697
0.0857074
0.094765
0.10335
0.111378
0.118802
0.125568
0.131649
0.137018
0.141652
0.145533
0.148669
0.151078
0.152789
0.153813
0.154172
0.153903
0.153022
0.151557
0.149534
0.146995
0.143952
0.140445
0.136507
0.132178
0.127484
0.122461
0.117113
0.111451
0.10548
0.0992229
0.0927015
0.0859404
0.0789741
0.0718359
0.0645227
0.0570811
0.0495091
0.0417474
0.0338301
0.0255852
0.0169689
0.00825463
0.00255263
1.45203
1.30756
1.26917
1.22528
1.18058
1.14117
1.10159
1.06213
1.02182
0.980479
0.937826
0.89375
0.848208
0.801121
0.752664
0.70281
0.651858
0.599953
0.547417
0.494619
0.441941
0.38988
0.338936
0.289661
0.242618
0.198331
0.157353
0.120102
0.0869776
0.0582282
0.0340278
0.014387
-0.000778826
-0.0116483
-0.0185245
-0.0217581
-0.021764
-0.0189679
-0.0138326
-0.00677673
0.0017777
0.011462
0.0219284
0.0328631
0.0440079
0.0551394
0.0660645
0.0766347
0.0867245
0.0962352
0.105097
0.113256
0.120675
0.127326
0.133193
0.138264
0.142544
0.146041
0.148768
0.150756
0.152034
0.152616
0.152541
0.151837
0.150523
0.148646
0.146235
0.143308
0.139906
0.136061
0.131811
0.127178
0.122192
0.116877
0.111241
0.105301
0.0990758
0.092589
0.0858681
0.0789438
0.0718335
0.0645524
0.0571244
0.0495439
0.0417799
0.0338617
0.0255677
0.0169354
0.00830583
0.00264176
1.43779
1.29389
1.25615
1.21289
1.16884
1.12993
1.09074
1.05143
1.01112
0.969515
0.926454
0.881734
0.835325
0.787214
0.737481
0.686209
0.633652
0.579967
0.525573
0.470767
0.416059
0.361959
0.308982
0.257817
0.208984
0.163185
0.120935
0.0827545
0.0490996
0.0201746
-0.00374476
-0.0227553
-0.0368924
-0.0464318
-0.051718
-0.0531501
-0.0512206
-0.0463923
-0.0391894
-0.0300723
-0.0194942
-0.00786741
0.00444512
0.0171247
0.0298879
0.0425143
0.0548125
0.0666297
0.0778514
0.0883827
0.0981585
0.107137
0.115277
0.122564
0.128995
0.134569
0.13929
0.143177
0.146251
0.14855
0.1501
0.150924
0.151063
0.150542
0.149405
0.147679
0.1454
0.142593
0.139302
0.135553
0.131379
0.126811
0.121877
0.116603
0.111
0.105096
0.0989072
0.0924586
0.085774
0.0788723
0.0717891
0.0645254
0.0571023
0.0495329
0.0417855
0.0338681
0.0256771
0.0171132
0.00828065
0.00251168
1.42483
1.28115
1.24378
1.20092
1.15728
1.11871
1.07967
1.04045
0.999971
0.958012
0.914361
0.868856
0.821475
0.772148
0.721031
0.668152
0.613804
0.558187
0.501669
0.444688
0.387696
0.331301
0.276099
0.222776
0.172032
0.124511
0.0808951
0.0417271
0.00745822
-0.021572
-0.0452108
-0.0634506
-0.0764431
-0.0844823
-0.0879612
-0.0873829
-0.0832728
-0.0761918
-0.0666912
-0.055304
-0.0425177
-0.0287608
-0.0144307
0.000137041
0.014665
0.028915
0.0426941
0.0558684
0.0683113
0.0799427
0.0907055
0.100553
0.109473
0.117449
0.124491
0.130601
0.135799
0.140113
0.143568
0.146197
0.148036
0.149116
0.149482
0.149169
0.148206
0.146637
0.144499
0.141819
0.138634
0.134982
0.130892
0.126395
0.121523
0.116296
0.110735
0.104872
0.0987223
0.0923104
0.0856602
0.0787922
0.0717312
0.0644949
0.0570899
0.0495212
0.041771
0.0338701
0.0255765
0.0169531
0.00831318
0.00264645
1.41295
1.26941
1.23224
1.18964
1.14621
1.10775
1.06873
1.0294
0.988624
0.946151
0.901796
0.855405
0.806879
0.756232
0.703532
0.6489
0.592584
0.534802
0.47601
0.416589
0.357127
0.298246
0.240584
0.184979
0.132073
0.0827552
0.0376339
-0.00260203
-0.0374502
-0.0666127
-0.089825
-0.107213
-0.118889
-0.125249
-0.126757
-0.123967
-0.117498
-0.107963
-0.0959894
-0.0821445
-0.0669662
-0.050927
-0.0344351
-0.0178422
-0.00144274
0.0145345
0.0298968
0.0444962
0.0582302
0.0710219
0.0828275
0.093608
0.103351
0.112063
0.11975
0.126434
0.132136
0.136896
0.140747
0.143724
0.145869
0.147221
0.147828
0.147723
0.146951
0.145545
0.143551
0.140998
0.13793
0.134377
0.130371
0.12595
0.121139
0.115965
0.110453
0.104634
0.0985197
0.0921414
0.0855262
0.0786853
0.0716491
0.0644306
0.0570386
0.0494915
0.04175
0.0338378
0.0255966
0.0170017
0.00830193
0.00262114
1.40199
1.25849
1.22144
1.17894
1.13557
1.09708
1.05794
1.01836
0.977112
0.934047
0.888906
0.841462
0.791715
0.739589
0.685215
0.628673
0.570241
0.510174
0.448894
0.386916
0.324763
0.263207
0.202938
0.144817
0.0896928
0.0383872
-0.00827674
-0.0496222
-0.0850916
-0.114287
-0.137071
-0.153464
-0.163713
-0.168243
-0.167587
-0.162408
-0.153382
-0.141225
-0.126601
-0.110159
-0.0924657
-0.0740132
-0.0552536
-0.0365442
-0.0181788
-0.000400132
0.016604
0.0327041
0.04779
0.0617916
0.0746753
0.0864175
0.097019
0.106485
0.114843
0.12212
0.128353
0.133577
0.137835
0.141175
0.143639
0.14527
0.146122
0.146235
0.145651
0.144414
0.142567
0.140149
0.137194
0.13374
0.129822
0.125474
0.120731
0.115615
0.110154
0.104376
0.0983022
0.091967
0.0853814
0.0785712
0.0715537
0.064354
0.0569901
0.049441
0.0417159
0.0338282
0.0255822
0.0169894
0.00829357
0.00261939
1.39185
1.24835
1.21131
1.16886
1.12545
1.08679
1.04741
1.00738
0.965671
0.921921
0.875843
0.82731
0.776199
0.722522
0.666335
0.607776
0.54709
0.484577
0.420704
0.355954
0.291027
0.226627
0.163601
0.102896
0.0453718
-0.00793687
-0.0562406
-0.0987068
-0.134748
-0.163988
-0.186189
-0.201516
-0.210181
-0.212736
-0.20979
-0.202079
-0.190383
-0.175472
-0.158092
-0.138933
-0.118614
-0.0976717
-0.0765635
-0.0556641
-0.0352769
-0.0156474
0.00304773
0.0206705
0.037131
0.0523698
0.06636
0.0790871
0.0905623
0.100811
0.109856
0.117742
0.124506
0.130204
0.134881
0.138585
0.141371
0.143285
0.144387
0.144722
0.144333
0.143263
0.14157
0.139279
0.136438
0.133088
0.129259
0.124992
0.12031
0.115255
0.10985
0.104115
0.0980831
0.0917744
0.0852214
0.0784431
0.0714563
0.0642774
0.0569228
0.0494043
0.0416899
0.0337937
0.0255573
0.0169742
0.00828779
0.0026354
1.38246
1.23894
1.20185
1.15936
1.11579
1.07695
1.03722
0.996727
0.954407
0.909864
0.862826
0.813065
0.760561
0.705223
0.647174
0.586497
0.523494
0.458445
0.391851
0.324292
0.256401
0.189109
0.123206
0.0597964
-0.000142771
-0.0555558
-0.105483
-0.149074
-0.185675
-0.214856
-0.236457
-0.250589
-0.257599
-0.258072
-0.252712
-0.242368
-0.227887
-0.210132
-0.189914
-0.167981
-0.14499
-0.121507
-0.0980148
-0.0748972
-0.0524704
-0.0309676
-0.0105701
0.00859526
0.0264444
0.0429279
0.0580286
0.071751
0.0841071
0.0951313
0.104865
0.113356
0.120663
0.126834
0.131922
0.135992
0.139099
0.141303
0.142657
0.143208
0.143009
0.142114
0.140568
0.13841
0.135684
0.132432
0.128691
0.124502
0.119892
0.114892
0.109536
0.103846
0.0978522
0.0915864
0.0850631
0.078307
0.0713432
0.0641792
0.0568384
0.049324
0.0416237
0.0337623
0.0255134
0.0169297
0.00828308
0.00264591
1.37379
1.23024
1.19308
1.15049
1.10676
1.06761
1.0275
0.986444
0.943484
0.898085
0.850001
0.799008
0.745026
0.688002
0.628006
0.56518
0.499764
0.432138
0.36278
0.292292
0.221471
0.151154
0.0823811
0.0162388
-0.0461683
-0.103651
-0.155212
-0.199885
-0.236985
-0.26607
-0.286957
-0.29984
-0.305081
-0.303398
-0.295572
-0.282534
-0.265238
-0.244613
-0.221533
-0.196811
-0.171143
-0.145118
-0.119245
-0.0939237
-0.0694644
-0.0461058
-0.0240162
-0.00332339
0.0158967
0.0336127
0.0498109
0.0645076
0.0777324
0.0895292
0.0999431
0.109036
0.11687
0.123513
0.129015
0.133447
0.136877
0.139355
0.14095
0.141717
0.14171
0.140978
0.139578
0.137548
0.134934
0.131784
0.128131
0.124016
0.119468
0.114529
0.109225
0.103579
0.0976284
0.0913896
0.0848984
0.0781743
0.0712334
0.0640975
0.0567762
0.0492871
0.0415964
0.0337324
0.0255019
0.0169368
0.00827937
0.00263831
1.36582
1.22223
1.18497
1.14225
1.09827
1.05882
1.01825
0.976666
0.933008
0.886721
0.837556
0.785292
0.729829
0.671098
0.60917
0.544166
0.476375
0.406138
0.334006
0.260636
0.186796
0.113544
0.0418447
-0.0269993
-0.0918384
-0.151368
-0.204496
-0.250205
-0.287737
-0.316648
-0.336774
-0.348336
-0.351799
-0.347931
-0.33762
-0.321893
-0.301786
-0.27831
-0.252408
-0.224939
-0.196632
-0.168119
-0.139917
-0.112432
-0.0859861
-0.060812
-0.0370757
-0.0148965
0.00566068
0.0245728
0.0418428
0.0574909
0.0715603
0.0841048
0.0951836
0.104859
0.113205
0.120295
0.126194
0.130976
0.134709
0.13746
0.139299
0.140275
0.140448
0.139882
0.138621
0.136714
0.134212
0.131154
0.127584
0.123547
0.119065
0.114175
0.108915
0.103313
0.0974018
0.0911988
0.0847345
0.0780344
0.0711164
0.0639907
0.0566832
0.0491995
0.0415264
0.0336779
0.0254605
0.0169065
0.00826499
0.00264888
1.35856
1.21494
1.17757
1.13466
1.09046
1.05064
1.00963
0.967459
0.923093
0.875904
0.825694
0.772163
0.71524
0.654808
0.590965
0.523824
0.453656
0.38088
0.306014
0.229781
0.153055
0.0768516
0.00236745
-0.0691307
-0.136307
-0.197797
-0.252417
-0.299057
-0.33696
-0.365621
-0.384941
-0.39516
-0.396819
-0.390782
-0.378026
-0.35967
-0.336833
-0.310597
-0.281965
-0.251841
-0.221004
-0.190092
-0.159653
-0.130099
-0.101751
-0.0748439
-0.0495349
-0.0259317
-0.00409961
0.0159552
0.034245
0.0507989
0.0656699
0.0789332
0.0906382
0.100872
0.109711
0.117231
0.123511
0.12863
0.132657
0.135666
0.137728
0.138901
0.13925
0.138835
0.137709
0.13592
0.133522
0.130555
0.127064
0.123093
0.11867
0.113837
0.108623
0.103065
0.0971912
0.0910187
0.0845837
0.0779046
0.0710067
0.0639115
0.0566243
0.0491681
0.0414912
0.0336528
0.0253932
0.0168397
0.00828536
0.0026807
1.35205
1.20835
1.17086
1.1278
1.08331
1.04316
1.0016
0.958932
0.913912
0.865834
0.814556
0.75982
0.701459
0.639427
0.573727
0.504536
0.432114
0.356865
0.279389
0.200418
0.120879
0.0419198
-0.0352952
-0.109262
-0.178676
-0.241984
-0.297971
-0.345462
-0.383628
-0.412012
-0.430478
-0.439374
-0.439283
-0.431162
-0.416068
-0.395202
-0.369769
-0.340913
-0.309695
-0.277072
-0.243843
-0.21068
-0.178137
-0.146637
-0.116503
-0.0879672
-0.061182
-0.0362514
-0.0132206
0.0079056
0.0271493
0.0445541
0.0601841
0.0741055
0.0863993
0.0971539
0.106449
0.11437
0.121003
0.126433
0.130734
0.133984
0.136258
0.137618
0.13813
0.137863
0.136858
0.13518
0.13288
0.129999
0.126579
0.12267
0.118303
0.113517
0.108352
0.102827
0.0969826
0.0908387
0.0844278
0.0777719
0.0708932
0.0638126
0.056533
0.0490818
0.0414198
0.0336057
0.0253827
0.0168857
0.00827155
0.00261704
1.34628
1.20251
1.16488
1.12167
1.07693
1.03642
0.994518
0.951226
0.905412
0.856587
0.804363
0.74847
0.68879
0.625201
0.557783
0.486647
0.412083
0.334555
0.254608
0.173083
0.0909497
0.00935916
-0.0703118
-0.14663
-0.218042
-0.283028
-0.340231
-0.388423
-0.426808
-0.454832
-0.472487
-0.480088
-0.478336
-0.468242
-0.450963
-0.427771
-0.399939
-0.368672
-0.335084
-0.300163
-0.264742
-0.229514
-0.195043
-0.161763
-0.129991
-0.099964
-0.0718333
-0.0456795
-0.0215552
0.000547965
0.0206622
0.0388416
0.0551544
0.0696953
0.0825274
0.0937554
0.10347
0.111759
0.118719
0.124432
0.128987
0.132455
0.134921
0.13645
0.13711
0.136968
0.136082
0.134502
0.132289
0.129485
0.126134
0.122282
0.117968
0.113228
0.108097
0.102611
0.0967993
0.0906852
0.0842994
0.0776611
0.0708022
0.0637439
0.0564823
0.0490563
0.0414012
0.0335863
0.0253798
0.016825
0.00823932
0.00264465
1.34125
1.19745
1.15972
1.11631
1.07132
1.03051
0.988207
0.944372
0.897973
0.848377
0.795255
0.738314
0.677407
0.612445
0.543442
0.470551
0.394072
0.314411
0.232263
0.148391
0.0638886
-0.0200253
-0.101987
-0.180331
-0.253594
-0.32001
-0.378269
-0.427071
-0.465555
-0.493245
-0.510089
-0.516499
-0.513232
-0.501362
-0.482114
-0.456829
-0.426845
-0.393414
-0.357702
-0.320725
-0.283343
-0.246273
-0.210088
-0.175218
-0.141991
-0.110638
-0.0813005
-0.0540693
-0.0289696
-0.00598756
0.0149115
0.0337809
0.0507036
0.0657722
0.0790834
0.0907317
0.100818
0.109436
0.116682
0.12265
0.127426
0.131092
0.133729
0.135408
0.136202
0.136178
0.13539
0.133902
0.131765
0.129027
0.125734
0.121933
0.117668
0.112967
0.107875
0.102414
0.0966265
0.0905342
0.0841675
0.0775508
0.0707045
0.0636527
0.0564013
0.0489768
0.0413408
0.0335388
0.0253474
0.0168207
0.00822198
0.00264082
1.33705
1.19317
1.1553
1.11179
1.06657
1.02546
0.982742
0.938539
0.891619
0.841342
0.787408
0.729546
0.667574
0.601363
0.530985
0.456542
0.378345
0.296879
0.212769
0.12688
0.0403205
-0.04567
-0.129547
-0.209712
-0.284505
-0.352163
-0.411286
-0.460541
-0.499113
-0.526428
-0.542555
-0.547907
-0.543289
-0.529862
-0.5089
-0.481802
-0.449961
-0.414674
-0.377138
-0.338396
-0.29933
-0.260681
-0.223015
-0.186784
-0.152306
-0.11981
-0.0894442
-0.0612798
-0.035345
-0.0116177
0.0099409
0.0294077
0.0468637
0.0624034
0.0761226
0.0881359
0.0985405
0.10744
0.114936
0.121122
0.126092
0.129922
0.13271
0.134519
0.135424
0.135497
0.134798
0.133384
0.131319
0.12864
0.125397
0.12164
0.117411
0.112745
0.107678
0.102251
0.0964886
0.0904181
0.0840704
0.0774648
0.0706368
0.0635998
0.0563638
0.0489635
0.0413212
0.0335279
0.0253409
0.0168078
0.00822441
0.00264151
1.33363
1.18973
1.15176
1.10812
1.06272
1.02135
0.978363
0.933751
0.886362
0.835515
0.780952
0.722308
0.65944
0.592226
0.520686
0.44496
0.365371
0.28234
0.196621
0.109017
0.0207461
-0.066924
-0.152441
-0.234033
-0.310158
-0.37873
-0.438526
-0.488172
-0.526748
-0.55376
-0.569253
-0.573699
-0.56798
-0.553261
-0.530889
-0.502303
-0.468936
-0.432115
-0.393078
-0.352886
-0.312444
-0.272493
-0.233619
-0.196266
-0.160761
-0.127332
-0.0961117
-0.0671868
-0.0405645
-0.0162254
0.00588518
0.0258432
0.0437306
0.059642
0.0737001
0.0860083
0.0966782
0.105809
0.113507
0.119871
0.124993
0.128964
0.131868
0.133783
0.134779
0.134935
0.134308
0.132958
0.130942
0.128312
0.125114
0.121393
0.117198
0.112559
0.107519
0.102107
0.0963618
0.0903089
0.0839721
0.0773853
0.0705638
0.063532
0.0563078
0.0489014
0.0412744
0.0334812
0.0252976
0.0167746
0.00821171
0.00265412
1.33106
1.18712
1.14907
1.10535
1.05979
1.01824
0.97495
0.930107
0.882388
0.831105
0.775987
0.716762
0.653195
0.585169
0.512738
0.436017
0.35531
0.271129
0.184145
0.0952486
0.00566524
-0.0833196
-0.170076
-0.252793
-0.329981
-0.399192
-0.459433
-0.509336
-0.547947
-0.574679
-0.589682
-0.593447
-0.586844
-0.571135
-0.547677
-0.517951
-0.483416
-0.445435
-0.40525
-0.363954
-0.322458
-0.28152
-0.241721
-0.203515
-0.167225
-0.133082
-0.101219
-0.0717065
-0.0445602
-0.0197506
0.00277597
0.0231087
0.0413252
0.0575305
0.071843
0.0843805
0.0952465
0.104555
0.112411
0.11891
0.124156
0.128229
0.131229
0.133221
0.134291
0.134508
0.133937
0.132632
0.130661
0.128068
0.124898
0.121208
0.117032
0.112416
0.107393
0.102002
0.0962699
0.0902306
0.0839109
0.077331
0.0705243
0.0635
0.056284
0.048894
0.0412684
0.0334901
0.025306
0.0167677
0.00820497
0.00265286
1.32934
1.18536
1.14725
1.10347
1.05782
1.01614
0.972716
0.927631
0.879635
0.828066
0.772639
0.712991
0.648956
0.580417
0.507364
0.429963
0.348525
0.263516
0.17567
0.0858794
-0.00462052
-0.094458
-0.182118
-0.265536
-0.34351
-0.413177
-0.473487
-0.523612
-0.562276
-0.588835
-0.603498
-0.606771
-0.599596
-0.58321
-0.559017
-0.528517
-0.493196
-0.454425
-0.413468
-0.371427
-0.329223
-0.287613
-0.24719
-0.208407
-0.171588
-0.136962
-0.104663
-0.0747569
-0.0472558
-0.0221347
0.000674069
0.0212529
0.0396914
0.0560947
0.0705882
0.0832803
0.0942871
0.103714
0.111675
0.118264
0.123589
0.127737
0.130798
0.132846
0.133959
0.134216
0.133678
0.132412
0.130466
0.127894
0.12475
0.121075
0.11692
0.112319
0.10731
0.101926
0.0962048
0.0901784
0.0838587
0.0772885
0.0704863
0.0634655
0.056251
0.0488574
0.0412464
0.0334665
0.0253416
0.0168498
0.00817547
0.00257017
1.32847
1.18448
1.14636
1.10254
1.05684
1.0151
0.971621
0.926389
0.878225
0.826558
0.770933
0.711087
0.646812
0.577972
0.504622
0.426874
0.345048
0.259654
0.171377
0.0811489
-0.00980181
-0.100102
-0.188164
-0.272046
-0.350318
-0.420404
-0.480586
-0.530692
-0.569493
-0.595932
-0.610435
-0.613481
-0.605999
-0.589277
-0.564715
-0.53383
-0.498113
-0.458949
-0.417607
-0.375192
-0.332625
-0.29068
-0.249945
-0.210869
-0.173786
-0.13892
-0.106399
-0.0762946
-0.0486158
-0.0233267
-0.00037473
0.0203281
0.0388741
0.0553768
0.0699563
0.082723
0.0937945
0.103284
0.111299
0.117936
0.1233
0.127481
0.130572
0.132646
0.133788
0.134067
0.133551
0.132296
0.130369
0.127811
0.124673
0.121012
0.116859
0.112266
0.107262
0.101887
0.0961706
0.0901434
0.0838349
0.0772696
0.0704759
0.0634601
0.0562473
0.0488603
0.0412413
0.033466
0.025301
0.0167654
0.00819106
0.00263324
1.32847
1.18448
1.14636
1.10254
1.05685
1.0151
0.97162
0.926378
0.878217
0.82654
0.770925
0.711088
0.646803
0.57799
0.504629
0.426885
0.345067
0.259655
0.171382
0.0811504
-0.00980201
-0.100099
-0.188165
-0.272031
-0.350304
-0.420378
-0.480563
-0.530675
-0.569469
-0.595917
-0.610413
-0.613455
-0.605977
-0.589254
-0.564693
-0.533805
-0.49809
-0.458928
-0.417591
-0.375176
-0.332613
-0.29067
-0.249933
-0.210865
-0.17378
-0.138912
-0.106393
-0.0762871
-0.0486113
-0.0233308
-0.000382381
0.020319
0.0388687
0.0553701
0.0699519
0.0827184
0.0937934
0.103285
0.111298
0.117931
0.1233
0.127484
0.130573
0.132649
0.133786
0.134064
0.133541
0.13229
0.13036
0.127803
0.124668
0.121005
0.116858
0.112262
0.107259
0.101882
0.0961647
0.0901398
0.0838286
0.0772659
0.0704659
0.0634495
0.0562408
0.0488449
0.0412302
0.0334474
0.0252774
0.0167673
0.00820352
0.00264128
1.32933
1.18536
1.14725
1.10348
1.05783
1.01616
0.972766
0.927621
0.879581
0.828044
0.772624
0.712971
0.648951
0.580386
0.507346
0.429955
0.348503
0.263523
0.175676
0.085911
-0.00458894
-0.0944227
-0.182063
-0.265498
-0.343468
-0.413148
-0.473407
-0.523533
-0.562201
-0.588758
-0.603424
-0.606704
-0.599528
-0.583145
-0.558954
-0.528457
-0.493138
-0.454376
-0.413426
-0.37139
-0.32919
-0.287581
-0.247164
-0.208386
-0.171572
-0.136949
-0.104651
-0.074747
-0.0472498
-0.0221258
0.000686671
0.0212677
0.0397004
0.0560965
0.0705846
0.0832715
0.0942746
0.103701
0.111662
0.118253
0.123577
0.127724
0.130781
0.132828
0.133946
0.134203
0.133667
0.132394
0.130451
0.127881
0.124733
0.121063
0.116903
0.112302
0.107291
0.10191
0.0961913
0.090159
0.083847
0.0772774
0.0704795
0.0634629
0.0562487
0.0488622
0.0412416
0.0334636
0.0252929
0.0167509
0.00818601
0.00263799
1.33104
1.1871
1.14907
1.10534
1.05979
1.01825
0.975042
0.930081
0.882268
0.831043
0.775956
0.716744
0.653172
0.585173
0.51274
0.43602
0.355333
0.271138
0.184165
0.095275
0.00568991
-0.0832694
-0.170036
-0.252715
-0.329905
-0.39909
-0.459323
-0.509236
-0.547824
-0.574571
-0.589559
-0.593327
-0.586727
-0.571024
-0.547574
-0.517851
-0.483324
-0.445352
-0.405177
-0.363888
-0.322401
-0.28147
-0.241676
-0.203478
-0.167194
-0.133055
-0.101199
-0.0716915
-0.0445505
-0.0197475
0.00277553
0.0231029
0.0413145
0.0575141
0.0718297
0.0843657
0.0952343
0.104543
0.112398
0.118895
0.12414
0.128218
0.131212
0.133206
0.134276
0.13449
0.133912
0.132609
0.130633
0.128038
0.124874
0.121182
0.117008
0.112389
0.107368
0.101973
0.0962424
0.0902071
0.0838853
0.0773105
0.0705054
0.0634792
0.0562649
0.0488647
0.0412562
0.0334703
0.0253309
0.016832
0.00818393
0.00260051
1.33361
1.18971
1.15174
1.10811
1.06272
1.02136
0.978404
0.93372
0.886282
0.835466
0.780921
0.722278
0.659426
0.592209
0.520671
0.444962
0.365351
0.28237
0.196637
0.109066
0.0208025
-0.0668592
-0.152346
-0.233954
-0.310028
-0.378631
-0.438389
-0.488026
-0.526592
-0.553603
-0.569097
-0.573545
-0.567831
-0.553115
-0.530748
-0.502171
-0.468808
-0.432006
-0.392977
-0.352792
-0.312363
-0.272422
-0.233559
-0.196216
-0.160721
-0.1273
-0.0960859
-0.0671674
-0.0405504
-0.0162171
0.00588532
0.0258416
0.0437228
0.0596279
0.0736832
0.08599
0.0966579
0.105789
0.113487
0.119847
0.124969
0.128942
0.131845
0.133757
0.134754
0.134904
0.134281
0.132926
0.130908
0.12828
0.125079
0.12136
0.117157
0.11252
0.107484
0.102076
0.0963299
0.0902753
0.083944
0.0773564
0.0705424
0.063514
0.0562924
0.0488948
0.0412653
0.0334892
0.0253125
0.0167783
0.00819058
0.00263162
1.33701
1.19315
1.15528
1.11176
1.06656
1.02545
0.982804
0.938501
0.891509
0.841274
0.787369
0.729516
0.667545
0.601355
0.530982
0.456545
0.378375
0.296892
0.212805
0.126919
0.0403723
-0.0455784
-0.129467
-0.209586
-0.284379
-0.352013
-0.411109
-0.460376
-0.498906
-0.526247
-0.542348
-0.547712
-0.543096
-0.529678
-0.508729
-0.481643
-0.449811
-0.414538
-0.377012
-0.338283
-0.299231
-0.260595
-0.222941
-0.18672
-0.152255
-0.119769
-0.0894115
-0.0612561
-0.0353282
-0.0116099
0.00994407
0.0294028
0.0468477
0.0623771
0.0760974
0.0881099
0.0985139
0.107417
0.114915
0.1211
0.126064
0.129896
0.132678
0.134488
0.135394
0.135463
0.13476
0.133345
0.131273
0.128594
0.125355
0.121597
0.117365
0.112697
0.107633
0.102199
0.0964351
0.0903667
0.0840204
0.0774239
0.0705958
0.0635573
0.0563276
0.0489192
0.0412944
0.0334998
0.0253393
0.0168313
0.0082012
0.00260444
1.34122
1.19742
1.15967
1.11629
1.07129
1.03049
0.988193
0.94434
0.897903
0.848324
0.795222
0.738283
0.677393
0.612433
0.543433
0.470557
0.394064
0.314443
0.232293
0.14845
0.0639711
-0.0199525
-0.101855
-0.180234
-0.253419
-0.319859
-0.378073
-0.426869
-0.465346
-0.493022
-0.509871
-0.516272
-0.513019
-0.50115
-0.481913
-0.45664
-0.42666
-0.393249
-0.357551
-0.320587
-0.283226
-0.246171
-0.210001
-0.175144
-0.141931
-0.11059
-0.0812652
-0.054046
-0.0289552
-0.00598687
0.0148969
0.0337663
0.050687
0.0657498
0.0790559
0.090705
0.10079
0.109408
0.116656
0.12262
0.127392
0.131055
0.133692
0.135368
0.136161
0.136132
0.135347
0.133855
0.131715
0.128976
0.125683
0.121881
0.117607
0.112909
0.107817
0.102362
0.0965732
0.0904823
0.0841166
0.0775013
0.0706613
0.0636157
0.0563701
0.0489529
0.0413061
0.0335088
0.0252977
0.0167568
0.00822681
0.00266938
1.34623
1.20247
1.16483
1.12163
1.07688
1.03637
0.99448
0.951164
0.905394
0.856547
0.80432
0.748442
0.68876
0.625192
0.557786
0.48665
0.412119
0.334574
0.254665
0.173149
0.0910189
0.00947315
-0.0702113
-0.146474
-0.217888
-0.282842
-0.340017
-0.388217
-0.426557
-0.454596
-0.472227
-0.479833
-0.47809
-0.468008
-0.450745
-0.427568
-0.399747
-0.368496
-0.334923
-0.300018
-0.264608
-0.229405
-0.194948
-0.161679
-0.129922
-0.0999083
-0.0717911
-0.0456547
-0.0215377
0.000561619
0.0206668
0.0388368
0.0551437
0.0696656
0.0824911
0.093715
0.103424
0.111719
0.11868
0.124393
0.128942
0.132411
0.134874
0.136402
0.137066
0.136921
0.136028
0.134451
0.132231
0.129422
0.126069
0.122217
0.1179
0.113159
0.10803
0.102538
0.0967249
0.0906094
0.0842257
0.0775944
0.0707377
0.0636769
0.056423
0.0489942
0.0413425
0.0335386
0.0253133
0.0167599
0.00822715
0.00267592
1.35202
1.2083
1.17077
1.12777
1.08326
1.04312
1.00164
0.958895
0.913778
0.865756
0.814525
0.75978
0.701447
0.639406
0.573724
0.504538
0.432121
0.356889
0.279433
0.200466
0.120977
0.0419936
-0.0351474
-0.109145
-0.178484
-0.241807
-0.297749
-0.345222
-0.383384
-0.411744
-0.430224
-0.439105
-0.439034
-0.430909
-0.415825
-0.394975
-0.369548
-0.340713
-0.309519
-0.276908
-0.243698
-0.210554
-0.17803
-0.146545
-0.116429
-0.0879042
-0.0611374
-0.0362216
-0.0132014
0.00791147
0.0271404
0.044535
0.0601569
0.074073
0.0863632
0.0971146
0.106405
0.114325
0.120958
0.126383
0.130685
0.133932
0.136205
0.137562
0.138076
0.137802
0.1368
0.135116
0.132814
0.12993
0.126506
0.122594
0.118221
0.113436
0.108269
0.102748
0.0968993
0.0907587
0.0843501
0.0777025
0.0708265
0.063749
0.0564786
0.0490383
0.0413823
0.0335655
0.0253897
0.0168774
0.00823017
0.00260797
1.3585
1.21489
1.1775
1.13462
1.09039
1.0506
1.00955
0.967401
0.923049
0.875878
0.825635
0.77214
0.715197
0.654791
0.590963
0.523822
0.453688
0.38091
0.306062
0.229856
0.153129
0.0769661
0.0024936
-0.0689822
-0.136126
-0.19761
-0.252189
-0.298827
-0.336698
-0.365358
-0.384667
-0.394877
-0.396552
-0.390521
-0.377778
-0.359435
-0.336614
-0.310398
-0.281784
-0.251678
-0.220853
-0.189971
-0.159545
-0.130006
-0.101671
-0.0747784
-0.0494879
-0.0258991
-0.00407737
0.0159663
0.0342423
0.0507859
0.0656458
0.078895
0.0905963
0.100827
0.109657
0.117173
0.123454
0.128573
0.132597
0.135605
0.13767
0.138841
0.13919
0.138774
0.137643
0.135853
0.133449
0.130476
0.126981
0.123006
0.118578
0.113742
0.108524
0.102963
0.0970865
0.0909171
0.0844847
0.0778089
0.0709157
0.0638237
0.0565392
0.0490861
0.0414175
0.033591
0.0253734
0.016799
0.00823345
0.00266341
1.36577
1.22217
1.1849
1.14218
1.09822
1.05876
1.01818
0.9766
0.932951
0.886673
0.837516
0.78526
0.729803
0.671084
0.609157
0.544173
0.476376
0.406155
0.334057
0.260665
0.186905
0.113613
0.0419896
-0.0268697
-0.0916534
-0.151184
-0.204269
-0.24996
-0.287482
-0.31637
-0.336505
-0.348056
-0.351534
-0.34766
-0.337363
-0.321651
-0.301559
-0.278103
-0.252221
-0.224767
-0.196479
-0.167985
-0.1398
-0.112326
-0.0859001
-0.0607421
-0.0370271
-0.0148651
0.00568189
0.0245788
0.0418344
0.0574684
0.0715271
0.0840648
0.0951345
0.104804
0.113149
0.120233
0.12613
0.130909
0.134642
0.137392