/*--------------------------------*- C++ -*----------------------------------*\
  =========                 |
  \\      /  F ield         | OpenFOAM: The Open Source CFD Toolbox
   \\    /   O peration     | Website:  https://openfoam.org
    \\  /    A nd           | Version:  11
     \\/     M anipulation  |
\*---------------------------------------------------------------------------*/
FoamFile
{
    format      ascii;
    class       volScalarField;
    location    "0.054";
    object      k;
}
// * * * * * * * * * * * * * * * * * * * * * * * * * * * * * * * * * * * * * //

dimensions      [0 2 -2 0 0 0 0];

internalField   nonuniform List<scalar> 
287084
(
0.381446
0.395882
0.407826
0.415117
0.418296
0.418917
0.418935
0.418932
0.418788
0.418918
0.419083
0.419037
0.419045
0.419063
0.419054
0.418907
0.418831
0.418909
0.418867
0.418985
0.41919
0.419066
0.419114
0.419142
0.419105
0.419054
0.418963
0.41907
0.419187
0.419154
0.419153
0.419121
0.419083
0.418844
0.418793
0.418859
0.418805
0.4188
0.418792
0.418738
0.418628
0.41866
0.418678
0.418618
0.41863
0.418584
0.418436
0.418522
0.418722
0.418536
0.418608
0.418727
0.418722
0.418715
0.418495
0.418431
0.418534
0.418563
0.41852
0.418588
0.418609
0.418441
0.41841
0.418669
0.41882
0.418783
0.418715
0.418586
0.418673
0.418782
0.418734
0.418604
0.418553
0.418655
0.418651
0.418739
0.418764
0.41873
0.418671
0.418724
0.41886
0.418798
0.418835
0.418851
0.418807
0.418697
0.418516
0.418586
0.418667
0.418504
0.381501
0.395774
0.407638
0.415037
0.418282
0.41896
0.418962
0.418885
0.418971
0.419086
0.419088
0.419088
0.418963
0.41895
0.418946
0.418823
0.418871
0.418976
0.418911
0.418846
0.418926
0.419169
0.419303
0.41927
0.419222
0.419145
0.419083
0.419139
0.418992
0.419042
0.419159
0.419067
0.419056
0.419049
0.418992
0.418974
0.41893
0.418743
0.418796
0.41901
0.419016
0.418998
0.418758
0.418772
0.418933
0.418946
0.418953
0.418936
0.418892
0.41884
0.418767
0.418602
0.418667
0.418711
0.418688
0.418705
0.418659
0.418501
0.418547
0.418747
0.418633
0.418732
0.418795
0.418751
0.418659
0.418617
0.418775
0.418876
0.418833
0.418665
0.418745
0.418951
0.418953
0.418952
0.418846
0.418822
0.418652
0.418727
0.418881
0.418804
0.418832
0.418788
0.418625
0.418663
0.418801
0.418824
0.418783
0.418712
0.418694
0.418473
0.381503
0.395761
0.407634
0.414996
0.418214
0.419143
0.419219
0.419173
0.419022
0.419085
0.419221
0.419118
0.419123
0.41912
0.418989
0.418989
0.419168
0.419231
0.419183
0.41898
0.418964
0.419081
0.419079
0.419264
0.419348
0.419302
0.419212
0.419108
0.419094
0.419088
0.419066
0.418995
0.418963
0.418968
0.418975
0.418857
0.418866
0.418995
0.418956
0.418996
0.419
0.418936
0.41894
0.418945
0.418943
0.418947
0.418857
0.418921
0.418979
0.418924
0.4188
0.418699
0.418676
0.418536
0.418554
0.418701
0.418705
0.418621
0.41866
0.418806
0.418749
0.418755
0.418749
0.418591
0.418612
0.418836
0.41891
0.418875
0.418809
0.418764
0.41877
0.418772
0.418569
0.418547
0.418651
0.418663
0.418637
0.418605
0.418578
0.418577
0.418534
0.418656
0.41886
0.418673
0.418635
0.418696
0.41856
0.418545
0.418632
0.418493
0.381481
0.395804
0.407601
0.41491
0.418264
0.419238
0.419326
0.41928
0.419118
0.419178
0.41934
0.41931
0.419272
0.419051
0.419085
0.419262
0.4193
0.419261
0.419193
0.419142
0.419088
0.419052
0.419068
0.419042
0.419046
0.419055
0.419028
0.418959
0.419006
0.419238
0.41925
0.419251
0.419157
0.419113
0.419124
0.419135
0.419064
0.418903
0.418802
0.418929
0.418975
0.418932
0.418796
0.418872
0.418941
0.418937
0.418935
0.41884
0.418823
0.418706
0.41874
0.41876
0.41873
0.418726
0.418587
0.418543
0.418469
0.418505
0.418806
0.418876
0.418819
0.418666
0.418607
0.418722
0.418679
0.418802
0.418906
0.418729
0.41883
0.418939
0.418726
0.418681
0.418736
0.418756
0.418708
0.41874
0.418774
0.418868
0.418987
0.418987
0.418984
0.418744
0.41879
0.418893
0.41887
0.41886
0.418695
0.418718
0.418738
0.418591
0.38148
0.395808
0.407575
0.41492
0.418298
0.419035
0.418928
0.419019
0.419215
0.418992
0.419001
0.419181
0.419187
0.419178
0.418991
0.41904
0.419123
0.419025
0.419041
0.419037
0.418924
0.418895
0.41905
0.419049
0.419096
0.419104
0.419067
0.41902
0.418995
0.41899
0.418995
0.418995
0.418965
0.41894
0.418989
0.418914
0.418981
0.41923
0.419226
0.419184
0.419106
0.418927
0.418936
0.418977
0.418923
0.418815
0.418705
0.418696
0.418599
0.418583
0.418657
0.418656
0.418661
0.418661
0.418598
0.41855
0.418622
0.418604
0.418644
0.418651
0.418621
0.418571
0.418555
0.418486
0.418516
0.418636
0.418617
0.418629
0.418631
0.418592
0.418546
0.418772
0.418949
0.418918
0.418866
0.418732
0.418707
0.418667
0.418673
0.418674
0.418664
0.418609
0.418607
0.418538
0.418635
0.418841
0.418626
0.418622
0.418752
0.418588
0.381467
0.395799
0.407632
0.414959
0.418031
0.418584
0.418562
0.418785
0.41904
0.419045
0.419045
0.418949
0.418931
0.41877
0.41882
0.419073
0.419002
0.419012
0.419011
0.419036
0.419031
0.418967
0.418897
0.419009
0.419063
0.418918
0.419
0.419165
0.419151
0.419148
0.419014
0.41901
0.418998
0.419002
0.41895
0.419007
0.419033
0.419017
0.419017
0.418978
0.418952
0.418806
0.418664
0.418641
0.418659
0.418646
0.418669
0.418675
0.41873
0.418769
0.418732
0.418626
0.418719
0.418919
0.418894
0.418857
0.418771
0.41869
0.418745
0.418806
0.418759
0.418667
0.418579
0.418626
0.418611
0.418736
0.418918
0.418903
0.418885
0.418714
0.418677
0.418768
0.418667
0.418752
0.41892
0.418789
0.418712
0.418688
0.418685
0.418658
0.418635
0.418565
0.418674
0.418883
0.418781
0.41878
0.418771
0.418802
0.418759
0.418601
0.381437
0.395826
0.407631
0.414956
0.418081
0.418658
0.418839
0.418939
0.418929
0.418926
0.418738
0.41885
0.419387
0.419428
0.419343
0.41944
0.41957
0.41954
0.419538
0.41943
0.419438
0.419426
0.419279
0.41932
0.419463
0.419468
0.41946
0.419214
0.419254
0.419295
0.419057
0.419098
0.419245
0.419185
0.419189
0.41913
0.419004
0.418879
0.419032
0.419161
0.419123
0.419059
0.418919
0.418998
0.419044
0.418993
0.418832
0.418874
0.418931
0.418895
0.418842
0.418756
0.418781
0.418784
0.418724
0.418696
0.418797
0.418883
0.418863
0.418878
0.418815
0.418646
0.418538
0.418685
0.418816
0.418726
0.41874
0.41872
0.418557
0.418506
0.418654
0.418695
0.418561
0.418566
0.418778
0.418873
0.418834
0.418755
0.41872
0.418566
0.418653
0.418856
0.418675
0.418632
0.418694
0.418641
0.41877
0.418881
0.418832
0.418655
0.381465
0.395826
0.40761
0.414761
0.418297
0.419515
0.419568
0.419671
0.419786
0.419778
0.419743
0.419747
0.419754
0.419733
0.419731
0.41967
0.419575
0.419615
0.419658
0.419565
0.419567
0.419571
0.419583
0.419523
0.419439
0.419443
0.419493
0.419458
0.41942
0.419388
0.419292
0.419235
0.419169
0.419025
0.419081
0.419138
0.418955
0.418963
0.419238
0.419277
0.419217
0.419057
0.41901
0.419132
0.419196
0.419165
0.419141
0.419092
0.418906
0.418977
0.419136
0.418976
0.41907
0.419138
0.41905
0.419053
0.419048
0.419062
0.419055
0.418996
0.418873
0.418828
0.418714
0.418724
0.418728
0.418569
0.41859
0.418758
0.418814
0.4188
0.418773
0.418785
0.418772
0.418689
0.418622
0.418815
0.418924
0.418893
0.418854
0.41873
0.418693
0.418612
0.418739
0.418885
0.418889
0.418889
0.418682
0.418742
0.418795
0.418584
0.381452
0.395813
0.407637
0.414915
0.418107
0.418946
0.418978
0.418937
0.41893
0.418791
0.418864
0.419259
0.419271
0.419369
0.419401
0.419385
0.419342
0.419415
0.419631
0.419606
0.419604
0.419601
0.419608
0.419485
0.41953
0.419553
0.419532
0.41953
0.419468
0.419342
0.419171
0.419091
0.419058
0.419014
0.419094
0.419142
0.418953
0.418931
0.419044
0.418998
0.419117
0.419198
0.419005
0.419088
0.419211
0.419176
0.419137
0.419069
0.419061
0.41899
0.418845
0.418626
0.418635
0.418652
0.418535
0.418517
0.418725
0.418819
0.418772
0.418672
0.418574
0.418726
0.418805
0.418771
0.418726
0.418604
0.418607
0.418564
0.418692
0.418916
0.41892
0.418912
0.41867
0.418676
0.418805
0.418682
0.4188
0.419001
0.418987
0.418973
0.418834
0.41874
0.418723
0.418676
0.418797
0.418864
0.418779
0.418781
0.418735
0.418555
0.381446
0.395766
0.407758
0.414832
0.418067
0.418828
0.418837
0.418818
0.418771
0.418995
0.419156
0.419113
0.419016
0.418909
0.4191
0.419242
0.41918
0.419176
0.419155
0.418959
0.41893
0.419111
0.41914
0.419049
0.419042
0.419138
0.419027
0.419078
0.419259
0.419254
0.419229
0.419141
0.419099
0.419014
0.419114
0.419158
0.419112
0.419033
0.418987
0.41894
0.418896
0.418886
0.418816
0.418659
0.418534
0.418607
0.418706
0.418682
0.418676
0.418524
0.418559
0.41864
0.41863
0.418627
0.418444
0.418509
0.418557
0.418409
0.418478
0.418764
0.418772
0.41873
0.418522
0.41856
0.418675
0.418481
0.418541
0.418734
0.418625
0.41862
0.418621
0.418595
0.418496
0.418587
0.418659
0.418505
0.418569
0.418828
0.418825
0.418782
0.418577
0.41856
0.418809
0.418913
0.418897
0.418887
0.418702
0.418717
0.418778
0.418583
0.381466
0.395785
0.407643
0.414901
0.418197
0.41892
0.418923
0.418856
0.418825
0.418974
0.419022
0.418935
0.418949
0.419103
0.419114
0.419047
0.419183
0.419379
0.419296
0.419373
0.419397
0.419328
0.419323
0.419238
0.419284
0.419303
0.419135
0.419194
0.419214
0.419172
0.4191
0.419172
0.419284
0.419281
0.41928
0.419191
0.419177
0.419171
0.419145
0.419039
0.418955
0.418786
0.418612
0.418675
0.418714
0.418593
0.418713
0.418894
0.41886
0.418856
0.418825
0.418837
0.418791
0.418692
0.418607
0.418654
0.418664
0.418519
0.418542
0.418725
0.418763
0.418712
0.418506
0.418571
0.418705
0.418705
0.418704
0.418492
0.418556
0.418715
0.418701
0.418649
0.418653
0.41881
0.418696
0.418665
0.418732
0.41865
0.418749
0.418926
0.41871
0.418764
0.418923
0.418869
0.418839
0.418724
0.418761
0.418788
0.41874
0.418569
0.381445
0.395827
0.407605
0.414922
0.418166
0.419004
0.419136
0.419102
0.419097
0.418999
0.418975
0.419211
0.419249
0.419374
0.419576
0.419458
0.419469
0.419462
0.419333
0.419406
0.419546
0.419318
0.419353
0.419517
0.419451
0.419494
0.419526
0.419491
0.41945
0.41944
0.419395
0.419317
0.419228
0.419165
0.419124
0.419069
0.419005
0.418874
0.418718
0.418676
0.418688
0.41866
0.41863
0.418625
0.418714
0.418737
0.418704
0.418613
0.418699
0.418881
0.418767
0.418836
0.418919
0.418901
0.418877
0.418642
0.418567
0.418632
0.418646
0.41853
0.41856
0.418733
0.418609
0.418712
0.418824
0.418827
0.418827
0.418604
0.418683
0.418895
0.418873
0.418835
0.418628
0.418681
0.418775
0.418767
0.418763
0.418549
0.418623
0.418835
0.418811
0.418749
0.418662
0.41878
0.418852
0.4188
0.418607
0.418585
0.418717
0.418558
0.381466
0.395823
0.407617
0.414733
0.418346
0.419431
0.419477
0.419482
0.419396
0.419522
0.419624
0.419419
0.419493
0.419624
0.419445
0.41954
0.419646
0.419603
0.419598
0.419459
0.419569
0.419668
0.41944
0.4195
0.419636
0.419652
0.419609
0.419573
0.419561
0.419416
0.419226
0.419236
0.419256
0.419232
0.419169
0.419219
0.419281
0.419246
0.419221
0.419021
0.419059
0.419101
0.419044
0.418908
0.418859
0.419004
0.41908
0.419048
0.419004
0.418965
0.418904
0.418891
0.41884
0.418679
0.418727
0.418829
0.418817
0.418812
0.418619
0.418722
0.418879
0.418854
0.418821
0.41867
0.418642
0.418549
0.418574
0.418729
0.418775
0.418765
0.41874
0.418753
0.418749
0.418669
0.418617
0.418814
0.418917
0.418869
0.418763
0.418674
0.418798
0.418851
0.418812
0.418754
0.418639
0.418672
0.41875
0.41876
0.418714
0.418571
0.381452
0.395778
0.407678
0.414975
0.418013
0.418614
0.418701
0.418833
0.418759
0.418838
0.418865
0.418842
0.418868
0.418838
0.418756
0.418884
0.419118
0.418994
0.419089
0.419149
0.418989
0.419042
0.419299
0.41921
0.419327
0.419498
0.419357
0.419403
0.419412
0.419363
0.419222
0.419245
0.41926
0.419117
0.41907
0.419189
0.419225
0.41914
0.419155
0.419206
0.419194
0.419105
0.41908
0.419062
0.419034
0.419072
0.419025
0.419037
0.419047
0.419002
0.418905
0.418689
0.418729
0.418816
0.418802
0.418798
0.418595
0.418654
0.418807
0.418812
0.41881
0.418586
0.418606
0.418739
0.418725
0.418656
0.418592
0.418706
0.418824
0.418808
0.418753
0.418721
0.418703
0.418555
0.418564
0.4188
0.41869
0.418783
0.418966
0.41881
0.418901
0.418969
0.418954
0.418949
0.418727
0.418727
0.418965
0.419006
0.418953
0.418728
0.381466
0.395824
0.407609
0.414759
0.418282
0.419565
0.419704
0.419675
0.419579
0.419661
0.419755
0.419589
0.419659
0.419706
0.419607
0.419597
0.419596
0.419463
0.419522
0.419633
0.419557
0.419581
0.419579
0.419621
0.419579
0.419548
0.41952
0.419529
0.419501
0.419507
0.419463
0.419391
0.419328
0.419268
0.419199
0.419148
0.419082
0.418947
0.418779
0.418731
0.418687
0.41862
0.418733
0.418898
0.418883
0.418874
0.418757
0.418726
0.418607
0.418697
0.418803
0.418614
0.418688
0.418861
0.418868
0.418864
0.418708
0.41859
0.418604
0.418594
0.418728
0.418971
0.418899
0.418899
0.418843
0.418906
0.418928
0.418911
0.418906
0.418702
0.418734
0.418766
0.418734
0.418716
0.418622
0.418815
0.418916
0.418863
0.418715
0.418653
0.418824
0.418904
0.418851
0.418854
0.418823
0.418591
0.418599
0.418751
0.41874
0.418614
0.381502
0.395799
0.407543
0.414935
0.418183
0.418868
0.419077
0.419163
0.418947
0.418997
0.419149
0.419114
0.41911
0.418991
0.419085
0.419248
0.419208
0.419099
0.419055
0.419139
0.419164
0.419107
0.419168
0.419335
0.4192
0.419163
0.419291
0.419327
0.419185
0.41923
0.419328
0.419117
0.419171
0.419293
0.419238
0.419227
0.419134
0.419131
0.419092
0.419053
0.418997
0.418971
0.418938
0.418909
0.418857
0.418759
0.418488
0.418552
0.418773
0.418628
0.418715
0.418761
0.418727
0.418629
0.418668
0.418986
0.418917
0.418998
0.419273
0.419275
0.419236
0.419039
0.419074
0.419147
0.419123
0.419117
0.419124
0.419128
0.419062
0.419039
0.418878
0.418704
0.418802
0.418917
0.418868
0.418689
0.418673
0.418758
0.418751
0.418651
0.418711
0.41889
0.418883
0.418879
0.418707
0.418716
0.418782
0.418782
0.418777
0.418587
0.381475
0.395836
0.40759
0.414743
0.418209
0.419627
0.419907
0.419898
0.419907
0.419846
0.419786
0.419834
0.419844
0.4198
0.419609
0.419614
0.41966
0.419437
0.419499
0.419638
0.419397
0.419372
0.419476
0.419441
0.419526
0.419562
0.419541
0.419534
0.419378
0.419342
0.419317
0.419332
0.419319
0.419141
0.41911
0.419068
0.419058
0.419019
0.418955
0.418924
0.418845
0.418585
0.418576
0.418726
0.418728
0.418691
0.418481
0.418526
0.418671
0.418505
0.418605
0.418728
0.418594
0.418503
0.418634
0.418766
0.418881
0.419027
0.418823
0.418892
0.419048
0.418831
0.418897
0.419006
0.418884
0.418903
0.41886
0.418725
0.418692
0.41872
0.418598
0.418687
0.418775
0.41878
0.41878
0.418611
0.418562
0.418768
0.418869
0.41886
0.418859
0.418797
0.418782
0.418602
0.418669
0.41885
0.418643
0.418698
0.418862
0.418626
0.381466
0.395826
0.407604
0.41478
0.418211
0.41971
0.419874
0.419841
0.419823
0.419836
0.41985
0.419813
0.419808
0.419649
0.419699
0.419729
0.419541
0.419622
0.419713
0.419488
0.419555
0.419705
0.419578
0.419565
0.419644
0.419662
0.419633
0.419618
0.419477
0.419397
0.419356
0.419294
0.419248
0.419207
0.419182
0.419143
0.419072
0.418916
0.418776
0.418708
0.418671
0.418576
0.418597
0.418689
0.418619
0.41862
0.418566
0.418661
0.418748
0.418749
0.418749
0.418581
0.418525
0.418629
0.418639
0.41879
0.419017
0.418896
0.418987
0.419046
0.418993
0.419008
0.419019
0.418995
0.418765
0.418771
0.418877
0.418796
0.41872
0.418808
0.418941
0.418944
0.418945
0.418899
0.418779
0.418752
0.41885
0.418836
0.418836
0.418814
0.418666
0.418617
0.418816
0.418874
0.418829
0.41875
0.418633
0.41871
0.418757
0.418594
0.381475
0.395836
0.407593
0.414727
0.418266
0.419503
0.419559
0.419685
0.419781
0.419628
0.419692
0.419716
0.419673
0.419542
0.419594
0.419664
0.419426
0.419484
0.419627
0.419429
0.419395
0.419465
0.419434
0.419499
0.419516
0.419487
0.419492
0.419441
0.419419
0.419374
0.419357
0.419294
0.419059
0.419096
0.419216
0.419074
0.419133
0.419202
0.41918
0.419167
0.419024
0.418914
0.418848
0.418745
0.418639
0.418539
0.418497
0.418379
0.418421
0.418683
0.418691
0.418656
0.418588
0.418485
0.418609
0.41884
0.418975
0.419062
0.418923
0.419017
0.419075
0.419002
0.419036
0.419054
0.419013
0.418832
0.418871
0.418964
0.418861
0.418794
0.41886
0.418906
0.418784
0.418854
0.418883
0.418835
0.418684
0.418729
0.418838
0.418829
0.418826
0.418712
0.418688
0.418521
0.418584
0.418764
0.418674
0.418631
0.418586
0.41846
0.381466
0.395873
0.4075
0.414867
0.418258
0.419272
0.419331
0.419287
0.41915
0.419186
0.419301
0.419275
0.419273
0.419119
0.419203
0.41933
0.419214
0.419287
0.41932
0.419298
0.419239
0.419319
0.419604
0.41953
0.419589
0.41961
0.419571
0.41952
0.419415
0.419359
0.419327
0.41928
0.419238
0.419193
0.419142
0.419092
0.419013
0.418961
0.418902
0.418795
0.41869
0.418647
0.41854
0.418552
0.41862
0.418583
0.418595
0.418594
0.418554
0.41843
0.418517
0.419224
0.419393
0.419376
0.419317
0.419363
0.419408
0.419407
0.419406
0.419158
0.419197
0.419277
0.419179
0.419206
0.419153
0.419152
0.419152
0.41904
0.419101
0.419153
0.419123
0.419113
0.419025
0.418984
0.418861
0.418903
0.418928
0.418841
0.418867
0.418821
0.418617
0.418636
0.418742
0.418662
0.418635
0.418583
0.418559
0.418599
0.418585
0.418466
0.381471
0.395794
0.407626
0.41492
0.418127
0.418772
0.418744
0.418711
0.418787
0.418926
0.418901
0.418884
0.418728
0.418703
0.419024
0.419144
0.419109
0.418988
0.418977
0.419315
0.419637
0.419654
0.419663
0.419637
0.419614
0.419489
0.419378
0.41941
0.41946
0.41942
0.419363
0.419266
0.419154
0.419098
0.418998
0.418951
0.419053
0.419096
0.419039
0.418926
0.418803
0.418811
0.41883
0.418779
0.418591
0.418644
0.418727
0.418714
0.418713
0.41864
0.418639
0.41859
0.418432
0.418448
0.418582
0.418524
0.418557
0.418517
0.418481
0.418447
0.418412
0.418388
0.418383
0.418409
0.418369
0.418499
0.418612
0.418405
0.418391
0.41867
0.418848
0.418833
0.418826
0.418818
0.418774
0.418688
0.418648
0.41883
0.418947
0.418872
0.418866
0.418847
0.418656
0.41861
0.418677
0.418685
0.418597
0.418645
0.418729
0.418547
0.381467
0.395822
0.40762
0.414724
0.418368
0.419429
0.41944
0.419448
0.419438
0.419456
0.419394
0.4195
0.419612
0.419574
0.41949
0.419448
0.419475
0.419429
0.419427
0.419401
0.41954
0.419707
0.419693
0.419689
0.419668
0.419674
0.419661
0.419631
0.419404
0.419353
0.419318
0.41913
0.419203
0.419248
0.419233
0.419218
0.418991
0.418926
0.418877
0.418796
0.418749
0.418708
0.418659
0.418621
0.418605
0.418396
0.418395
0.418584
0.418662
0.418628
0.418436
0.418429
0.418874
0.419337
0.419279
0.419277
0.419249
0.419353
0.419435
0.419373
0.419378
0.419376
0.419256
0.419297
0.419323
0.419069
0.419105
0.419193
0.418976
0.419047
0.419196
0.41903
0.419109
0.419236
0.419223
0.419212
0.419218
0.419232
0.419194
0.419189
0.419109
0.418931
0.418712
0.418783
0.418872
0.418819
0.418671
0.418624
0.418682
0.418518
0.381466
0.395825
0.407608
0.414767
0.418262
0.419627
0.419737
0.419597
0.419701
0.419785
0.41965
0.419636
0.419633
0.419637
0.419535
0.419624
0.419719
0.419489
0.419553
0.419711
0.419703
0.419671
0.419696
0.419854
0.419856
0.419817
0.419822
0.41977
0.419596
0.419541
0.419483
0.419367
0.419292
0.419242
0.41918
0.418997
0.419006
0.419023
0.41882
0.418895
0.419052
0.41902
0.41898
0.418734
0.418762
0.41885
0.418718
0.418803
0.418849
0.4188
0.418704
0.418597
0.418876
0.419358
0.419278
0.4194
0.419499
0.4194
0.419397
0.419375
0.419386
0.419306
0.419371
0.419405
0.419167
0.419211
0.419293
0.419087
0.419168
0.419289
0.419283
0.419322
0.419267
0.419233
0.419254
0.419258
0.419184
0.419176
0.419062
0.419051
0.41905
0.419049
0.419026
0.418985
0.418913
0.418704
0.41876
0.418887
0.41884
0.418664
0.38147
0.395769
0.40767
0.414942
0.418019
0.41896
0.418989
0.418953
0.418879
0.418865
0.418887
0.418889
0.418799
0.418847
0.419271
0.419275
0.419301
0.419621
0.419807
0.419773
0.41968
0.419632
0.419667
0.419604
0.419581
0.419577
0.419521
0.419558
0.419573
0.419537
0.419509
0.419476
0.419429
0.419356
0.419197
0.419137
0.419045
0.418831
0.418717
0.418851
0.418935
0.418879
0.418913
0.418873
0.41883
0.418831
0.418785
0.418643
0.418694
0.418776
0.418524
0.418561
0.418663
0.418595
0.418591
0.418513
0.41864
0.418735
0.418717
0.418723
0.418718
0.41861
0.418666
0.418977
0.418987
0.418929
0.418724
0.418716
0.418867
0.418815
0.418878
0.418896
0.41886
0.418764
0.418814
0.418868
0.418683
0.418752
0.418933
0.418779
0.41872
0.418723
0.418592
0.418601
0.418831
0.418875
0.418816
0.418813
0.418781
0.418538
0.38146
0.39585
0.407549
0.41485
0.418312
0.419232
0.419486
0.419456
0.419257
0.419316
0.419476
0.419437
0.419434
0.419369
0.419372
0.41937
0.419263
0.419244
0.419317
0.419319
0.419325
0.41924
0.419372
0.41955
0.419349
0.419421
0.419595
0.41956
0.419485
0.419428
0.419357
0.419115
0.419159
0.419196
0.419177
0.41917
0.419074
0.419055
0.418979
0.418826
0.418648
0.418599
0.418552
0.418407
0.418379
0.418465
0.418526
0.418487
0.418382
0.418304
0.418477
0.418622
0.418621
0.418619
0.418404
0.418462
0.418569
0.418392
0.418484
0.418685
0.418628
0.418641
0.418703
0.418694
0.418617
0.418615
0.41857
0.418472
0.418372
0.418541
0.418723
0.418701
0.418621
0.418661
0.418707
0.418518
0.418613
0.418718
0.418683
0.418569
0.418554
0.418789
0.418875
0.418843
0.418796
0.418754
0.418653
0.418547
0.418509
0.418394
0.381466
0.395824
0.407614
0.414743
0.418334
0.419454
0.419471
0.419475
0.419456
0.419594
0.419686
0.41953
0.419627
0.419716
0.419656
0.419643
0.419655
0.41966
0.419483
0.419482
0.419597
0.419534
0.419664
0.419751
0.41973
0.419729
0.419682
0.419625
0.419495
0.41944
0.41935
0.419265
0.419213
0.419155
0.419029
0.418885
0.41893
0.418954
0.41891
0.418845
0.418808
0.418739
0.418705
0.418661
0.418597
0.418541
0.418339
0.418365
0.41857
0.418571
0.418572
0.418497
0.418519
0.418611
0.418608
0.418582
0.41843
0.418371
0.418544
0.418588
0.418458
0.418459
0.418708
0.418812
0.418764
0.418769
0.418749
0.418648
0.418491
0.418543
0.418608
0.41846
0.418541
0.418822
0.418841
0.418808
0.418766
0.418725
0.418659
0.418613
0.418568
0.418432
0.41849
0.418752
0.418766
0.418756
0.418565
0.418644
0.418777
0.418569
0.381466
0.395826
0.407605
0.414781
0.418212
0.419712
0.419876
0.419826
0.419818
0.419676
0.41975
0.419794
0.419669
0.419737
0.419764
0.419588
0.419669
0.419766
0.419539
0.419601
0.419766
0.419555
0.419545
0.41975
0.41983
0.419823
0.419795
0.41977
0.419777
0.419773
0.419739
0.419698
0.41962
0.419503
0.419235
0.419028
0.419046
0.419099
0.419064
0.419051
0.418946
0.418823
0.418818
0.41882
0.418779
0.418666
0.418688
0.418709
0.418679
0.418671
0.418504
0.418562
0.419249
0.41949
0.419345
0.419439
0.419505
0.419463
0.419438
0.419428
0.419451
0.419375
0.419371
0.419358
0.419163
0.419168
0.419233
0.419034
0.419108
0.419232
0.419124
0.419149
0.419094
0.419067
0.419059
0.418907
0.418951
0.41902
0.418987
0.418953
0.418964
0.418978
0.41876
0.418819
0.418898
0.41889
0.418889
0.418803
0.418773
0.418519
0.381466
0.395825
0.407607
0.414767
0.418262
0.419629
0.419739
0.4196
0.419703
0.419788
0.419688
0.41971
0.419667
0.419641
0.419536
0.419625
0.419721
0.419491
0.419553
0.419712
0.419605
0.419698
0.41977
0.419692
0.419738
0.41975
0.419726
0.419704
0.419616
0.419535
0.419468
0.419345
0.419142
0.419095
0.419085
0.419023
0.419036
0.418986
0.41882
0.418898
0.419055
0.419023
0.418982
0.418736
0.418763
0.41885
0.418763
0.418803
0.418826
0.418783
0.418672
0.418607
0.418921
0.419243
0.419243
0.419226
0.419278
0.419323
0.419291
0.419283
0.419071
0.41914
0.419244
0.419039
0.419116
0.419208
0.419096
0.419113
0.419071
0.41891
0.418958
0.419137
0.419131
0.419094
0.41909
0.419043
0.418911
0.418836
0.418791
0.418648
0.418737
0.418884
0.418678
0.418757
0.418868
0.418866
0.418866
0.418812
0.41879
0.418536
0.381467
0.395822
0.407621
0.414724
0.418367
0.419429
0.419416
0.419516
0.419613
0.419552
0.419589
0.419549
0.41941
0.419484
0.419628
0.419597
0.419481
0.419494
0.419577
0.419478
0.419555
0.419612
0.419563
0.41939
0.419434
0.419533
0.419312
0.419373
0.419588
0.419567
0.419525
0.419447
0.419463
0.419461
0.419412
0.419323
0.4193
0.419191
0.418924
0.418736
0.418749
0.418763
0.418734
0.418738
0.41867
0.418459
0.418399
0.418625
0.418712
0.418671
0.418598
0.418519
0.418897
0.419285
0.419266
0.41927
0.419242
0.419292
0.41937
0.419335
0.419246
0.419137
0.419187
0.419237
0.41919
0.419101
0.419007
0.418983
0.418844
0.418868
0.419084
0.419104
0.41907
0.419031
0.418893
0.418934
0.419049
0.418936
0.419008
0.41904
0.419009
0.418999
0.418909
0.418858
0.418814
0.418683
0.418754
0.418875
0.418826
0.418646
0.381472
0.395789
0.40764
0.414895
0.418128
0.41886
0.41887
0.418872
0.418776
0.418934
0.419124
0.419091
0.419022
0.418939
0.418981
0.418964
0.419094
0.419182
0.419034
0.41912
0.419335
0.419407
0.419536
0.419369
0.419426
0.419599
0.419547
0.419446
0.419487
0.41953
0.419496
0.419489
0.419403
0.419373
0.419312
0.419191
0.419015
0.419046
0.419064
0.418913
0.418989
0.419032
0.418898
0.41889
0.41892
0.418918
0.418897
0.418894
0.418824
0.418795
0.418838
0.418862
0.418829
0.418781
0.418554
0.418499
0.418496
0.418351
0.418354
0.41865
0.418727
0.418685
0.418611
0.418529
0.4187
0.418856
0.418867
0.418841
0.418851
0.418741
0.418785
0.418989
0.418886
0.418986
0.419038
0.418903
0.418965
0.418991
0.418908
0.418925
0.418937
0.418903
0.418696
0.418709
0.418887
0.418878
0.418925
0.418934
0.418875
0.418596
0.381506
0.395787
0.407558
0.414937
0.418162
0.418846
0.419061
0.419151
0.419078
0.419072
0.419013
0.418994
0.418876
0.41897
0.41926
0.419279
0.419235
0.419089
0.419069
0.419
0.419071
0.419491
0.419542
0.419493
0.419383
0.419288
0.419375
0.419455
0.419439
0.419439
0.419379
0.419133
0.419149
0.41924
0.419221
0.419204
0.419016
0.419021
0.419031
0.419001
0.419005
0.418978
0.418929
0.418894
0.418833
0.418801
0.418805
0.418797
0.418685
0.41862
0.418412
0.418412
0.41862
0.418617
0.418626
0.418573
0.418605
0.418608
0.418777
0.418994
0.418972
0.418885
0.418901
0.41897
0.418893
0.418884
0.418776
0.418855
0.418895
0.418745
0.418842
0.418923
0.418906
0.418901
0.418719
0.418783
0.41891
0.418886
0.418884
0.418824
0.418677
0.418595
0.418727
0.418812
0.418755
0.418585
0.418533
0.418647
0.418666
0.418542
0.381501
0.395799
0.407545
0.414935
0.418183
0.418867
0.41907
0.419156
0.418967
0.41903
0.419066
0.419031
0.41893
0.418936
0.419247
0.419296
0.419241
0.419043
0.419029
0.419356
0.419466
0.419419
0.419419
0.419431
0.419425
0.419386
0.419318
0.419195
0.419194
0.419194
0.419014
0.419058
0.419249
0.419255
0.419257
0.4192
0.419122
0.418967
0.418875
0.418885
0.418887
0.418886
0.418855
0.418559
0.418519
0.418628
0.418654
0.418619
0.418424
0.418474
0.418833
0.418776
0.418825
0.419144
0.419185
0.419129
0.419011
0.418897
0.419033
0.41916
0.419089
0.419083
0.419071
0.418871
0.418875
0.418973
0.418804
0.418888
0.419003
0.418992
0.418991
0.418903
0.418877
0.418695
0.418756
0.418865
0.418836
0.418833
0.418777
0.418783
0.41871
0.418706
0.418708
0.418714
0.418645
0.418487
0.418613
0.418783
0.41874
0.41857
0.381466
0.395826
0.407606
0.41477
0.418247
0.419645
0.419779
0.419713
0.41972
0.419672
0.41974
0.419799
0.419748
0.41976
0.419774
0.419762
0.41957
0.419623
0.419711
0.419487
0.419555
0.419705
0.419562
0.419608
0.419644
0.419617
0.419651
0.419608
0.419531
0.419296
0.419274
0.419288
0.419089
0.419152
0.419208
0.418949
0.418931
0.419044
0.419015
0.419015
0.418962
0.418788
0.418837
0.419012
0.418833
0.418921
0.419029
0.418852
0.418936
0.419002
0.418981
0.418971
0.418814
0.418789
0.418666
0.418752
0.418986
0.418873
0.418871
0.418866
0.418889
0.418882
0.418895
0.418852
0.418705
0.418768
0.418892
0.418792
0.418716
0.418809
0.418941
0.418944
0.418944
0.418898
0.418779
0.418813
0.418895
0.418869
0.418853
0.418721
0.418683
0.418602
0.418735
0.418877
0.41888
0.41888
0.418678
0.418745
0.418799
0.418588
0.381475
0.395837
0.407587
0.414748
0.418185
0.419693
0.419866
0.419783
0.419766
0.419743
0.419709
0.419757
0.419794
0.41975
0.419727
0.41979
0.419834
0.419797
0.419786
0.419795
0.419809
0.419761
0.419668
0.419605
0.419682
0.419694
0.419655
0.41966
0.419653
0.419657
0.419637
0.419588
0.419502
0.419323
0.419115
0.419191
0.419251
0.419208
0.419155
0.418952
0.418982
0.419024
0.41898
0.418849
0.418882
0.41892
0.418738
0.418702
0.41888
0.418999
0.418958
0.418971
0.418948
0.418783
0.418742
0.418948
0.419002
0.418953
0.418831
0.418781
0.418884
0.418819
0.418917
0.419118
0.41898
0.419055
0.419192
0.419156
0.419165
0.419142
0.41896
0.418892
0.418968
0.419069
0.419039
0.418982
0.418822
0.4188
0.418868
0.418885
0.418887
0.41879
0.418759
0.418551
0.418521
0.418645
0.418653
0.418662
0.418647
0.418498
0.381467
0.395869
0.407516
0.414822
0.418318
0.419247
0.41927
0.419232
0.419175
0.419141
0.418987
0.41906
0.41922
0.418991
0.419025
0.419173
0.41915
0.419149
0.41907
0.419216
0.419403
0.419331
0.419326
0.419328
0.419319
0.419247
0.419202
0.419043
0.419049
0.419278
0.41929
0.419268
0.419061
0.419096
0.4192
0.419197
0.419194
0.419128
0.419107
0.418993
0.418855
0.418766
0.418507
0.418476
0.418653
0.418671
0.418635
0.418487
0.418552
0.4188
0.418799
0.418761
0.41863
0.418569
0.418667
0.41866
0.418743
0.419109
0.419138
0.419051
0.419049
0.419036
0.418878
0.418837
0.418934
0.418905
0.41898
0.419003
0.418953
0.418956
0.418943
0.41879
0.418842
0.41891
0.418718
0.418805
0.41891
0.4187
0.418651
0.418749
0.418774
0.418813
0.418878
0.418851
0.418827
0.418667
0.418736
0.418888
0.418842
0.418659
0.381466
0.395825
0.407608
0.414764
0.418274
0.419558
0.419668
0.419776
0.419811
0.419754
0.419739
0.419762
0.41977
0.419596
0.419635
0.419696
0.419568
0.419676
0.419747
0.419548
0.419626
0.419713
0.419658
0.419648
0.41963
0.419619
0.419457
0.41932
0.419386
0.419486
0.419428
0.419421
0.419411
0.41935
0.419256
0.419176
0.419013
0.41887
0.418807
0.418744
0.418657
0.418618
0.41854
0.418575
0.418707
0.418579
0.418602
0.418739
0.418619
0.41872
0.418869
0.418876
0.418876
0.418707
0.418656
0.418798
0.418898
0.418862
0.418741
0.418803
0.418885
0.418687
0.418748
0.418883
0.41866
0.418682
0.418825
0.418683
0.418654
0.418781
0.418803
0.418884
0.418919
0.418877
0.418748
0.418779
0.41886
0.418818
0.418741
0.418651
0.418784
0.418896
0.418851
0.418846
0.418819
0.418591
0.418596
0.418743
0.418735
0.41861
0.38145
0.3958
0.407664
0.414933
0.418073
0.418732
0.418736
0.418676
0.418729
0.418999
0.419017
0.418959
0.418803
0.418742
0.419062
0.419333
0.419316
0.41924
0.419328
0.419538
0.419338
0.419331
0.419604
0.419717
0.419672
0.419685
0.419689
0.419681
0.419582
0.419268
0.419266
0.419296
0.419273
0.419266
0.419121
0.419187
0.419201
0.419092
0.41903
0.419076
0.419122
0.419064
0.418852
0.418847
0.418942
0.418871
0.418939
0.418967
0.418927
0.418871
0.418745
0.418678
0.418486
0.41852
0.418755
0.418759
0.41874
0.418556
0.418588
0.418711