/*--------------------------------*- C++ -*----------------------------------*\
  =========                 |
  \\      /  F ield         | OpenFOAM: The Open Source CFD Toolbox
   \\    /   O peration     | Website:  https://openfoam.org
    \\  /    A nd           | Version:  11
     \\/     M anipulation  |
\*---------------------------------------------------------------------------*/
FoamFile
{
    format      ascii;
    class       volScalarField;
    location    "0.054";
    object      nut;
}
// * * * * * * * * * * * * * * * * * * * * * * * * * * * * * * * * * * * * * //

dimensions      [0 2 -1 0 0 0 0];

internalField   nonuniform List<scalar> 
287084
(
0.000836244
0.000868782
0.000896518
0.000914078
0.000922114
0.000924166
0.000924587
0.000924787
0.000924567
0.000924868
0.000925218
0.000925096
0.000925089
0.000925081
0.000925003
0.000924609
0.00092437
0.000924468
0.000924306
0.000924501
0.000924895
0.000924571
0.000924632
0.000924668
0.000924574
0.000924461
0.000924266
0.000924513
0.000924772
0.00092473
0.000924808
0.000924908
0.000925003
0.000924638
0.000924678
0.000924978
0.000925013
0.000925153
0.000925288
0.000925314
0.000925209
0.000925413
0.000925575
0.000925555
0.000925683
0.000925675
0.000925427
0.000925687
0.000926191
0.000925831
0.000926028
0.000926304
0.000926293
0.000926279
0.000925792
0.000925649
0.00092586
0.000925908
0.000925798
0.000925942
0.00092598
0.000925591
0.00092551
0.000926063
0.000926374
0.000926278
0.000926097
0.00092578
0.000925961
0.00092619
0.000926067
0.000925735
0.000925612
0.000925836
0.000925813
0.000926
0.000926035
0.000925953
0.000925812
0.000925915
0.00092621
0.000926065
0.000926126
0.000926155
0.000926041
0.000925781
0.000925395
0.000925568
0.000925742
0.000925351
0.00118207
0.00122649
0.00126376
0.00128721
0.00129765
0.00130001
0.00130015
0.00129999
0.00130029
0.00130064
0.00130062
0.00130056
0.00130011
0.00129998
0.00129987
0.00129938
0.00129943
0.00129965
0.00129935
0.00129905
0.00129922
0.0012999
0.00130025
0.00130012
0.00129995
0.00129971
0.00129955
0.00129979
0.00129939
0.00129965
0.00130016
0.00130003
0.00130017
0.00130034
0.00130036
0.00130051
0.00130059
0.00130022
0.0013006
0.00130147
0.00130169
0.00130182
0.00130124
0.00130145
0.00130209
0.00130226
0.0013024
0.00130244
0.00130239
0.0013023
0.00130213
0.00130167
0.00130191
0.00130209
0.00130203
0.00130208
0.00130193
0.00130142
0.00130155
0.00130216
0.0013018
0.00130209
0.00130226
0.00130211
0.00130179
0.00130163
0.00130211
0.00130239
0.00130224
0.0013017
0.00130193
0.00130256
0.00130254
0.00130253
0.00130219
0.0013021
0.00130155
0.00130176
0.00130222
0.00130196
0.00130203
0.00130188
0.00130134
0.00130146
0.00130189
0.00130196
0.00130182
0.0013016
0.00130154
0.00130085
0.00118213
0.00122665
0.00126399
0.00128731
0.00129761
0.0013007
0.00130103
0.00130094
0.00130048
0.00130066
0.00130104
0.00130066
0.00130059
0.00130049
0.00129998
0.00129988
0.00130032
0.00130041
0.00130015
0.00129942
0.00129929
0.00129958
0.00129951
0.00130005
0.00130029
0.00130016
0.00129991
0.00129965
0.0012997
0.00129979
0.00129986
0.00129979
0.00129986
0.00130006
0.00130029
0.00130013
0.00130038
0.001301
0.0013011
0.00130143
0.00130165
0.00130164
0.00130182
0.001302
0.00130214
0.00130228
0.00130212
0.00130241
0.00130268
0.00130258
0.00130225
0.00130198
0.00130195
0.00130154
0.00130162
0.00130209
0.00130211
0.00130184
0.00130194
0.00130238
0.0013022
0.00130221
0.00130216
0.00130165
0.0013017
0.00130236
0.00130257
0.00130245
0.00130222
0.00130207
0.00130207
0.00130206
0.00130141
0.00130132
0.00130163
0.00130165
0.00130155
0.00130144
0.00130134
0.00130132
0.00130117
0.00130154
0.00130216
0.00130157
0.00130145
0.00130163
0.0013012
0.00130114
0.0013014
0.00130094
0.00118208
0.00122691
0.00126415
0.00128736
0.00129809
0.00130126
0.00130157
0.00130142
0.00130088
0.00130101
0.00130145
0.00130127
0.00130107
0.00130027
0.00130027
0.0013007
0.0013007
0.00130047
0.00130015
0.00129988
0.00129963
0.00129944
0.00129943
0.0012993
0.0012993
0.00129933
0.00129928
0.00129913
0.00129937
0.00130021
0.00130039
0.00130055
0.00130044
0.00130051
0.00130075
0.00130101
0.00130102
0.00130074
0.00130065
0.00130126
0.00130161
0.00130167
0.00130142
0.00130182
0.00130218
0.0013023
0.00130241
0.0013022
0.00130223
0.00130194
0.0013021
0.00130221
0.00130215
0.00130216
0.00130175
0.00130162
0.0013014
0.00130151
0.00130244
0.00130264
0.00130245
0.00130196
0.00130175
0.00130209
0.00130194
0.0013023
0.0013026
0.00130203
0.00130232
0.00130264
0.00130195
0.00130179
0.00130194
0.00130198
0.00130181
0.00130189
0.00130198
0.00130226
0.00130261
0.0013026
0.00130258
0.00130182
0.00130195
0.00130226
0.00130218
0.00130214
0.00130162
0.00130168
0.00130174
0.00130124
0.00118209
0.00122701
0.00126418
0.00128752
0.00129833
0.00130075
0.00130043
0.00130068
0.00130123
0.00130048
0.00130042
0.00130088
0.0013008
0.00130066
0.00129996
0.00129999
0.00130012
0.0012997
0.00129963
0.00129951
0.00129906
0.00129888
0.0012993
0.00129925
0.00129938
0.00129941
0.00129933
0.00129925
0.00129927
0.00129938
0.00129954
0.00129972
0.00129983
0.00129996
0.00130034
0.00130034
0.00130079
0.0013018
0.00130201
0.00130211
0.00130207
0.00130171
0.00130192
0.00130221
0.00130219
0.00130198
0.00130175
0.00130182
0.0013016
0.00130161
0.0013019
0.00130193
0.00130198
0.001302
0.00130182
0.00130168
0.0013019
0.00130184
0.00130196
0.00130196
0.00130185
0.00130168
0.00130161
0.00130137
0.00130144
0.0013018
0.00130171
0.00130173
0.00130171
0.00130156
0.0013014
0.00130208
0.00130261
0.00130249
0.00130231
0.00130187
0.00130178
0.00130164
0.00130164
0.00130163
0.00130158
0.0013014
0.00130138
0.00130116
0.00130145
0.00130208
0.00130141
0.00130139
0.00130178
0.00130124
0.00118205
0.001227
0.00126442
0.00128774
0.00129761
0.00129946
0.00129939
0.00130004
0.00130075
0.00130068
0.00130058
0.00130017
0.0013
0.00129938
0.0012994
0.00130006
0.00129971
0.0012996
0.00129948
0.00129943
0.00129932
0.00129903
0.00129874
0.00129904
0.00129919
0.00129874
0.00129904
0.00129962
0.00129968
0.00129981
0.00129954
0.00129972
0.0012999
0.00130014
0.00130022
0.00130064
0.00130097
0.00130118
0.00130142
0.00130153
0.00130166
0.00130141
0.00130115
0.00130125
0.00130145
0.00130153
0.00130172
0.00130183
0.00130208
0.00130226
0.00130219
0.0013019
0.00130222
0.00130286
0.00130279
0.00130268
0.0013024
0.00130214
0.0013023
0.00130247
0.00130231
0.001302
0.0013017
0.00130183
0.00130175
0.00130212
0.00130266
0.00130259
0.00130251
0.00130195
0.00130181
0.00130207
0.00130174
0.00130198
0.00130248
0.00130206
0.0013018
0.00130171
0.00130168
0.00130158
0.0013015
0.00130127
0.0013016
0.00130223
0.00130191
0.0013019
0.00130186
0.00130195
0.00130181
0.00130127
0.00118197
0.00122711
0.00126446
0.00128779
0.00129784
0.00129975
0.00130031
0.00130055
0.00130044
0.00130033
0.00129964
0.00129987
0.00130141
0.0013014
0.00130099
0.00130115
0.00130141
0.00130118
0.00130104
0.00130058
0.00130049
0.00130036
0.00129982
0.0012999
0.00130032
0.00130034
0.00130036
0.00129967
0.00129991
0.00130018
0.00129962
0.00129994
0.00130063
0.00130069
0.00130096
0.00130105
0.00130092
0.0013008
0.00130153
0.00130217
0.00130228
0.00130229
0.00130204
0.00130245
0.00130274
0.00130271
0.00130231
0.00130253
0.00130279
0.00130273
0.00130261
0.00130237
0.00130247
0.0013025
0.00130231
0.00130222
0.00130253
0.00130278
0.00130271
0.00130273
0.00130251
0.00130196
0.0013016
0.00130203
0.00130241
0.00130211
0.00130212
0.00130203
0.0013015
0.00130131
0.00130175
0.00130185
0.00130141
0.00130141
0.00130204
0.00130232
0.00130218
0.00130192
0.00130179
0.0013013
0.00130155
0.00130218
0.0013016
0.00130145
0.00130164
0.00130146
0.00130186
0.00130219
0.00130203
0.00130145
0.00118205
0.00122712
0.00126442
0.00128722
0.00129855
0.00130246
0.00130262
0.00130287
0.00130314
0.001303
0.00130277
0.00130265
0.00130253
0.00130231
0.00130216
0.00130181
0.00130136
0.00130133
0.00130132
0.0013009
0.00130078
0.00130069
0.00130064
0.0013004
0.00130011
0.00130014
0.00130033
0.00130031
0.00130031
0.00130037
0.00130027
0.00130031
0.00130036
0.00130018
0.00130064
0.0013011
0.00130082
0.00130112
0.00130225
0.00130262
0.00130267
0.00130239
0.00130243
0.00130298
0.00130333
0.00130335
0.00130338
0.00130331
0.00130281
0.00130308
0.00130361
0.00130314
0.00130345
0.00130366
0.00130339
0.00130339
0.00130336
0.00130339
0.00130334
0.00130313
0.00130273
0.00130256
0.00130217
0.00130218
0.00130216
0.00130164
0.00130167
0.00130216
0.00130231
0.00130224
0.00130213
0.00130214
0.00130208
0.0013018
0.00130157
0.00130215
0.00130247
0.00130235
0.00130221
0.00130181
0.00130168
0.00130142
0.0013018
0.00130224
0.00130225
0.00130224
0.00130159
0.00130177
0.00130192
0.00130123
0.00118201
0.00122709
0.00126451
0.00128772
0.00129799
0.00130073
0.00130082
0.00130062
0.00130049
0.00129994
0.00130003
0.00130112
0.00130101
0.00130115
0.00130108
0.00130087
0.00130056
0.00130063
0.00130114
0.00130092
0.00130078
0.00130066
0.00130059
0.00130015
0.00130025
0.00130034
0.00130031
0.0013004
0.00130034
0.00130013
0.0012998
0.0012998
0.00129998
0.00130013
0.00130068
0.00130114
0.00130087
0.0013011
0.00130173
0.00130186
0.00130247
0.00130294
0.00130254
0.00130297
0.00130349
0.00130351
0.00130349
0.00130336
0.00130339
0.00130322
0.0013028
0.00130213
0.00130217
0.00130222
0.00130185
0.00130178
0.00130241
0.00130268
0.00130251
0.00130217
0.00130183
0.00130227
0.00130249
0.00130235
0.00130217
0.00130176
0.00130174
0.00130158
0.00130195
0.00130261
0.0013026
0.00130255
0.00130177
0.00130176
0.00130215
0.00130174
0.00130209
0.00130269
0.00130263
0.00130257
0.00130212
0.00130182
0.00130176
0.00130159
0.00130196
0.00130216
0.00130188
0.00130188
0.00130173
0.00130113
0.00118199
0.00122695
0.0012649
0.00128748
0.00129789
0.00130038
0.00130039
0.00130026
0.00130001
0.00130057
0.00130093
0.00130064
0.00130018
0.00129968
0.00130009
0.00130036
0.00129998
0.00129979
0.00129956
0.00129879
0.00129855
0.00129899
0.00129898
0.00129863
0.00129858
0.00129889
0.00129859
0.00129885
0.00129957
0.00129974
0.00129989
0.00129989
0.00130006
0.00130012
0.00130076
0.00130123
0.00130142
0.00130149
0.00130165
0.00130179
0.00130191
0.0013021
0.00130208
0.00130177
0.00130152
0.00130187
0.00130227
0.00130227
0.00130231
0.00130188
0.00130201
0.00130227
0.00130224
0.00130223
0.00130164
0.00130182
0.00130195
0.00130146
0.00130164
0.0013025
0.00130249
0.00130232
0.00130164
0.00130172
0.00130204
0.0013014
0.00130156
0.00130212
0.00130175
0.00130171
0.00130168
0.00130157
0.00130124
0.0013015
0.0013017
0.00130119
0.00130137
0.00130216
0.00130213
0.00130198
0.00130133
0.00130126
0.00130202
0.00130234
0.00130228
0.00130223
0.00130165
0.00130169
0.00130187
0.00130123
0.00118206
0.00122701
0.00126454
0.0012877
0.0012983
0.00130068
0.00130067
0.00130038
0.00130017
0.0013005
0.00130049
0.00130006
0.00129993
0.00130023
0.00130008
0.00129967
0.0012999
0.00130032
0.00129987
0.00129994
0.00129985
0.00129951
0.00129938
0.00129905
0.00129915
0.00129922
0.00129876
0.00129906
0.00129928
0.00129936
0.00129939
0.00129992
0.00130059
0.00130093
0.00130129
0.00130138
0.00130169
0.00130202
0.00130226
0.00130222
0.00130223
0.00130194
0.0013016
0.00130197
0.00130223
0.00130197
0.00130243
0.00130307
0.00130301
0.00130303
0.00130295
0.00130299
0.00130284
0.00130251
0.00130223
0.00130235
0.00130235
0.00130186
0.00130189
0.00130242
0.0013025
0.0013023
0.00130162
0.00130178
0.00130216
0.00130212
0.00130208
0.00130139
0.00130155
0.00130202
0.00130194
0.00130175
0.00130174
0.0013022
0.00130182
0.0013017
0.00130189
0.00130161
0.0013019
0.00130244
0.00130175
0.0013019
0.00130238
0.0013022
0.0013021
0.00130173
0.00130184
0.00130191
0.00130176
0.00130119
0.00118199
0.00122714
0.00126443
0.00128778
0.00129821
0.00130094
0.00130133
0.00130114
0.00130101
0.00130056
0.00130033
0.00130089
0.00130082
0.00130101
0.00130143
0.00130086
0.00130069
0.00130046
0.00129986
0.0012999
0.00130016
0.00129931
0.0012993
0.00129973
0.00129949
0.00129963
0.00129979
0.00129981
0.00129986
0.00130006
0.00130021
0.00130029
0.00130038
0.00130056
0.00130083
0.00130105
0.00130124
0.0013012
0.00130105
0.00130123
0.00130155
0.0013017
0.00130182
0.00130197
0.00130239
0.00130257
0.00130255
0.00130233
0.00130264
0.00130323
0.00130288
0.00130309
0.00130333
0.00130325
0.00130315
0.00130238
0.00130211
0.00130227
0.00130227
0.00130186
0.00130191
0.00130241
0.00130198
0.00130225
0.00130256
0.00130253
0.00130249
0.00130176
0.00130197
0.00130259
0.00130249
0.00130234
0.00130167
0.00130181
0.00130207
0.00130203
0.00130199
0.0013013
0.00130151
0.00130216
0.00130207
0.00130186
0.00130157
0.00130193
0.00130214
0.00130197
0.00130135
0.00130128
0.00130168
0.00130114
0.00118206
0.00122713
0.00126447
0.00128719
0.00129877
0.00130227
0.00130239
0.00130232
0.00130192
0.00130216
0.00130232
0.00130149
0.00130153
0.00130172
0.00130095
0.00130103
0.00130113
0.00130077
0.00130055
0.00129991
0.00130007
0.00130022
0.00129938
0.00129948
0.00129986
0.00129992
0.00129987
0.00129989
0.00130005
0.00129985
0.00129958
0.00129997
0.00130043
0.00130077
0.001301
0.00130158
0.00130219
0.00130247
0.00130275
0.00130245
0.00130286
0.00130324
0.00130327
0.00130302
0.001303
0.00130356
0.00130388
0.00130383
0.00130373
0.00130362
0.00130342
0.00130337
0.00130319
0.00130265
0.00130276
0.00130304
0.00130296
0.00130289
0.00130224
0.00130251
0.00130295
0.00130282
0.00130267
0.00130215
0.00130202
0.00130169
0.00130172
0.00130217
0.00130227
0.0013022
0.00130209
0.0013021
0.00130206
0.00130178
0.00130159
0.00130218
0.00130248
0.00130231
0.00130195
0.00130166
0.00130203
0.00130218
0.00130204
0.00130185
0.00130148
0.00130157
0.00130181
0.00130183
0.00130168
0.00130119
0.00118201
0.00122699
0.00126466
0.00128794
0.00129774
0.00129973
0.00129998
0.00130029
0.00129993
0.00130001
0.00129992
0.00129966
0.00129952
0.00129921
0.00129873
0.00129889
0.00129938
0.00129876
0.00129882
0.00129879
0.0012981
0.00129809
0.00129875
0.00129838
0.0012987
0.00129925
0.00129889
0.00129918
0.00129943
0.00129956
0.00129947
0.00129993
0.0013004
0.00130041
0.00130073
0.00130156
0.00130211
0.00130226
0.00130268
0.00130318
0.00130344
0.00130342
0.00130355
0.00130367
0.00130372
0.00130393
0.00130386
0.00130394
0.00130399
0.00130386
0.00130355
0.00130285
0.00130294
0.00130317
0.00130308
0.00130302
0.00130233
0.00130246
0.00130288
0.00130284
0.00130278
0.00130203
0.00130204
0.0013024
0.00130231
0.00130205
0.0013018
0.00130211
0.00130244
0.00130235
0.00130214
0.00130201
0.00130192
0.00130143
0.00130143
0.00130214
0.00130178
0.00130204
0.00130259
0.00130209
0.00130235
0.00130255
0.00130249
0.00130246
0.00130176
0.00130174
0.00130248
0.0013026
0.00130242
0.00130168
0.00118206
0.00122713
0.00126444
0.00128727
0.00129857
0.00130267
0.00130308
0.00130289
0.00130245
0.00130254
0.00130265
0.00130193
0.00130193
0.00130184
0.00130129
0.00130101
0.00130075
0.00130008
0.00130002
0.00130013
0.00129968
0.00129957
0.00129941
0.00129944
0.00129927
0.00129919
0.00129919
0.00129939
0.00129954
0.00129987
0.00130011
0.00130031
0.00130058
0.00130088
0.00130117
0.0013015
0.00130176
0.00130178
0.00130166
0.00130186
0.00130203
0.00130208
0.00130265
0.00130333
0.00130342
0.00130348
0.00130318
0.00130312
0.00130276
0.00130304
0.00130335
0.00130273
0.00130291
0.0013034
0.00130337
0.0013033
0.00130275
0.00130232
0.0013023
0.00130221
0.00130257
0.00130327
0.00130299
0.00130293
0.0013027
0.00130285
0.00130287
0.00130277
0.00130271
0.00130204
0.0013021
0.00130216
0.00130203
0.00130194
0.00130162
0.0013022
0.00130249
0.0013023
0.00130182
0.0013016
0.00130212
0.00130235
0.00130217
0.00130217
0.00130206
0.00130132
0.00130134
0.0013018
0.00130176
0.00130133
0.00118217
0.00122705
0.00126423
0.00128781
0.00129825
0.0013005
0.00130112
0.00130128
0.00130047
0.00130045
0.00130073
0.00130041
0.00130016
0.00129954
0.00129958
0.00129982
0.00129943
0.00129882
0.00129842
0.00129844
0.00129829
0.00129791
0.00129794
0.00129835
0.00129789
0.00129779
0.00129829
0.00129858
0.00129841
0.00129888
0.00129959
0.0012994
0.00130007
0.00130098
0.00130134
0.00130182
0.00130203
0.00130248
0.00130278
0.00130302
0.00130316
0.00130335
0.00130346
0.00130354
0.0013035
0.00130328
0.0013025
0.00130272
0.00130342
0.00130295
0.00130319
0.00130329
0.00130313
0.00130277
0.00130283
0.00130375
0.00130347
0.00130365
0.00130444
0.00130438
0.00130419
0.00130351
0.00130356
0.00130373
0.0013036
0.00130353
0.0013035
0.00130346
0.00130322
0.0013031
0.00130256
0.00130198
0.00130225
0.00130258
0.0013024
0.00130181
0.00130173
0.00130198
0.00130193
0.0013016
0.00130177
0.00130231
0.00130228
0.00130225
0.0013017
0.00130172
0.00130191
0.0013019
0.00130188
0.00130125
0.00118209
0.00122717
0.00126438
0.0012872
0.00129832
0.00130285
0.00130368
0.00130354
0.00130343
0.00130305
0.00130267
0.00130259
0.00130238
0.00130199
0.00130113
0.00130086
0.00130072
0.00129975
0.00129966
0.00129982
0.00129883
0.00129855
0.0012987
0.00129848
0.00129869
0.00129883
0.00129888
0.00129905
0.00129885
0.00129911
0.00129947
0.00130001
0.00130051
0.00130051
0.00130098
0.00130141
0.0013019
0.00130226
0.00130249
0.00130278
0.00130285
0.00130231
0.0013025
0.00130313
0.00130326
0.00130323
0.00130262
0.00130278
0.00130323
0.00130269
0.00130296
0.00130329
0.00130281
0.00130246
0.0013028
0.00130314
0.00130342
0.0013038
0.00130309
0.00130323
0.00130365
0.00130291
0.00130304
0.00130332
0.00130288
0.00130289
0.0013027
0.00130223
0.00130208
0.00130212
0.0013017
0.00130194
0.00130218
0.00130216
0.00130213
0.00130157
0.00130139
0.00130201
0.0013023
0.00130226
0.00130223
0.00130202
0.00130196
0.00130139
0.00130158
0.00130214
0.00130148
0.00130165
0.00130215
0.00130137
0.00118206
0.00122714
0.00126442
0.00128732
0.00129832
0.0013031
0.00130357
0.00130335
0.00130314
0.001303
0.00130282
0.00130248
0.00130221
0.00130145
0.00130132
0.00130113
0.00130024
0.00130019
0.00130018
0.00129921
0.00129915
0.00129939
0.00129883
0.00129867
0.00129887
0.00129895
0.00129898
0.00129915
0.00129902
0.00129916
0.00129951
0.00129985
0.00130027
0.00130074
0.00130126
0.00130172
0.00130205
0.00130206
0.00130207
0.00130225
0.00130247
0.00130244
0.00130273
0.00130318
0.00130308
0.00130315
0.00130303
0.00130333
0.00130359
0.00130356
0.00130351
0.00130293
0.00130269
0.00130294
0.00130289
0.00130328
0.0013039
0.00130344
0.00130365
0.00130375
0.00130351
0.00130349
0.00130345
0.00130332
0.00130254
0.0013025
0.00130277
0.00130247
0.00130218
0.00130241
0.00130278
0.00130275
0.00130272
0.00130254
0.00130213
0.00130202
0.0013023
0.00130223
0.0013022
0.00130212
0.00130164
0.00130146
0.00130207
0.00130224
0.00130208
0.00130182
0.00130144
0.00130167
0.00130181
0.00130126
0.00118209
0.00122717
0.00126438
0.00128715
0.00129849
0.00130244
0.00130258
0.00130284
0.00130299
0.00130231
0.0013023
0.00130213
0.00130174
0.00130105
0.00130092
0.00130084
0.00129978
0.00129965
0.00129978
0.00129887
0.0012985
0.00129848
0.0012982
0.00129828
0.00129828
0.00129823
0.00129838
0.00129845
0.00129871
0.00129899
0.00129943
0.0012998
0.00129968
0.00130042
0.00130141
0.00130158
0.00130233
0.00130307
0.00130346
0.00130382
0.00130371
0.00130364
0.00130365
0.00130349
0.00130328
0.00130304
0.00130294
0.00130257
0.00130269
0.00130346
0.00130343
0.00130325
0.00130296
0.00130256
0.00130286
0.00130349
0.00130383
0.00130401
0.00130349
0.0013037
0.0013038
0.0013035
0.00130354
0.00130352
0.00130333
0.00130271
0.00130277
0.00130301
0.00130263
0.00130238
0.00130254
0.00130264
0.00130222
0.00130241
0.00130246
0.00130228
0.00130179
0.0013019
0.00130222
0.00130217
0.00130214
0.00130177
0.00130167
0.00130114
0.00130132
0.00130187
0.00130158
0.00130144
0.00130129
0.00130086
0.00118206
0.00122728
0.00126409
0.00128758
0.00129846
0.00130171
0.00130185
0.00130159
0.001301
0.00130092
0.00130105
0.00130072
0.00130045
0.00129968
0.00129964
0.00129972
0.00129903
0.00129893
0.00129871
0.00129834
0.00129787
0.00129788
0.00129857
0.00129822
0.00129835
0.00129846
0.00129848
0.00129856
0.00129859
0.00129885
0.00129928
0.00129972
0.00130023
0.00130074
0.00130123
0.0013017
0.00130205
0.00130242
0.00130271
0.00130279
0.0013028
0.00130295
0.00130283
0.00130302
0.00130334
0.00130329
0.00130336
0.00130335
0.0013032
0.00130276
0.00130297
0.0013051
0.00130554
0.0013054
0.00130513
0.00130518
0.00130522
0.00130513
0.00130504
0.00130418
0.00130422
0.00130439
0.001304
0.00130402
0.00130378
0.00130372
0.00130366
0.00130325
0.00130339
0.00130351
0.00130337
0.00130329
0.00130298
0.00130282
0.0013024
0.0013025
0.00130255
0.00130225
0.00130231
0.00130215
0.00130149
0.00130153
0.00130185
0.00130158
0.00130148
0.00130131
0.00130123
0.00130134
0.00130129
0.00130088
0.00118207
0.00122704
0.00126448
0.00128774
0.00129804
0.00130016
0.00130001
0.00129979
0.00129985
0.00130008
0.00129978
0.00129947
0.00129871
0.00129834
0.00129902
0.00129906
0.00129862
0.00129791
0.00129754
0.00129828
0.00129898
0.00129879
0.00129861
0.0012984
0.00129828
0.00129794
0.00129775
0.00129811
0.00129863
0.00129897
0.00129934
0.00129965
0.00129996
0.00130047
0.00130083
0.00130133
0.00130225
0.00130293
0.00130324
0.0013033
0.00130327
0.00130357
0.00130384
0.00130384
0.00130336
0.00130359
0.00130387
0.00130382
0.00130378
0.0013035
0.00130343
0.00130319
0.00130261
0.00130257
0.00130289
0.00130261
0.00130261
0.00130239
0.00130219
0.00130199
0.0013018
0.00130164
0.00130155
0.00130155
0.00130136
0.0013017
0.00130199
0.00130129
0.00130119
0.00130201
0.00130252
0.00130243
0.00130237
0.00130231
0.00130214
0.00130183
0.00130168
0.00130222
0.00130256
0.00130231
0.00130227
0.00130219
0.00130158
0.00130142
0.00130162
0.00130163
0.00130134
0.00130148
0.00130174
0.00130113
0.00118206
0.00122713
0.00126446
0.00128713
0.00129879
0.00130219
0.00130217
0.00130207
0.00130186
0.00130171
0.00130128
0.00130135
0.00130142
0.00130099
0.00130041
0.00129995
0.00129969
0.0012992
0.00129885
0.00129845
0.00129858
0.00129884
0.00129859
0.00129844
0.00129833
0.0012984
0.00129852
0.0012987
0.00129838
0.0012987
0.00129916
0.00129921
0.00130012
0.00130095
0.00130159
0.00130221
0.00130212
0.00130248
0.00130282
0.00130299
0.00130319
0.00130334
0.00130341
0.00130344
0.0013035
0.0013029
0.00130291
0.00130349
0.00130369
0.00130353
0.00130285
0.00130275
0.00130404
0.00130539
0.0013051
0.00130499
0.0013048
0.00130503
0.00130519
0.0013049
0.00130483
0.00130474
0.00130428
0.00130433
0.00130435
0.00130349
0.00130354
0.00130375
0.00130302
0.00130319
0.00130361
0.00130305
0.00130325
0.00130361
0.00130354
0.00130347
0.00130346
0.00130348
0.00130333
0.00130329
0.00130302
0.00130245
0.00130175
0.00130196
0.00130223
0.00130205
0.00130158
0.00130142
0.0013016
0.00130104
0.00118206
0.00122714
0.00126442
0.00128726
0.00129845
0.0013028
0.00130309
0.00130252
0.00130266
0.00130272
0.00130206
0.00130175
0.00130146
0.00130116
0.00130051
0.00130045
0.00130039
0.00129932
0.00129918
0.00129933
0.001299
0.00129864
0.00129851
0.00129886
0.00129882
0.00129876
0.00129895
0.00129906
0.00129892
0.00129924
0.00129964
0.00129994
0.00130039
0.00130095
0.00130146
0.00130156
0.00130222
0.00130284
0.0013027
0.00130337
0.00130421
0.00130439
0.00130448
0.00130387
0.00130405
0.00130438
0.00130398
0.00130423
0.00130433
0.00130412
0.00130374
0.00130331
0.00130408
0.00130549
0.00130513
0.00130541
0.00130561
0.0013052
0.00130509
0.00130493
0.00130487
0.00130453
0.00130466
0.00130468
0.00130387
0.00130394
0.00130413
0.00130343
0.00130363
0.00130395
0.00130389
0.00130396
0.00130375
0.00130361
0.00130364
0.00130362
0.00130336
0.00130331
0.00130293
0.00130287
0.00130284
0.00130282
0.00130273
0.00130259
0.00130235
0.00130169
0.00130186
0.00130224
0.00130209
0.0013015
0.00118207
0.00122696
0.00126461
0.00128781
0.0012977
0.00130072
0.00130076
0.00130051
0.0013001
0.00129985
0.00129968
0.00129942
0.00129884
0.00129868
0.00129966
0.00129934
0.00129906
0.00129969
0.00129992
0.00129947
0.00129888
0.00129846
0.00129836
0.00129802
0.00129791
0.00129796
0.00129795
0.00129835
0.0012988
0.00129919
0.0012997
0.00130026
0.00130082
0.00130131
0.00130153
0.00130203
0.00130238
0.00130228
0.00130243
0.00130327
0.00130389
0.001304
0.00130432
0.00130435
0.00130431
0.00130437
0.00130424
0.00130377
0.00130388
0.00130408
0.00130321
0.00130323
0.00130345
0.00130313
0.00130301
0.00130266
0.00130295
0.00130314
0.00130299
0.00130291
0.0013028
0.00130238
0.00130247
0.00130336
0.00130332
0.00130307
0.00130236
0.00130228
0.00130269
0.00130248
0.00130263
0.00130264
0.00130249
0.00130215
0.00130227
0.00130241
0.0013018
0.00130199
0.00130253
0.00130202
0.00130182
0.00130181
0.00130138
0.0013014
0.0013021
0.00130222
0.00130202
0.00130201
0.0013019
0.0013011
0.00118204
0.00122721
0.00126424
0.00128752
0.00129861
0.00130156
0.0013023
0.00130207
0.00130127
0.00130124
0.0013015
0.00130111
0.00130081
0.00130029
0.00129997
0.00129961
0.00129892
0.0012985
0.00129837
0.00129804
0.00129775
0.00129721
0.00129741
0.00129783
0.00129715
0.00129745
0.00129815
0.00129833
0.0012985
0.00129884
0.00129922
0.00129914
0.00129998
0.00130082
0.00130148
0.00130214
0.00130248
0.001303
0.00130327
0.00130322
0.00130302
0.00130315
0.00130322
0.00130292
0.00130293
0.00130325
0.00130345
0.00130331
0.00130293
0.00130262
0.00130308
0.00130343
0.00130333
0.00130322
0.00130244
0.00130251
0.00130274
0.00130208
0.00130227
0.0013028
0.00130253
0.00130248
0.00130259
0.00130248
0.00130217
0.00130209
0.00130189
0.00130152
0.00130115
0.00130163
0.00130215
0.00130203
0.00130174
0.00130183
0.00130194
0.00130132
0.00130158
0.00130188
0.00130175
0.00130137
0.0013013
0.00130201
0.00130226
0.00130215
0.00130199
0.00130185
0.00130152
0.00130118
0.00130106
0.00130066
0.00118206
0.00122713
0.00126444
0.00128718
0.00129868
0.00130225
0.00130225
0.00130213
0.00130189
0.00130211
0.00130215
0.0013014
0.00130141
0.00130137
0.00130085
0.00130046
0.00130014
0.00129979
0.00129889
0.00129854
0.00129859
0.00129812
0.00129832
0.00129845
0.00129834
0.0012984
0.00129842
0.00129853
0.00129853
0.00129888
0.0012992
0.0012996
0.00130015
0.00130069
0.00130102
0.00130126
0.00130203
0.00130269
0.00130305
0.00130328
0.00130352
0.00130358
0.00130369
0.00130371
0.00130361
0.00130348
0.00130287
0.00130293
0.00130352
0.00130345
0.00130337
0.00130305
0.00130301
0.00130319
0.00130307
0.00130288
0.0013023
0.00130201
0.00130246
0.00130249
0.00130199
0.00130191
0.0013026
0.00130285
0.00130263
0.00130257
0.00130244
0.00130207
0.00130152
0.00130164
0.00130179
0.00130128
0.00130149
0.00130233
0.00130236
0.00130222
0.00130206
0.0013019
0.00130167
0.0013015
0.00130134
0.0013009
0.00130107
0.00130187
0.0013019
0.00130185
0.00130125
0.00130148
0.00130189
0.0013012
0.00118206
0.00122714
0.00126441
0.0012873
0.0012983
0.00130306
0.00130351
0.00130322
0.00130302
0.00130237
0.00130236
0.00130222
0.00130154
0.00130145
0.00130119
0.0013003
0.0013002
0.00130014
0.00129909
0.00129894
0.00129914
0.00129822
0.00129798
0.00129847
0.00129868
0.00129872
0.0012988
0.00129901
0.00129943
0.00129992
0.00130042
0.00130095
0.00130141
0.00130177
0.00130165
0.00130169
0.00130238
0.00130312
0.00130351
0.0013039
0.00130392
0.00130382
0.00130402
0.00130418
0.00130415
0.00130385
0.00130393
0.00130398
0.00130384
0.00130375
0.00130314
0.00130323
0.00130528
0.00130592
0.00130536
0.00130554
0.00130564
0.00130541
0.00130523
0.0013051
0.00130508
0.00130476
0.00130466
0.00130455
0.00130387
0.00130381
0.00130395
0.00130327
0.00130344
0.00130378
0.00130339
0.00130343
0.00130322
0.00130309
0.00130303
0.00130253
0.00130263
0.00130282
0.00130269
0.00130257
0.00130258
0.0013026
0.00130191
0.00130207
0.00130231
0.00130227
0.00130226
0.00130198
0.00130188
0.00130105
0.00118206
0.00122714
0.00126442
0.00128726
0.00129845
0.00130281
0.00130309
0.00130253
0.00130267
0.00130273
0.00130218
0.00130198
0.00130156
0.00130117
0.00130052
0.00130045
0.0013004
0.00129933
0.00129917
0.00129933
0.00129869
0.00129872
0.00129874
0.00129836
0.00129846
0.00129855
0.00129864
0.00129885
0.00129898
0.00129922
0.0012996
0.00129986
0.00129993
0.00130049
0.00130116
0.00130164
0.00130231
0.00130272
0.0013027
0.00130337
0.00130421
0.0013044
0.00130448
0.00130387
0.00130406
0.00130438
0.00130412
0.00130423
0.00130426
0.00130406
0.00130364
0.00130334
0.00130423
0.00130513
0.00130502
0.00130486
0.00130492
0.00130496
0.00130476
0.00130464
0.00130389
0.00130402
0.00130426
0.00130354
0.00130371
0.00130393
0.00130352
0.00130351
0.00130332
0.00130277
0.00130287
0.00130338
0.00130333
0.00130317
0.00130313
0.00130295
0.00130251
0.00130225
0.00130208
0.00130161
0.00130187
0.00130231
0.00130165
0.00130188
0.00130221
0.00130219
0.00130218
0.00130201
0.00130193
0.0013011
0.00118206
0.00122712
0.00126446
0.00128713
0.00129879
0.00130219
0.0013021
0.00130228
0.0013024
0.00130201
0.00130189
0.00130151
0.00130079
0.00130072
0.00130084
0.00130041
0.00129971
0.0012994
0.00129932
0.00129869
0.00129862
0.00129854
0.00129819
0.00129752
0.00129761
0.00129797
0.00129744
0.0012979
0.00129895
0.00129936
0.0012998
0.00130019
0.00130092
0.00130161
0.00130215
0.00130253
0.00130308
0.0013033
0.00130296
0.0013028
0.00130319
0.00130351
0.00130364
0.0013038
0.0013037
0.00130309
0.00130293
0.00130362
0.00130385
0.00130366
0.00130336
0.00130303
0.00130411
0.00130522
0.00130506
0.00130497
0.00130478
0.00130484
0.00130498
0.00130478
0.00130442
0.00130399
0.00130407
0.00130415
0.00130393
0.00130359
0.00130323
0.0013031
0.00130261
0.00130263
0.00130326
0.00130328
0.00130313
0.00130297
0.00130251
0.00130261
0.00130293
0.00130256
0.00130276
0.00130283
0.00130271
0.00130266
0.00130237
0.00130219
0.00130204
0.00130162
0.00130183
0.0013022
0.00130204
0.00130144
0.00118208
0.00122702
0.00126452
0.00128767
0.00129805
0.00130043
0.00130041
0.00130029
0.00129982
0.00130011
0.00130047
0.00130011
0.00129962
0.00129907
0.00129889
0.00129851
0.00129858
0.00129851
0.00129772
0.00129767
0.00129804
0.00129802
0.00129822
0.00129757
0.0012977
0.00129829
0.00129827
0.00129822
0.00129871
0.00129931
0.00129975
0.00130035
0.00130073
0.00130132
0.0013018
0.00130207
0.00130213
0.00130278
0.00130332
0.00130326
0.00130384
0.00130426
0.00130405
0.00130419
0.00130439
0.00130444
0.0013044
0.00130438
0.00130413
0.00130398
0.00130405
0.00130404
0.00130385
0.0013036
0.0013028
0.00130253
0.00130243
0.00130188
0.00130179
0.00130262
0.00130278
0.00130257
0.00130226
0.00130193
0.00130239
0.00130281
0.00130279
0.00130265
0.00130262
0.00130223
0.00130232
0.00130291