/*--------------------------------*- C++ -*----------------------------------*\
  =========                 |
  \\      /  F ield         | OpenFOAM: The Open Source CFD Toolbox
   \\    /   O peration     | Website:  https://openfoam.org
    \\  /    A nd           | Version:  11
     \\/     M anipulation  |
\*---------------------------------------------------------------------------*/
FoamFile
{
    format      ascii;
    class       volScalarField;
    location    "0.054";
    object      omega;
}
// * * * * * * * * * * * * * * * * * * * * * * * * * * * * * * * * * * * * * //

dimensions      [0 0 -1 0 0 0 0];

internalField   nonuniform List<scalar> 
287084
(
55.0109
56.044
56.8546
57.3233
57.5133
57.5448
57.5444
57.5433
57.5346
57.5446
57.5549
57.5533
57.5544
57.5528
57.5506
57.5392
57.5362
57.5454
57.5413
57.5491
57.5622
57.5543
57.5565
57.5579
57.5551
57.5484
57.545
57.5544
57.5615
57.5583
57.5583
57.5574
57.5538
57.5344
57.5339
57.5422
57.5375
57.5377
57.5347
57.5276
57.5228
57.526
57.527
57.5223
57.5216
57.5194
57.5107
57.5181
57.5312
57.5185
57.5237
57.5313
57.5303
57.5294
57.512
57.5098
57.5184
57.5194
57.5187
57.5217
57.5226
57.5091
57.5085
57.5296
57.5377
57.5343
57.5262
57.5201
57.5281
57.5348
57.5315
57.5192
57.5181
57.5291
57.5279
57.5322
57.5331
57.53
57.5263
57.5313
57.5403
57.5375
57.5383
57.5391
57.5374
57.5257
57.5149
57.5216
57.5266
57.5162
55.0149
56.0358
56.8422
57.3187
57.5126
57.5445
57.5445
57.5415
57.5467
57.554
57.5537
57.5536
57.5467
57.5468
57.546
57.5366
57.5397
57.5467
57.5402
57.5363
57.544
57.5577
57.5657
57.5658
57.5628
57.5544
57.5527
57.5602
57.5482
57.5515
57.5593
57.554
57.554
57.5509
57.544
57.544
57.5439
57.5312
57.536
57.5511
57.5493
57.5465
57.5315
57.5345
57.5464
57.5449
57.5423
57.5409
57.5408
57.5366
57.5285
57.5204
57.5264
57.529
57.527
57.5252
57.523
57.5145
57.5193
57.5333
57.5251
57.5313
57.5347
57.5317
57.5223
57.5219
57.5349
57.5404
57.5381
57.5258
57.5326
57.5461
57.546
57.5456
57.5365
57.5346
57.5249
57.531
57.5409
57.5343
57.5337
57.5328
57.5234
57.5262
57.5328
57.5331
57.5331
57.5277
57.5264
57.5123
55.015
56.0349
56.8419
57.3157
57.509
57.5588
57.5628
57.5599
57.5493
57.5547
57.5635
57.5576
57.559
57.5582
57.5481
57.5492
57.5603
57.5638
57.5611
57.5462
57.5471
57.5562
57.5556
57.5676
57.5717
57.568
57.5585
57.5542
57.5565
57.5533
57.5484
57.5466
57.5474
57.5453
57.5435
57.538
57.5403
57.5499
57.5474
57.5482
57.5482
57.546
57.547
57.5466
57.5436
57.5414
57.5383
57.544
57.5475
57.5434
57.5316
57.5274
57.5289
57.5181
57.5201
57.531
57.5281
57.5221
57.5265
57.5364
57.5337
57.5346
57.5334
57.5213
57.5241
57.5381
57.5396
57.5398
57.5345
57.5321
57.5327
57.5328
57.5197
57.5197
57.5281
57.528
57.5229
57.521
57.5219
57.5217
57.5184
57.5267
57.5398
57.5239
57.523
57.5308
57.5196
57.5196
57.5266
57.5148
55.0135
56.038
56.839
57.3102
57.5135
57.5658
57.5704
57.5676
57.556
57.5612
57.5688
57.569
57.5689
57.5519
57.5552
57.5649
57.5652
57.5653
57.5598
57.5536
57.5531
57.5534
57.5519
57.5499
57.5504
57.551
57.549
57.5444
57.5498
57.5662
57.5648
57.5621
57.5552
57.5551
57.5564
57.5571
57.5519
57.5375
57.5338
57.5445
57.5466
57.5442
57.5346
57.5406
57.5447
57.5441
57.5439
57.5364
57.5328
57.5278
57.5311
57.5322
57.5297
57.5261
57.5195
57.5195
57.5141
57.5172
57.5372
57.5405
57.5365
57.5226
57.5212
57.5333
57.5288
57.5366
57.5426
57.5311
57.5383
57.5449
57.5274
57.5263
57.5336
57.5321
57.5285
57.531
57.5322
57.5397
57.5482
57.5476
57.5472
57.5313
57.5348
57.5416
57.5392
57.5358
57.527
57.5292
57.5304
57.5216
55.0134
56.0382
56.8373
57.3113
57.5149
57.5531
57.5443
57.5506
57.5633
57.5479
57.55
57.5635
57.5635
57.5618
57.5476
57.551
57.5563
57.551
57.5532
57.5503
57.5422
57.5424
57.5548
57.5534
57.5543
57.5544
57.5512
57.5483
57.5495
57.5493
57.5498
57.5498
57.5446
57.5432
57.5501
57.5439
57.5488
57.5634
57.5636
57.5627
57.5534
57.5424
57.5442
57.547
57.5429
57.5323
57.5277
57.5303
57.5199
57.5197
57.5284
57.5277
57.5282
57.5277
57.5198
57.5174
57.526
57.524
57.5245
57.5246
57.5219
57.5187
57.5205
57.5153
57.5172
57.5259
57.5248
57.5259
57.5258
57.5197
57.5169
57.5357
57.5459
57.5428
57.5357
57.5293
57.5308
57.5279
57.5287
57.5287
57.5248
57.5211
57.524
57.5186
57.5251
57.5386
57.5234
57.5246
57.5345
57.5212
55.0124
56.0379
56.8416
57.3125
57.4941
57.521
57.5197
57.5358
57.5515
57.5508
57.5506
57.5429
57.5418
57.5324
57.5374
57.5555
57.5498
57.5511
57.5509
57.5528
57.5499
57.5419
57.5396
57.549
57.5517
57.5429
57.5486
57.5593
57.5574
57.5571
57.5496
57.5508
57.5471
57.5443
57.5438
57.5488
57.5501
57.5489
57.5486
57.5456
57.5432
57.5319
57.5244
57.5262
57.5249
57.5239
57.5259
57.526
57.5305
57.5329
57.5312
57.5237
57.5311
57.5411
57.5414
57.5414
57.5318
57.5269
57.5319
57.5356
57.5319
57.5224
57.5191
57.5261
57.5244
57.5324
57.5438
57.5417
57.5391
57.5262
57.5261
57.5361
57.5274
57.533
57.5438
57.5324
57.5282
57.5295
57.5266
57.5247
57.5258
57.5205
57.5279
57.5413
57.5352
57.536
57.5326
57.5317
57.5313
57.522
55.0102
56.04
56.8413
57.3126
57.498
57.5242
57.5346
57.5437
57.5425
57.5422
57.5305
57.5408
57.5765
57.5774
57.5733
57.5795
57.5875
57.5845
57.5842
57.5787
57.5805
57.5776
57.5668
57.5707
57.5804
57.5795
57.5782
57.5622
57.5652
57.5677
57.5518
57.5556
57.5659
57.5597
57.5581
57.5539
57.5441
57.5389
57.5522
57.5598
57.5563
57.5487
57.5421
57.5493
57.5518
57.5483
57.537
57.5406
57.5442
57.541
57.5343
57.5315
57.5339
57.5339
57.529
57.5276
57.5361
57.5411
57.5392
57.5376
57.5338
57.5209
57.5162
57.5288
57.5366
57.5317
57.5336
57.5304
57.5153
57.5141
57.5262
57.5276
57.5198
57.521
57.5348
57.5402
57.5377
57.5291
57.528
57.5193
57.5262
57.5395
57.5241
57.5227
57.5306
57.5259
57.5343
57.5407
57.5372
57.5246
55.0124
56.0397
56.8389
57.3001
57.5181
57.5862
57.5868
57.5951
57.6026
57.6015
57.5991
57.5995
57.5999
57.5982
57.598
57.5927
57.5868
57.5905
57.5931
57.5883
57.5893
57.5867
57.5848
57.58
57.577
57.5779
57.5781
57.5785
57.5756
57.5703
57.5635
57.5598
57.5549
57.5483
57.5539
57.5574
57.5458
57.5478
57.5663
57.5675
57.5636
57.5493
57.5489
57.559
57.5625
57.5597
57.5552
57.5543
57.5431
57.5486
57.559
57.5486
57.5549
57.5587
57.5543
57.5554
57.5549
57.5561
57.5528
57.5451
57.5362
57.5349
57.5295
57.5297
57.5299
57.5202
57.5224
57.5321
57.533
57.5347
57.5343
57.5325
57.5293
57.5233
57.522
57.5381
57.5438
57.5407
57.5346
57.526
57.5253
57.5224
57.5322
57.5412
57.5409
57.5407
57.5274
57.5314
57.5345
57.5205
55.0113
56.0391
56.8416
57.3098
57.5014
57.5447
57.5461
57.5427
57.5423
57.5344
57.5412
57.5699
57.5693
57.5742
57.5754
57.5741
57.5711
57.5777
57.5888
57.5889
57.5916
57.5887
57.5865
57.5805
57.5841
57.5853
57.5835
57.5833
57.5788
57.5668
57.5545
57.553
57.5537
57.5507
57.5549
57.5576
57.5456
57.5457
57.5548
57.5504
57.5578
57.5625
57.5499
57.556
57.5607
57.5607
57.5607
57.5528
57.5518
57.5463
57.5337
57.5219
57.5237
57.5248
57.5154
57.5153
57.5321
57.5367
57.533
57.5228
57.5188
57.5316
57.5356
57.5324
57.5259
57.5207
57.5243
57.5209
57.5295
57.5439
57.5431
57.5419
57.5261
57.5281
57.5377
57.5283
57.5367
57.5495
57.5475
57.5448
57.5341
57.5301
57.532
57.5284
57.5358
57.5394
57.5324
57.5322
57.5309
57.5184
55.0106
56.0364
56.85
57.3032
57.4985
57.539
57.5385
57.534
57.5315
57.5501
57.5592
57.5556
57.5455
57.5407
57.5568
57.5648
57.5621
57.5622
57.5588
57.5444
57.5446
57.5562
57.5567
57.5523
57.5524
57.5599
57.5504
57.5543
57.567
57.5656
57.5606
57.5564
57.5565
57.5504
57.5565
57.5588
57.555
57.5468
57.5437
57.5436
57.5404
57.5403
57.5351
57.5212
57.5157
57.5225
57.5288
57.5265
57.5235
57.5157
57.519
57.5244
57.5231
57.5229
57.5114
57.5157
57.5184
57.5093
57.5151
57.5324
57.5331
57.532
57.5163
57.5196
57.5273
57.5138
57.5188
57.5321
57.5245
57.5251
57.5244
57.5191
57.5132
57.5211
57.5252
57.5157
57.5209
57.5361
57.5364
57.5353
57.5199
57.5205
57.5378
57.543
57.5411
57.5395
57.5284
57.53
57.5343
57.5206
55.0123
56.037
56.8421
57.3092
57.5076
57.5452
57.5445
57.5363
57.5353
57.5474
57.5494
57.5451
57.5464
57.555
57.5554
57.5529
57.5621
57.5744
57.5697
57.5737
57.5746
57.5718
57.572
57.5653
57.5668
57.5677
57.5573
57.5607
57.5616
57.558
57.5535
57.5601
57.5674
57.5668
57.5667
57.5628
57.5628
57.5596
57.5545
57.547
57.5413
57.5292
57.5209
57.5269
57.5291
57.5223
57.5308
57.5423
57.5417
57.5417
57.5365
57.5352
57.5317
57.524
57.5213
57.5254
57.5257
57.517
57.5193
57.53
57.5326
57.5298
57.5148
57.5203
57.5289
57.5283
57.5281
57.5143
57.5193
57.5298
57.5286
57.525
57.5268
57.5387
57.5263
57.5252
57.5334
57.5264
57.5329
57.5442
57.5293
57.5337
57.5445
57.5388
57.5337
57.5288
57.5324
57.5339
57.5314
57.519
55.0109
56.0399
56.8394
57.3108
57.5058
57.5493
57.5575
57.5543
57.5542
57.5465
57.5458
57.5646
57.5649
57.5753
57.5883
57.5809
57.5827
57.5799
57.5705
57.5764
57.5854
57.5696
57.5731
57.5847
57.5801
57.5813
57.583
57.5816
57.5759
57.5746
57.5712
57.5651
57.5592
57.5552
57.5526
57.5489
57.5444
57.535
57.5279
57.5282
57.5268
57.5248
57.5256
57.5255
57.5299
57.5307
57.5283
57.5222
57.5297
57.5416
57.5346
57.5386
57.5438
57.5418
57.5391
57.5211
57.5186
57.5241
57.5244
57.5181
57.5206
57.5333
57.5234
57.5303
57.5371
57.5368
57.5367
57.522
57.5284
57.5393
57.5397
57.5397
57.5238
57.5274
57.5334
57.5323
57.5319
57.518
57.5243
57.5385
57.5359
57.5283
57.5246
57.5346
57.5386
57.5351
57.5213
57.522
57.5325
57.5192
55.0124
56.0396
56.8393
57.2984
57.5212
57.5824
57.581
57.581
57.5771
57.5855
57.5914
57.5777
57.583
57.5914
57.5794
57.5861
57.5925
57.5885
57.5881
57.5801
57.5877
57.5934
57.5779
57.5823
57.5882
57.5883
57.5884
57.5858
57.5846
57.5728
57.5616
57.5635
57.565
57.5632
57.5593
57.5636
57.5677
57.5647
57.5603
57.5493
57.5531
57.5558
57.552
57.5395
57.5388
57.5509
57.5549
57.5521
57.5462
57.5455
57.541
57.5405
57.5374
57.5269
57.531
57.5376
57.5362
57.5354
57.5234
57.5313
57.5413
57.5385
57.5327
57.5252
57.5265
57.5194
57.5213
57.53
57.5308
57.5328
57.5326
57.531
57.529
57.5229
57.5218
57.538
57.5433
57.5395
57.5289
57.5255
57.5359
57.5384
57.5351
57.5279
57.5229
57.5264
57.5286
57.5319
57.5291
57.519
55.0111
56.0368
56.845
57.3133
57.493
57.5208
57.5254
57.5374
57.533
57.5372
57.5383
57.5365
57.5353
57.5346
57.5315
57.5414
57.5564
57.5483
57.5542
57.5574
57.5473
57.552
57.5703
57.563
57.5708
57.5816
57.5726
57.5748
57.5751
57.5717
57.5621
57.5642
57.5652
57.5539
57.5521
57.5621
57.5637
57.5599
57.5601
57.5608
57.562
57.5551
57.5542
57.5558
57.5512
57.551
57.5506
57.5518
57.5523
57.5505
57.5397
57.5265
57.531
57.5367
57.5352
57.5347
57.5218
57.5264
57.5366
57.536
57.5354
57.5208
57.5234
57.533
57.5308
57.5226
57.5201
57.53
57.5371
57.535
57.5312
57.5318
57.5287
57.5179
57.5207
57.5385
57.5289
57.5352
57.5471
57.5368
57.5428
57.5467
57.5452
57.5447
57.5303
57.532
57.5476
57.5491
57.5463
57.5298
55.0125
56.0397
56.8389
57.3
57.5173
57.5904
57.597
57.5949
57.5882
57.5947
57.6004
57.5897
57.5941
57.5966
57.5913
57.5914
57.5911
57.5806
57.5841
57.5912
57.5874
57.5898
57.5867
57.5862
57.5861
57.5867
57.5849
57.5859
57.5809
57.5784
57.5775
57.5721
57.5662
57.5622
57.5578
57.5545
57.5498
57.5401
57.529
57.5264
57.5262
57.5242
57.5322
57.5426
57.5408
57.5382
57.5296
57.5279
57.5222
57.5294
57.5359
57.5234
57.529
57.5403
57.54
57.5392
57.5265
57.52
57.5245
57.5235
57.5324
57.5481
57.544
57.5447
57.5403
57.543
57.5439
57.5424
57.5419
57.5289
57.5306
57.5326
57.5298
57.5254
57.522
57.538
57.5432
57.5395
57.5259
57.5242
57.5383
57.5422
57.5405
57.5412
57.5367
57.5199
57.5225
57.5338
57.5319
57.5224
55.0151
56.0373
56.8352
57.3121
57.5062
57.5394
57.5512
57.5592
57.5448
57.549
57.5594
57.5551
57.5547
57.5482
57.5548
57.5651
57.5623
57.5512
57.5503
57.5572
57.5579
57.5561
57.5599
57.5713
57.5584
57.5571
57.5676
57.569
57.5607
57.5636
57.5703
57.5559
57.56
57.5682
57.5635
57.5625
57.5557
57.5541
57.5515
57.5504
57.5465
57.5436
57.5414
57.5394
57.5355
57.5277
57.5124
57.5197
57.5345
57.5249
57.5304
57.5328
57.5304
57.5237
57.5287
57.552
57.5455
57.5514
57.5675
57.5681
57.5675
57.5525
57.5548
57.5595
57.5571
57.5569
57.5575
57.5576
57.5524
57.5498
57.537
57.5274
57.5364
57.5434
57.5399
57.5271
57.528
57.5346
57.5307
57.5239
57.5299
57.5417
57.5404
57.5393
57.5291
57.5304
57.5352
57.5333
57.5324
57.5206
55.0132
56.0403
56.8374
57.2985
57.5126
57.596
57.6117
57.6097
57.6079
57.6032
57.6018
57.6058
57.606
57.6045
57.5901
57.5911
57.5943
57.578
57.5825
57.5915
57.5746
57.5746
57.5829
57.5791
57.5833
57.5851
57.5833
57.5827
57.5706
57.5699
57.5712
57.5699
57.5681
57.5547
57.5543
57.5515
57.5489
57.5477
57.5432
57.543
57.5375
57.5196
57.5214
57.5299
57.5303
57.5301
57.5141
57.5179
57.5279
57.5162
57.5233
57.5309
57.5193
57.5142
57.5256
57.5311
57.5391
57.5516
57.5377
57.5429
57.553
57.5381
57.5429
57.5498
57.5397
57.539
57.5386
57.5281
57.5272
57.5324
57.5225
57.5282
57.5335
57.5334
57.5333
57.5198
57.518
57.5348
57.5399
57.5387
57.5386
57.5336
57.5326
57.5217
57.5272
57.5393
57.5247
57.5292
57.5404
57.5232
55.0125
56.0397
56.8386
57.301
57.5129
57.6015
57.6088
57.6054
57.6046
57.6058
57.6066
57.6035
57.6031
57.5936
57.5962
57.5978
57.5856
57.591
57.5965
57.5811
57.5861
57.5957
57.5878
57.5878
57.5913
57.5919
57.5894
57.5874
57.5767
57.5702
57.5677
57.5637
57.5608
57.5584
57.5571
57.5544
57.5493
57.5382
57.529
57.525
57.5224
57.5191
57.522
57.5283
57.525
57.5257
57.5215
57.5271
57.5322
57.5319
57.5318
57.5184
57.516
57.5272
57.527
57.537
57.5513
57.5436
57.5492
57.5525
57.5508
57.5524
57.5509
57.5469
57.5323
57.5345
57.5422
57.5335
57.5289
57.5368
57.5452
57.5448
57.5448
57.5406
57.5327
57.5335
57.5413
57.5399
57.54
57.5366
57.5227
57.5217
57.5379
57.54
57.5366
57.5278
57.5225
57.5293
57.5319
57.5216
55.0132
56.0403
56.8376
57.2977
57.516
57.5854
57.5862
57.596
57.6022
57.5926
57.5963
57.5972
57.5943
57.5851
57.5891
57.5934
57.5771
57.5816
57.5908
57.5741
57.5734
57.5818
57.5785
57.5811
57.5816
57.5793
57.5784
57.5747
57.5743
57.5711
57.5678
57.5657
57.5513
57.5551
57.5635
57.5546
57.5583
57.5627
57.5609
57.5593
57.5481
57.5393
57.5349
57.5276
57.5203
57.5137
57.5117
57.5063
57.5114
57.5272
57.5279
57.5278
57.5195
57.513
57.5243
57.5368
57.5455
57.5538
57.5452
57.5514
57.5545
57.5513
57.5518
57.5527
57.5517
57.5381
57.5409
57.5471
57.5378
57.5341
57.5398
57.5424
57.5354
57.5393
57.5406
57.5374
57.5268
57.5307
57.5379
57.5366
57.536
57.5271
57.5255
57.5159
57.5213
57.5334
57.5248
57.5195
57.5182
57.5118
55.0127
56.0426
56.8315
57.3078
57.5137
57.5683
57.5707
57.5676
57.5581
57.5616
57.5693
57.5691
57.5692
57.557
57.5626
57.5705
57.5634
57.5674
57.5688
57.5672
57.563
57.5704
57.59
57.5847
57.5872
57.5881
57.585
57.5783
57.571
57.5676
57.5664
57.5633
57.5601
57.5572
57.554
57.5507
57.5455
57.5422
57.538
57.5306
57.5238
57.5225
57.5178
57.5195
57.5244
57.5229
57.5242
57.5212
57.5149
57.5093
57.5196
57.5697
57.5773
57.5759
57.5718
57.575
57.5777
57.5774
57.5772
57.5606
57.5634
57.5686
57.5606
57.5601
57.5593
57.5594
57.5594
57.5534
57.5566
57.5596
57.5569
57.5531
57.5468
57.5448
57.5391
57.5424
57.5438
57.5369
57.5363
57.5355
57.5227
57.5249
57.5325
57.5242
57.5198
57.5193
57.5198
57.523
57.5202
57.5117
55.0126
56.0375
56.841
57.3103
57.5019
57.5345
57.5293
57.5273
57.5341
57.5431
57.5428
57.5395
57.5286
57.5292
57.552
57.5575
57.5548
57.5461
57.5474
57.5722
57.5917
57.5914
57.5913
57.5895
57.5853
57.5757
57.5714
57.5748
57.5749
57.5752
57.5713
57.5616
57.5539
57.5536
57.5462
57.5443
57.5531
57.5553
57.5512
57.5403
57.5348
57.5363
57.5376
57.535
57.5214
57.5256
57.5309
57.5295
57.5293
57.5236
57.5229
57.52
57.5101
57.5127
57.5224
57.5158
57.5154
57.5154
57.5143
57.509
57.508
57.5091
57.5089
57.5109
57.5075
57.5158
57.5224
57.5085
57.5091
57.5289
57.539
57.5378
57.5345
57.5328
57.5323
57.5256
57.524
57.539
57.5454
57.5419
57.542
57.5396
57.5221
57.5212
57.5295
57.5275
57.521
57.5247
57.5301
57.5182
55.0125
56.0395
56.8395
57.2979
57.5228
57.5821
57.5809
57.5815
57.5807
57.5822
57.5771
57.5836
57.5903
57.5876
57.5785
57.5778
57.5828
57.5788
57.5788
57.5766
57.5854
57.5955
57.5935
57.5933
57.5934
57.5941
57.5912
57.5878
57.5708
57.5704
57.5711
57.5569
57.562
57.5648
57.5636
57.5625
57.545
57.5399
57.5366
57.5312
57.5283
57.5256
57.5254
57.5256
57.524
57.5081
57.5097
57.5217
57.5233
57.5235
57.5113
57.5125
57.5465
57.5748
57.5709
57.5712
57.569
57.575
57.5797
57.5772
57.5781
57.5774
57.5681
57.57
57.5714
57.5542
57.5569
57.5627
57.5479
57.5533
57.563
57.5521
57.5576
57.5656
57.5639
57.5633
57.5639
57.5648
57.5616
57.5613
57.5549
57.5393
57.5275
57.5346
57.5401
57.5364
57.5228
57.5222
57.5298
57.5164
55.0124
56.0397
56.8388
57.3004
57.5161
57.5949
57.5991
57.5905
57.5975
57.6024
57.5942
57.5943
57.594
57.5942
57.5861
57.5914
57.597
57.5813
57.5861
57.5963
57.5955
57.5931
57.5956
57.6039
57.6049
57.6019
57.5993
57.5983
57.585
57.58
57.5761
57.5682
57.5637
57.5606
57.5571
57.5475
57.5489
57.5502
57.5373
57.5431
57.5504
57.5505
57.5503
57.5316
57.5341
57.5401
57.5315
57.5369
57.5393
57.5354
57.5256
57.5209
57.5456
57.5764
57.5706
57.5786
57.5843
57.5788
57.5795
57.5777
57.5787
57.5723
57.5755
57.5772
57.5611
57.5643
57.5696
57.5558
57.5617
57.5694
57.5685
57.568
57.567
57.5673
57.5665
57.5664
57.5606
57.5597
57.554
57.5548
57.552
57.5488
57.5471
57.544
57.5381
57.527
57.533
57.5413
57.5379
57.5253
55.0125
56.036
56.8443
57.3111
57.4952
57.5462
57.5468
57.5464
57.5381
57.5381
57.5427
57.5417
57.5347
57.5396
57.571
57.5689
57.5705
57.5928
57.6032
57.6006
57.5906
57.5892
57.595
57.5867
57.5825
57.5821
57.5815
57.5849
57.5857
57.583
57.5784
57.5763
57.5732
57.5682
57.5575
57.5538
57.5479
57.5327
57.5286
57.5403
57.545
57.5405
57.5404
57.5402
57.5371
57.5364
57.5334
57.5248
57.5291
57.5343
57.5169
57.52
57.5267
57.5234
57.5236
57.5175
57.5259
57.5313
57.5306
57.5283
57.5262
57.5216
57.5282
57.5473
57.548
57.5443
57.5297
57.5313
57.5428
57.5382
57.5409
57.5415
57.5391
57.5325
57.5364
57.5397
57.5277
57.5331
57.5452
57.5316
57.5288
57.5322
57.5218
57.5234
57.5383
57.54
57.538
57.5383
57.5339
57.5161
55.0121
56.0412
56.835
57.3067
57.5173
57.566
57.5824
57.581
57.5661
57.5709
57.5816
57.5802
57.5803
57.5751
57.5757
57.5749
57.5634
57.5633
57.5718
57.5711
57.5713
57.5644
57.5734
57.5844
57.5707
57.5763
57.5878
57.5843
57.5762
57.5721
57.5691
57.5546
57.5586
57.5611
57.5598
57.5592
57.5521
57.5506
57.5449
57.5325
57.5207
57.518
57.5152
57.5081
57.5085
57.5129
57.5138
57.5138
57.5053
57.5008
57.5154
57.5238
57.523
57.5227
57.5087
57.5129
57.5198
57.5082
57.5151
57.5282
57.5255
57.5259
57.5274
57.5276
57.5216
57.5189
57.5156
57.5084
57.5047
57.5193
57.5304
57.5287
57.523
57.5257
57.5285
57.5163
57.5231
57.5295
57.5269
57.5189
57.52
57.536
57.5402
57.5376
57.5314
57.5301
57.5222
57.5134
57.5107
57.5059
55.0124
56.0397
56.8391
57.299
57.5204
57.584
57.5831
57.5833
57.5818
57.5905
57.5955
57.5856
57.5921
57.5972
57.5919
57.5914
57.5923
57.5923
57.5811
57.5819
57.5906
57.585
57.5932
57.598
57.5959
57.5957
57.5918
57.5851
57.5763
57.5729
57.5668
57.5614
57.5583
57.5566
57.547
57.5394
57.5439
57.5455
57.5418
57.5348
57.5326
57.5279
57.5256
57.5225
57.518
57.5166
57.5042
57.5077
57.5226
57.5225
57.5226
57.5167
57.518
57.5246
57.5241
57.5199
57.5065
57.5052
57.5193
57.5207
57.513
57.5141
57.531
57.5363
57.5349
57.5357
57.5314
57.5207
57.5127
57.5178
57.5218
57.5127
57.5192
57.5357
57.5377
57.535
57.5291
57.5285
57.5234
57.5182
57.5163
57.5095
57.5155
57.534
57.5324
57.5298
57.5185
57.5251
57.5337
57.5195
55.0124
56.0397
56.8387
57.3011
57.5129
57.6017
57.6089
57.6043
57.6037
57.5957
57.6004
57.6027
57.5955
57.599
57.6001
57.5889
57.5943
57.6001
57.5845
57.5893
57.6002
57.5851
57.5859
57.5993
57.6034
57.6024
57.6006
57.6018
57.6005
57.5972
57.5943
57.5916
57.5862
57.5782
57.559
57.549
57.5519
57.5557
57.5528
57.5495
57.5417
57.5364
57.5368
57.537
57.5343
57.5265
57.5282
57.5294
57.5269
57.5256
57.5158
57.5224
57.5726
57.5844
57.5747
57.5809
57.5845
57.5808
57.5794
57.5799
57.5817
57.5772
57.5774
57.5756
57.5608
57.5621
57.5668
57.5522
57.5575
57.5655
57.5564
57.5559
57.555
57.5559
57.5549
57.5432
57.546
57.5503
57.5472
57.5452
57.5462
57.5471
57.5327
57.5369
57.5418
57.5408
57.5406
57.5338
57.5314
57.5151
55.0124
56.0397
56.8388
57.3003
57.5161
57.595
57.5992
57.5906
57.5977
57.6026
57.5944
57.5943
57.594
57.5942
57.5861
57.5915
57.5971
57.5814
57.5861
57.5965
57.5897
57.5953
57.5993
57.5957
57.5972
57.5972
57.5983
57.5947
57.5854
57.5795
57.5749
57.5661
57.556
57.5564
57.5562
57.5489
57.5476
57.5458
57.5367
57.5433
57.5506
57.5507
57.5504
57.5317
57.5341
57.5401
57.5351
57.5363
57.5375
57.5358
57.5246
57.5219
57.5483
57.5677
57.5673
57.566
57.5692
57.5718
57.569
57.5684
57.5547
57.5598
57.5664
57.5526
57.5581
57.5637
57.5545
57.5535
57.5533
57.5438
57.5475
57.5568
57.5577
57.5548
57.5517
57.5508
57.5404
57.5337
57.5305
57.5236
57.5318
57.5412
57.5272
57.5329
57.5399
57.5392
57.5391
57.5348
57.5329
57.5164
55.0125
56.0395
56.8395
57.2978
57.5227
57.5821
57.579
57.5847
57.5905
57.5854
57.5854
57.5853
57.5773
57.5822
57.5913
57.589
57.5806
57.5824
57.5881
57.5813
57.5854
57.5884
57.5852
57.5729
57.5765
57.583
57.5682
57.5734
57.585
57.5854
57.5852
57.577
57.5762
57.5761
57.5759
57.5693
57.5654
57.558
57.5387
57.5297
57.5319
57.5328
57.5306
57.5297
57.526
57.5088
57.5075
57.526
57.5299
57.5264
57.5182
57.5156
57.5475
57.5709
57.5704
57.5708
57.5685
57.5706
57.5757
57.5732
57.5635
57.558
57.5626
57.5656
57.5619
57.5526
57.5489
57.5502
57.5395
57.5419
57.5552
57.556
57.5556
57.5494
57.5406
57.545
57.5526
57.5459
57.55
57.5515
57.5488
57.545
57.5386
57.5352
57.5334
57.5269
57.5327
57.5404
57.5369
57.524
55.0127
56.0372
56.8419
57.3085
57.5025
57.541
57.5405
57.5373
57.5316
57.5454
57.557
57.5541
57.5459
57.5426
57.549
57.5472
57.5549
57.5596
57.5503
57.5564
57.5675
57.5724
57.5841
57.5726
57.577
57.589
57.5827
57.5763
57.5803
57.5831
57.5805
57.579
57.5728
57.5698
57.5655
57.5568
57.5484
57.5521
57.5533
57.5443
57.5492
57.5516
57.5438
57.5445
57.5441
57.5437
57.5449
57.5448
57.5364
57.535
57.5387
57.5399
57.5373
57.5314
57.5146
57.5142
57.517
57.5056
57.5069
57.5273
57.5304
57.5269
57.5186
57.5158
57.5303
57.5367
57.5396
57.5375
57.5355
57.5306
57.5357
57.5499
57.5426
57.5489
57.5515
57.5435
57.5469
57.5481
57.5442
57.5444
57.5451
57.5436
57.5281
57.5305
57.5438
57.5428
57.5438
57.544
57.541
57.5203
55.0153
56.0365
56.8364
57.312
57.5046
57.538
57.5502
57.5584
57.5523
57.5516
57.547
57.5469
57.5404
57.5476
57.5643
57.5664
57.5639
57.5533
57.5539
57.5486
57.5541
57.5822
57.5836
57.5804
57.5693
57.5652
57.573
57.5778
57.5764
57.5734
57.5714
57.5562
57.5586
57.5653
57.5627
57.56
57.5494
57.55
57.5509
57.5486
57.5463
57.5443
57.541
57.5386
57.5375
57.5381
57.5359
57.5322
57.524
57.5202
57.5083
57.5107
57.5264
57.5254
57.5262
57.5219
57.5248
57.5248
57.5361
57.5496
57.548
57.5417
57.5434
57.5482
57.5407
57.5405
57.535
57.5396
57.5416
57.5325
57.539
57.5437
57.542
57.5414
57.5301
57.5347
57.5429
57.5405
57.5405
57.5367
57.5231
57.5201
57.5312
57.5358
57.5319
57.5168
57.5158
57.5252
57.5254
57.5184
55.015
56.0373
56.8353
57.3121
57.5062
57.5393
57.5507
57.5587
57.5464
57.5504
57.5523
57.5498
57.5428
57.5454
57.5663
57.5678
57.5639
57.5497
57.5511
57.574
57.579
57.5775
57.5778
57.5757
57.5719
57.569
57.5639
57.5589
57.5595
57.5597
57.5488
57.5529
57.5667
57.5651
57.5622
57.5581
57.5525
57.5419
57.5395
57.5437
57.5435
57.5406
57.5377
57.5183
57.5184
57.5246
57.5255
57.5254
57.5104
57.5156
57.5421
57.536
57.5399
57.5608
57.5623
57.558
57.5465
57.5414
57.5532
57.5607
57.5573
57.5575
57.5557
57.5405
57.5421
57.5493
57.5365
57.5423
57.5495
57.5481
57.5477
57.5408
57.538
57.5276
57.5328
57.5398
57.5398
57.5398
57.5326
57.5321
57.5295
57.5309
57.5283
57.5254
57.5198
57.5122
57.5236
57.5343
57.5311
57.5188
55.0125
56.0397
56.8387
57.3005
57.5152
57.5964
57.6021
57.5992
57.6004
57.5966
57.5998
57.6032
57.6017
57.603
57.6009
57.5975
57.5863
57.5908
57.5963
57.5811
57.5861
57.5957
57.5865
57.5886
57.5907
57.5885
57.588
57.5879
57.5824
57.5664
57.5668
57.5682
57.5543
57.5587
57.5623
57.5448
57.5456
57.5547
57.5493
57.5465
57.5434
57.5342
57.5393
57.5513
57.5389
57.5451
57.5519
57.5402
57.546
57.5497
57.5477
57.5463
57.5342
57.5329
57.5267
57.5339
57.5495
57.5421
57.5429
57.5425
57.5443
57.5408
57.5385
57.5381
57.5297
57.5339
57.5419
57.533
57.5287
57.5369
57.5452
57.5448
57.5448
57.5406
57.5327
57.5364
57.5417
57.5392
57.5357
57.5261
57.5258
57.5225
57.532
57.5406
57.5402
57.5401
57.5272
57.5317
57.5348
57.5208
55.0132
56.0404
56.8372
57.2988
57.5112
57.6005
57.6083
57.601
57.6006
57.6018
57.5993
57.6006
57.6026
57.5988
57.5976
57.6027
57.605
57.6017
57.6012
57.6018
57.6025
57.5991
57.5894
57.5876
57.594
57.5941
57.594
57.5948
57.5915
57.5888
57.5874
57.5873
57.581
57.5653
57.5546
57.562
57.5658
57.5621
57.555
57.5444
57.548
57.5508
57.5478
57.5388
57.5415
57.5439
57.5292
57.5284
57.5432
57.5497
57.5488
57.5501
57.5466
57.5314
57.5311
57.5477
57.5495
57.5466
57.5347
57.5336
57.5447
57.5386
57.545
57.558
57.549
57.5539
57.5628
57.5621
57.5631
57.5597
57.543
57.5409
57.5476
57.5508
57.5512
57.5465
57.5358
57.5366
57.5419
57.5407
57.5403
57.5327
57.5301
57.5175
57.5177
57.5277
57.5273
57.528
57.5245
57.5137
55.0127
56.0424
56.8324
57.305
57.5179
57.5661
57.5663
57.5643
57.5574
57.5546
57.5466
57.5531
57.5634
57.5475
57.5508
57.5611
57.5601
57.5601
57.5538
57.5638
57.5753
57.5715
57.5716
57.5716
57.5683
57.5601
57.5573
57.5491
57.552
57.5694
57.569
57.5657
57.5514
57.5549
57.562
57.5614
57.5612
57.5561
57.5543
57.5454
57.5346
57.5292
57.5141
57.5149
57.5262
57.5264
57.5263
57.515
57.5203
57.5346
57.5353
57.5348
57.5218
57.5189
57.5297
57.5282
57.5342
57.5578
57.5588
57.5545
57.5551
57.5533
57.5382
57.5373
57.5479
57.5447
57.5482
57.5491
57.5479
57.5485
57.5457
57.5345
57.5384
57.5427
57.5301
57.5364
57.5429
57.5256
57.5241
57.5321
57.5324
57.5356
57.5404
57.5378
57.5326
57.5247
57.5315
57.5415
57.5381
57.525
55.0124
56.0397
56.8388
57.3002
57.5167
57.5898
57.5925
57.6
57.604
57.5993
57.5988
57.6007
57.6009
57.59
57.5919
57.5957
57.5882
57.5952
57.599
57.5858
57.5911
57.5963
57.5914
57.5911
57.5925
57.5914
57.5753
57.5678
57.5742
57.5807
57.5787
57.5789
57.5755
57.568
57.5614
57.5558
57.5445
57.5352
57.5314
57.527
57.5244
57.5248
57.5191
57.5215
57.5309
57.5215
57.5236
57.5336
57.5244
57.5313
57.5407
57.5405
57.5404
57.527
57.525
57.5368
57.5425
57.5398
57.5313
57.5362
57.5413
57.5282
57.5326
57.5414
57.526
57.5287
57.539
57.5253
57.5246
57.5348
57.535
57.5413
57.5432
57.5403
57.5313
57.5339
57.5393
57.5358
57.5273
57.5239
57.5353
57.5419
57.5406
57.5406
57.5368
57.52
57.5224
57.5334
57.5318
57.5223
55.0111
56.0382
56.8437
57.3108
57.4979
57.5319
57.5312
57.5267
57.5312
57.5478
57.5489
57.5452
57.5309
57.5292
57.5558
57.5716
57.5702
57.5646
57.5714
57.585
57.5712
57.5722
57.591
57.5966
57.5953
57.5967
57.594
57.59
57.583
57.5641
57.5653
57.5676
57.5658
57.5654
57.5572
57.5614
57.5619
57.5532
57.5501
57.5544
57.5572
57.5537
57.5385
57.5401
57.5472
57.5423
57.5456
57.5469
57.5439
57.5367
57.5275
57.5237
57.5131
57.5179
57.5348
57.5342
57.5306
57.5181
57.5216
57.53
57.5273
57.5209
57.5181
57.5285
57.5308
57.5281
57.5195
57.5171
57.5257
57.5337
57.5287
57.5283
57.5279
57.5273
57.5255
57.5203
57.5263
57.5286
57.5164
57.5214
57.5367
57.5374
57.5375
57.5292
57.5285
57.5286
57.5293
57.5246
57.5219
57.5123
55.0125
56.0397
56.839
57.299
57.5201
57.5834
57.5803
57.5899
57.5978
57.5966
57.5964
57.585
57.5893
57.5921
57.5862
57.5866
57.5872
57.5897
57.5889
57.5858
57.5752
57.5796
57.5863
57.5841
57.5839
57.584
57.5837
57.5789
57.5743
57.56
57.5648
57.5744
57.5742
57.5737
57.5575
57.5599
57.5662
57.5556
57.5588
57.5631
57.562
57.561
57.5452
57.5474
57.5553
57.5408
57.5451
57.5553
57.5554
57.5549
57.5357
57.5365
57.5409
57.5345
57.5361
57.5326
57.5184
57.5169
57.5278
57.5265
57.5278
57.5277
57.5185
57.519
57.5319
57.5237
57.5296
57.5389
57.5236
57.526
57.541
57.5413
57.5385
57.5265
57.5238
57.5379
57.5426
57.5389
57.5256
57.5242
57.5387
57.5424
57.5406
57.5413
57.5368
57.52
57.5227
57.5338
57.5319
57.5225
55.0109
56.0399
56.8394
57.3108
57.5057
57.5492
57.5574
57.5542
57.5541
57.5465
57.5459
57.5649
57.5649
57.575
57.591
57.5929
57.5902
57.5741
57.5789
57.5876
57.5718
57.5762
57.5855
57.5822
57.5821
57.5831
57.5796
57.5804
57.5818
57.5796
57.579
57.5709
57.5683
57.5614
57.5584
57.554
57.5401
57.5408
57.5529
57.5419
57.5468
57.5548
57.5378
57.5392
57.5517
57.5526
57.55
57.5498
57.5466
57.5329
57.5363
57.5385
57.5335
57.5351
57.5317
57.518
57.5196
57.5269
57.517
57.5124
57.5224
57.5314
57.5288
57.5197
57.5228
57.5262
57.5187
57.5144
57.5249
57.5374
57.5378
57.5377
57.5232
57.5271
57.5332
57.5329
57.5328
57.5184
57.5244
57.5458
57.5455
57.5428
57.5279
57.529
57.5364
57.5239
57.5278
57.5414
57.5403
57.5322
55.0112
56.0367
56.8454
57.3115
57.4973
57.5278
57.5192
57.52
57.5509
57.5691
57.5586
57.5659
57.5745
57.5638
57.5693
57.5719
57.563
57.5689
57.5724
57.5605
57.5667
57.5723
57.5647
57.5655
57.5656
57.5633
57.5542
57.5582
57.5655
57.5645
57.5644
57.5612
57.5567
57.5538
57.5516
57.5484
57.5458
57.5444
57.5416
57.5388
57.5373
57.5352
57.531
57.5174
57.5206
57.5321
57.5239
57.5194
57.5253
57.5286
57.5186
57.5232
57.5374
57.5387
57.5386
57.5271
57.5231
57.5316
57.5369
57.5332
57.5331
57.5309
57.5152
57.5167
57.5275
57.5224
57.5171
57.5248
57.534
57.5341
57.5341
57.5283
57.5273
57.5165
57.5203
57.5376
57.5284
57.5352
57.5458
57.5462
57.5462
57.5393
57.5376
57.5233
57.5233
57.5334
57.529
57.5302
57.5293
57.5183
55.0124
56.0393
56.8391
57.3092
57.5011
57.5336
57.5459
57.5491
57.5362
57.5339
57.5484
57.565
57.5617
57.5628
57.5624
57.5492
57.548
57.5649
57.5683
57.5649
57.5553
57.5527
57.5672
57.5746
57.5713
57.5718
57.5698
57.5596
57.5506
57.5575
57.5615
57.5579
57.5465
57.5496
57.5559
57.5381
57.5371
57.544
57.5421
57.5429
57.5397
57.5331
57.5243
57.5257
57.5265
57.5214
57.5309
57.5434
57.5429
57.5428
57.537
57.5363
57.5329
57.5217
57.5196
57.5284
57.5344
57.532
57.5187
57.5229
57.5363
57.537
57.5366
57.5215
57.5198
57.5349
57.5555
57.5559
57.5505
57.5505
57.5515
57.5509
57.541
57.5365
57.5347
57.5262
57.5313
57.5473
57.5494
57.5465
57.5338
57.5387
57.5435
57.542
57.5411
57.5253
57.5283
57.5352
57.5318
57.5194
55.0133
56.0369
56.8419
57.3067
57.5028
57.552
57.5537
57.5517
57.5512
57.5392
57.5411
57.5669
57.5654
57.5752
57.5875
57.5747
57.5811
57.588
57.5777
57.5843
57.5891
57.5858
57.5794
57.5735