/*--------------------------------*- C++ -*----------------------------------*\
  =========                 |
  \\      /  F ield         | OpenFOAM: The Open Source CFD Toolbox
   \\    /   O peration     | Website:  https://openfoam.org
    \\  /    A nd           | Version:  11
     \\/     M anipulation  |
\*---------------------------------------------------------------------------*/
FoamFile
{
    format      ascii;
    class       volScalarField;
    location    "0.054";
    object      p;
}
// * * * * * * * * * * * * * * * * * * * * * * * * * * * * * * * * * * * * * //

dimensions      [0 2 -2 0 0 0 0];

internalField   nonuniform List<scalar> 
287084
(
1.73285
1.44886
1.38662
1.31927
1.25041
1.19854
1.14944
1.10418
1.06012
1.01649
0.974085
0.93227
0.889726
0.845679
0.800765
0.755622
0.710143
0.664379
0.618507
0.572777
0.527376
0.482651
0.438828
0.396241
0.354958
0.315459
0.279322
0.246278
0.217334
0.192845
0.171029
0.150016
0.130434
0.114481
0.102103
0.0928522
0.0863903
0.0823944
0.0805528
0.0805862
0.0822175
0.0851539
0.0891254
0.0939061
0.0992475
0.104946
0.110775
0.116588
0.12197
0.126392
0.130425
0.136356
0.143463
0.147798
0.152292
0.158083
0.161883
0.162485
0.162268
0.162465
0.162227
0.161671
0.160552
0.159006
0.156823
0.15439
0.151483
0.147736
0.143191
0.137714
0.131791
0.128166
0.124329
0.117074
0.111059
0.105385
0.100432
0.0966575
0.0913561
0.083835
0.0754532
0.0665068
0.0572184
0.0485444
0.0383356
0.029734
0.0237886
0.0154353
0.00630881
0.00230891
1.59731
1.4068
1.35664
1.29943
1.23912
1.19105
1.14447
1.10054
1.05763
1.01473
0.972464
0.930274
0.887034
0.842943
0.798306
0.753132
0.707538
0.661587
0.615505
0.569538
0.523924
0.478922
0.434959
0.392236
0.350487
0.311533
0.277254
0.244977
0.214117
0.187285
0.163288
0.142037
0.123945
0.109123
0.0973456
0.0885112
0.0823627
0.0786693
0.0771144
0.0774317
0.0793343
0.0825321
0.0867528
0.0917739
0.0973425
0.103256
0.109325
0.115384
0.121235
0.126796
0.132223
0.137843
0.143181
0.147042
0.151086
0.156034
0.159024
0.160351
0.16134
0.16189
0.16179
0.161382
0.160344
0.158748
0.157004
0.15447
0.15118
0.147695
0.143498
0.138855
0.133768
0.129313
0.124819
0.118812
0.112431
0.106419
0.100991
0.0951154
0.0885421
0.081326
0.0728867
0.0639339
0.0565449
0.0494933
0.04087
0.0325134
0.0240467
0.0158721
0.00835703
0.00277427
1.57113
1.39999
1.34936
1.29359
1.23555
1.18766
1.14136
1.09738
1.05437
1.01165
0.96919
0.926472
0.88308
0.838891
0.793981
0.748467
0.702451
0.656064
0.609521
0.563053
0.516952
0.471523
0.427093
0.384092
0.342753
0.303544
0.267234
0.233992
0.203657
0.176383
0.152776
0.132042
0.114219
0.0997265
0.0883776
0.0799896
0.0743552
0.0711736
0.0701608
0.0710166
0.0734481
0.077166
0.0818988
0.0873958
0.0934196
0.0997668
0.10625
0.112714
0.118978
0.125004
0.130652
0.13609
0.141457
0.146155
0.150394
0.154368
0.157175
0.159157
0.160418
0.161104
0.161306
0.160891
0.159899
0.15842
0.156395
0.154105
0.151196
0.147522
0.143512
0.139128
0.134213
0.129459
0.124732
0.118997
0.112918
0.107061
0.101057
0.094899
0.0882823
0.080871
0.0731797
0.0650572
0.0568494
0.0491793
0.0413969
0.0332908
0.0250401
0.0162915
0.00761814
0.00216062
1.52426
1.36615
1.3212
1.27112
1.21892
1.1747
1.13128
1.08922
1.04748
1.00563
0.963443
0.920656
0.877077
0.832618
0.787396
0.741405
0.694837
0.647821
0.600579
0.553393
0.506539
0.460359
0.415239
0.371526
0.329627
0.290095
0.253359
0.219478
0.188779
0.161376
0.137345
0.116647
0.0993345
0.0854665
0.0748099
0.0671994
0.0623376
0.0599822
0.0597953
0.0614807
0.0647172
0.0692175
0.0746967
0.0809055
0.0875978
0.0945724
0.101644
0.108654
0.115475
0.122009
0.128204
0.134039
0.139505
0.144333
0.148578
0.152395
0.155474
0.15773
0.159269
0.160168
0.160423
0.160162
0.159359
0.15795
0.156155
0.153785
0.150717
0.147299
0.143452
0.139099
0.13443
0.129551
0.124478
0.118945
0.113112
0.107077
0.100849
0.0944645
0.0876989
0.0805887
0.0731073
0.065215
0.0574378
0.0496918
0.0416652
0.0335765
0.0252593
0.016595
0.0080703
0.00258295
1.50137
1.35128
1.30897
1.26063
1.21046
1.16706
1.12427
1.08249
1.0409
0.999039
0.956701
0.913619
0.869645
0.824719
0.778892
0.73221
0.684857
0.636942
0.588782
0.540585
0.49272
0.445546
0.399422
0.354828
0.312111
0.271812
0.234285
0.199849
0.168719
0.141085
0.117172
0.0968666
0.0801339
0.066946
0.0571167
0.0504115
0.0465599
0.045244
0.0461283
0.0488838
0.0531824
0.0587168
0.0651895
0.0723334
0.0799061
0.0877019
0.0955401
0.103259
0.110728
0.117866
0.124577
0.130827
0.136583
0.141741
0.146296
0.150234
0.153413
0.155885
0.15767
0.158807
0.159327
0.15922
0.158509
0.157263
0.155437
0.153106
0.150339
0.14704
0.143285
0.139087
0.134517
0.129642
0.124491
0.118975
0.113146
0.107096
0.100821
0.0942817
0.0874801
0.0803462
0.0729383
0.065349
0.057636
0.0498411
0.0418907
0.0338265
0.0254517
0.0167333
0.00806447
0.00249918
1.47758
1.32949
1.28902
1.24305
1.19553
1.15418
1.11309
1.07254
1.03173
0.990323
0.948061
0.904783
0.860443
0.814937
0.76842
0.720873
0.672525
0.623548
0.574185
0.524767
0.475621
0.427151
0.379804
0.334
0.290246
0.248957
0.210629
0.175529
0.144022
0.11625
0.0923869
0.072429
0.0563255
0.043992
0.0351817
0.0296518
0.0270547
0.0270654
0.0292985
0.0334083
0.0390302
0.0458428
0.0535381
0.061836
0.0704888
0.0792902
0.08805
0.0966168
0.104869
0.112701
0.120043
0.126838
0.133048
0.138607
0.143492
0.147696
0.151193
0.153955
0.155986
0.157328
0.15802
0.158081
0.157543
0.156415
0.154736
0.152533
0.149788
0.146541
0.142867
0.138762
0.134288
0.129461
0.124319
0.11884
0.113047
0.106992
0.100679
0.0941283
0.0873025
0.0802156
0.0729172
0.0654054
0.0577523
0.0500002
0.0420741
0.0340185
0.0256936
0.0169984
0.00824415
0.00262163
1.45974
1.31401
1.27521
1.23046
1.1843
1.14379
1.10334
1.06314
1.0225
0.981027
0.93854
0.894853
0.849901
0.803652
0.756198
0.70758
0.658046
0.607707
0.556949
0.506013
0.455333
0.405337
0.356453
0.30925
0.264148
0.22173
0.182409
0.146593
0.114643
0.0867215
0.0630469
0.0435793
0.0282676
0.016946
0.00935815
0.00520464
0.0040978
0.00567518
0.00950452
0.015203
0.0223902
0.030716
0.0398555
0.0495158
0.0594398
0.069414
0.079257
0.088816
0.0979606
0.106604
0.114665
0.122097
0.128851
0.134894
0.140208
0.144783
0.148592
0.151647
0.153969
0.155583
0.156507
0.156766
0.156401
0.155431
0.153882
0.151778
0.14916
0.146041
0.14246
0.138442
0.134026
0.129239
0.124116
0.118663
0.112902
0.106856
0.100545
0.0939788
0.0871667
0.0801175
0.072861
0.0654068
0.0577971
0.0500647
0.0421513
0.0340966
0.0257508
0.017034
0.0082874
0.00266468
1.44342
1.29817
1.2601
1.21647
1.17138
1.13181
1.09208
1.05241
1.012
0.970543
0.927787
0.883602
0.837972
0.790817
0.742305
0.692441
0.641492
0.589645
0.537201
0.484544
0.432066
0.380255
0.329627
0.280724
0.234127
0.190349
0.149945
0.113327
0.0808786
0.0528437
0.0293789
0.0104943
-0.00391692
-0.0140441
-0.0201992
-0.0227453
-0.0221048
-0.0187095
-0.0130265
-0.00548016
0.00350924
0.0135707
0.0243611
0.0355701
0.04694
0.0582518
0.0693172
0.0799896
0.0901489
0.0997013
0.108576
0.116725
0.124116
0.130718
0.136521
0.14152
0.14572
0.149128
0.151761
0.153644
0.154816
0.155294
0.155117
0.154316
0.152911
0.150943
0.148443
0.145427
0.141938
0.138005
0.133661
0.128935
0.123853
0.118439
0.11271
0.106689
0.100393
0.0938397
0.087044
0.0800258
0.0728047
0.0653987
0.0578306
0.0501182
0.0422164
0.0341599
0.0257749
0.0170464
0.00836666
0.00275956
1.4291
1.28446
1.24707
1.20408
1.15965
1.12056
1.08119
1.04164
1.0012
0.959479
0.916291
0.871458
0.824948
0.776755
0.726967
0.675667
0.623114
0.569477
0.515167
0.460506
0.405989
0.352147
0.299496
0.248722
0.200361
0.155095
0.113457
0.0759391
0.0430008
0.0148364
-0.00830435
-0.026506
-0.0398449
-0.0485966
-0.0531215
-0.0538317
-0.0512274
-0.0457805
-0.0380167
-0.0284028
-0.0173897
-0.0053904
0.00723643
0.0201775
0.0331516
0.0459404
0.0583603
0.0702614
0.0815317
0.0920822
0.101851
0.1108
0.118894
0.126118
0.132472
0.137961
0.142589
0.146377
0.149348
0.151536
0.152975
0.153688
0.153718
0.153093
0.151854
0.150028
0.147651
0.144749
0.141363
0.137518
0.133246
0.12858
0.123548
0.118178
0.112482
0.10649
0.100221
0.0936899
0.0869198
0.0799232
0.072732
0.0653565
0.0578098
0.05012
0.042254
0.034218
0.0259338
0.0172484
0.00835348
0.00264845
1.41603
1.27158
1.23455
1.19197
1.14794
1.10919
1.07
1.03052
0.989894
0.947818
0.904054
0.858425
0.810935
0.76152
0.710334
0.657421
0.60306
0.547484
0.491048
0.434203
0.377414
0.321282
0.266421
0.213508
0.163255
0.116304
0.0733287
0.0348702
0.00136893
-0.0268528
-0.0496525
-0.0670365
-0.0791754
-0.0863787
-0.0890571
-0.0877222
-0.0829116
-0.0751909
-0.0651173
-0.0532241
-0.0400016
-0.0258789
-0.0112453
0.00356921
0.0182897
0.0326845
0.0465649
0.059799
0.0722696
0.0839
0.0946352
0.104435
0.113288
0.121183
0.128131
0.134141
0.139233
0.143434
0.146775
0.149285
0.151004
0.151966
0.152216
0.151791
0.150718
0.14904
0.146796
0.144013
0.140726
0.136971
0.132779
0.128181
0.123208
0.117884
0.112228
0.106272
0.100033
0.0935318
0.0867885
0.079823
0.0726575
0.0653123
0.0577936
0.0501194
0.0422497
0.0342367
0.0258594
0.0171082
0.00838511
0.00276186
1.40405
1.25975
1.22292
1.18061
1.13678
1.09815
1.05897
1.01932
0.978398
0.935812
0.891333
0.844809
0.796167
0.745418
0.692641
0.637959
0.581627
0.523878
0.465159
0.405876
0.34661
0.288
0.230689
0.175513
0.123134
0.0744103
0.0299824
-0.00950275
-0.0435271
-0.0718229
-0.0941419
-0.110611
-0.121381
-0.126853
-0.127511
-0.123924
-0.116724
-0.106528
-0.0939691
-0.0796174
-0.0640058
-0.0476062
-0.0308226
-0.0139983
0.00257525
0.0186724
0.0341123
0.0487495
0.0624877
0.0752539
0.0870072
0.0977186
0.107375
0.115987
0.123564
0.130133
0.135714
0.140347
0.144072
0.146919
0.148936
0.150159
0.150641
0.150417
0.149525
0.148003
0.145896
0.143231
0.140055
0.136395
0.132282
0.127755
0.12284
0.117566
0.111955
0.10604
0.0998326
0.0933586
0.086647
0.0797069
0.0725675
0.065246
0.057742
0.0500882
0.0422431
0.0342296
0.025897
0.0171719
0.00838882
0.00274872
1.39298
1.24872
1.21201
1.1698
1.12602
1.08738
1.04807
1.00816
0.96678
0.923568
0.878281
0.830698
0.780819
0.728581
0.674116
0.617511
0.559048
0.499004
0.437791
0.375945
0.313999
0.252716
0.192818
0.135148
0.080572
0.0299082
-0.0160276
-0.0565625
-0.0911519
-0.119422
-0.141239
-0.156655
-0.165933
-0.169521
-0.16797
-0.161957
-0.152171
-0.13933
-0.124109
-0.107151
-0.0890259
-0.0702235
-0.0511846
-0.0322624
-0.0137462
0.00413058
0.0211854
0.0372948
0.0523593
0.0663113
0.0791206
0.0907718
0.101266
0.110612
0.11884
0.125982
0.132078
0.137163
0.14128
0.144478
0.146804
0.148298
0.149016
0.149
0.148289
0.146928
0.14496
0.142424
0.139355
0.135788
0.13176
0.127301
0.12245
0.117231
0.111668
0.105791
0.0996176
0.0931823
0.0864995
0.0795888
0.0724711
0.0651655
0.0576927
0.0500503
0.042213
0.0342215
0.0258985
0.017171
0.00838002
0.00274112
1.38273
1.23847
1.20177
1.1596
1.11578
1.07697
1.03743
0.997131
0.955218
0.911293
0.865054
0.816364
0.765114
0.711308
0.655016
0.596383
0.535659
0.473154
0.409343
0.344723
0.279993
0.215883
0.153233
0.0930048
0.0360645
-0.0165697
-0.0640875
-0.105693
-0.140787
-0.169032
-0.190204
-0.204481
-0.212117
-0.213669
-0.209777
-0.201189
-0.188698
-0.173082
-0.155093
-0.135417
-0.114672
-0.0933895
-0.0720184
-0.0509278
-0.0304125
-0.0107108
0.00800772
0.0256135
0.0420249
0.0571875
0.0710778
0.0836903
0.0950356
0.105143
0.114041
0.121774
0.128385
0.133926
0.138448
0.142
0.144637
0.146403
0.147361
0.147556
0.147033
0.145833
0.144012
0.141598
0.138636
0.135168
0.131223
0.126843
0.12205
0.116885
0.111375
0.105538
0.0994049
0.092995
0.0863403
0.0794602
0.0723707
0.0650899
0.0576266
0.050007
0.0421895
0.0341973
0.0258672
0.0171479
0.00838715
0.00277312
1.37323
1.22894
1.1922
1.14998
1.10598
1.06699
1.0271
0.986366
0.943817
0.899078
0.851863
0.80194
0.749278
0.693798
0.63563
0.574866
0.511805
0.44676
0.380215
0.312781
0.245097
0.178093
0.112593
0.0496776
-0.00964654
-0.0643398
-0.113435
-0.156101
-0.191693
-0.219807
-0.2403
-0.253315
-0.259225
-0.258638
-0.252282
-0.241019
-0.225713
-0.207234
-0.186394
-0.163941
-0.14053
-0.116718
-0.0929812
-0.0696946
-0.0471645
-0.0256171
-0.00522405
0.013897
0.031669
0.048049
0.0630237
0.0766043
0.088809
0.0996719
0.109239
0.117559
0.124693
0.130694
0.135615
0.13952
0.142466
0.14451
0.14571
0.146114
0.145772
0.144738
0.143058
0.140771
0.137918
0.134544
0.130682
0.126374
0.121649
0.116538
0.111075
0.105279
0.0991809
0.0928121
0.0861861
0.0793279
0.072262
0.0649964
0.0575514
0.0499409
0.0421287
0.0341623
0.025824
0.0171069
0.00838196
0.00278167
1.36445
1.22012
1.18329
1.14098
1.09681
1.0575
1.01723
0.975951
0.932732
0.887132
0.838861
0.787695
0.733545
0.676366
0.616236
0.553306
0.487828
0.420182
0.350872
0.280501
0.209881
0.139871
0.0715027
0.00588662
-0.0558744
-0.112594
-0.163268
-0.206955
-0.242974
-0.270919
-0.290623
-0.302317
-0.306398
-0.303591
-0.294716
-0.280718
-0.262564
-0.241195
-0.217484
-0.192239
-0.166156
-0.139818
-0.113719
-0.0882507
-0.0637138
-0.0403388
-0.0182848
0.00233515
0.0214517
0.0390378
0.0550844
0.0696147
0.0826638
0.0942774
0.104504
0.113408
0.121052
0.127507
0.132829
0.137085
0.140342
0.142652
0.144084
0.144693
0.144535
0.143659
0.142117
0.13995
0.137204
0.133925
0.130149
0.125913
0.121247
0.116191
0.110777
0.105024
0.0989659
0.0926228
0.0860264
0.0791994
0.0721548
0.0649161
0.0574881
0.0499006
0.042101
0.0341355
0.0258098
0.0171066
0.0083858
0.00278425
1.35637
1.212
1.17507
1.1326
1.08816
1.04856
1.00784
0.966032
0.922089
0.875596
0.826248
0.7738
0.718154
0.659251
0.597175
0.532051
0.464178
0.393918
0.321817
0.248562
0.174928
0.101981
0.0307122
-0.0375888
-0.101745
-0.160469
-0.212655
-0.257315
-0.2937
-0.321393
-0.340265
-0.350565
-0.352793
-0.347745
-0.336334
-0.319607
-0.298613
-0.274372
-0.247828
-0.219836
-0.191125
-0.162312
-0.133903
-0.106296
-0.0797991
-0.0546368
-0.0309636
-0.0088844
0.0115402
0.0302947
0.0473877
0.062845
0.0767153
0.0890538
0.0999263
0.109396
0.117537
0.124426
0.13013
0.134721
0.138268
0.140841
0.142508
0.143319
0.143334
0.142614
0.141207
0.139158
0.136518
0.133327
0.129627
0.125464
0.120863
0.115856
0.110482
0.104769
0.0987486
0.0924398
0.0858698
0.0790641
0.0720424
0.0648159
0.0574028
0.0498217
0.0420365
0.0340862
0.0257823
0.0170869
0.00837047
0.00278819
1.349
1.20459
1.16754
1.12489
1.08022
1.04025
0.999082
0.956701
0.91202
0.864618
0.814215
0.760492
0.703372
0.642759
0.57875
0.511477
0.441215
0.368394
0.293559
0.217429
0.140908
0.0650207
-0.00902778
-0.0799527
-0.146415
-0.207051
-0.260677
-0.306206
-0.342891
-0.370266
-0.388254
-0.397142
-0.397504
-0.390228
-0.376324
-0.356926
-0.333173
-0.306153
-0.276871
-0.246226
-0.21499
-0.183795
-0.153167
-0.123513
-0.0951394
-0.0682707
-0.043053
-0.0195782
0.00209431
0.0219643
0.0400514
0.0563909
0.0710392
0.084076
0.0955578
0.105568
0.114186
0.121489
0.127559
0.132476
0.136308
0.139129
0.141011
0.14201
0.142192
0.141617
0.140338
0.138402
0.135862
0.132758
0.129134
0.125035
0.120488
0.115534
0.110205
0.104531
0.0985476
0.0922679
0.085725
0.0789411
0.0719366
0.0647369
0.0573398
0.0497869
0.0420034
0.0340559
0.0257231
0.0170345
0.00838866
0.00281129
1.34238
1.1979
1.16072
1.11791
1.07294
1.03265
0.990933
0.948045
0.902694
0.854407
0.802932
0.747987
0.689416
0.627181
0.561307
0.49196
0.419431
0.344131
0.266668
0.187803
0.108464
0.0298252
-0.0469347
-0.120311
-0.188972
-0.251391
-0.306329
-0.352649
-0.389533
-0.416557
-0.433628
-0.441121
-0.43967
-0.430252
-0.413963
-0.39202
-0.365645
-0.335989
-0.304115
-0.270969
-0.237348
-0.203914
-0.171202
-0.139625
-0.10949
-0.081019
-0.0543493
-0.0295732
-0.00672995
0.0141855
0.0332022
0.0503693
0.0657568
0.0794332
0.0914848
0.101999
0.111057
0.118749
0.125161
0.130376
0.134471
0.137523
0.139607
0.140785
0.141124
0.140691
0.139529
0.137697
0.135251
0.132229
0.128674
0.124633
0.120141
0.115231
0.109946
0.104307
0.0983495
0.092096
0.0855761
0.0788133
0.071828
0.064644
0.0572588
0.049711
0.0419409
0.0340223
0.0257222
0.0170762
0.00836923
0.00275059
1.33652
1.19197
1.15464
1.11168
1.06645
1.02579
0.983688
0.940225
0.894125
0.845045
0.792598
0.736483
0.67658
0.612781
0.545168
0.473868
0.399181
0.321583
0.241647
0.160213
0.0782831
-0.00297974
-0.0821886
-0.157885
-0.228526
-0.292571
-0.348685
-0.395648
-0.432686
-0.45929
-0.475478
-0.481619
-0.47845
-0.467008
-0.448489
-0.424184
-0.395384
-0.363302
-0.32905
-0.293608
-0.257804
-0.222318
-0.187695
-0.154357
-0.12261
-0.0926692
-0.0646776
-0.0387056
-0.0147915
0.00707775
0.0269421
0.0448641
0.0609131
0.0751889
0.0877641
0.0987369
0.108201
0.116247
0.122974
0.128463
0.132801
0.136065
0.138332
0.139673
0.140154
0.13984
0.138791
0.137054
0.134689
0.131741
0.128252
0.124266
0.119822
0.114957
0.109706
0.104101
0.0981741
0.0919493
0.0854542
0.078709
0.07174
0.0645751
0.057205
0.0496815
0.0419254
0.0340036
0.0257245
0.0170255
0.00833643
0.00277166
1.3314
1.18682
1.14941
1.10624
1.06076
1.01977
0.977257
0.933282
0.88659
0.836731
0.783368
0.726195
0.665049
0.599858
0.530651
0.457577
0.380964
0.301228
0.219074
0.135301
0.0509887
-0.0325878
-0.114076
-0.191786
-0.264238
-0.329691
-0.386808
-0.434333
-0.471415
-0.497622
-0.512945
-0.517838
-0.513098
-0.499833
-0.479306
-0.452879
-0.421907
-0.387648
-0.351264
-0.313766
-0.276009
-0.23869
-0.202367
-0.167457
-0.134274
-0.103031
-0.0738555
-0.046826
-0.0219607
0.000763568
0.0213947
0.0399893
0.0566321
0.0714205
0.0844557
0.0958356
0.10566
0.114024
0.121025
0.126758
0.131311
0.134763
0.137195
0.13868
0.139288
0.139087
0.138131
0.136483
0.134193
0.131308
0.127873
0.123934
0.119536
0.114708
0.109494
0.103916
0.0980113
0.0918061
0.085328
0.0786022
0.0716483
0.0644924
0.0571339
0.04961
0.0418662
0.033958
0.0256828
0.0170102
0.00832624
0.00277694
1.32714
1.18247
1.14491
1.10166
1.05594
1.01467
0.971704
0.927398
0.880147
0.829593
0.775417
0.717306
0.655087
0.588642
0.518043
0.44341
0.365066
0.283506
0.199389
0.113583
0.0272194
-0.0584288
-0.141829
-0.22133
-0.295301
-0.361957
-0.419908
-0.467839
-0.504956
-0.530742
-0.545292
-0.549078
-0.542944
-0.528081
-0.505807
-0.47754
-0.44469
-0.408563
-0.370348
-0.331089
-0.291652
-0.252764
-0.214974
-0.178719
-0.144302
-0.111933
-0.0817486
-0.0538058
-0.0281238
-0.00467185
0.0166005
0.035774
0.0529335
0.0681808
0.0816127
0.0933442
0.103477
0.112114
0.119357
0.125298
0.130037
0.133648
0.136224
0.137833
0.13855
0.138442
0.13757
0.135991
0.133769
0.130941
0.127554
0.123658
0.119294
0.114499
0.109308
0.103759
0.0978808
0.0916968
0.0852369
0.0785225
0.0715837
0.0644401
0.0570927
0.0495929
0.0418482
0.0339455
0.0256765
0.0170013
0.0083293
0.00277503
1.32366
1.17897
1.14132
1.09793
1.05204
1.0105
0.967251
0.92255
0.874816
0.823684
0.768867
0.709974
0.646848
0.579385
0.507617
0.431687
0.351942
0.268816
0.183076
0.0955609
0.00747502
-0.0798407
-0.164881
-0.245791
-0.321058
-0.388638
-0.447229
-0.495503
-0.532584
-0.558019
-0.571899
-0.574737
-0.567458
-0.551273
-0.527561
-0.497785
-0.463395
-0.425724
-0.386004
-0.345292
-0.304483
-0.2643
-0.225313
-0.18795
-0.152521
-0.119235
-0.0882108
-0.0595217
-0.0331686
-0.00911865
0.0126902
0.0323409
0.049922
0.0655296
0.0792879
0.0913052
0.101693
0.110554
0.11799
0.124104
0.128988
0.132734
0.135423
0.137135
0.137936
0.137906
0.137104
0.135587
0.133412
0.13063
0.127285
0.123423
0.119094
0.114324
0.109159
0.103626
0.0977611
0.091593
0.0851437
0.0784453
0.0715148
0.0643769
0.057042
0.0495378
0.0418047
0.0339013
0.025633
0.016968
0.00831988
0.00278921
1.32104
1.17632
1.13859
1.09512
1.04906
1.00736
0.96379
0.918856
0.87079
0.819215
0.763846
0.704354
0.640526
0.572246
0.499574
0.422644
0.341775
0.25748
0.170477
0.0816588
-0.00774064
-0.0963622
-0.18264
-0.264655
-0.340954
-0.409161
-0.4682
-0.516705
-0.553781
-0.578906
-0.592258
-0.594379
-0.586195
-0.568991
-0.544172
-0.513239
-0.477668
-0.438828
-0.397957
-0.356141
-0.314282
-0.273117
-0.233214
-0.195007
-0.158803
-0.124814
-0.0931602
-0.0638964
-0.0370309
-0.0125217
0.0096926
0.0297067
0.0476081
0.0635018
0.0775074
0.0897467
0.100324
0.109353
0.116942
0.123186
0.12819
0.132034
0.134815
0.1366
0.137472
0.137503
0.136752
0.135278
0.133146
0.130399
0.127082
0.12325
0.118938
0.11419
0.10904
0.103525
0.097674
0.0915175
0.0850845
0.0783942
0.0714775
0.0643489
0.0570187
0.049528
0.0417955
0.0339045
0.0256289
0.016948
0.00831769
0.00279646
1.31929
1.17454
1.13675
1.09322
1.04707
1.00522
0.96151
0.91635
0.868025
0.816151
0.76045
0.700539
0.636231
0.56743
0.494136
0.416516
0.334911
0.24979
0.16192
0.0722061
-0.0181152
-0.107599
-0.194762
-0.277484
-0.354545
-0.42321
-0.482303
-0.530985
-0.568102
-0.593031
-0.606027
-0.607637
-0.598856
-0.580961
-0.555394
-0.523677
-0.487311
-0.447676
-0.406029
-0.363466
-0.3209
-0.279069
-0.238546
-0.19977
-0.163044
-0.12858
-0.0964964
-0.066848
-0.0396341
-0.0148205
0.00766867
0.0279237
0.0460394
0.0621239
0.0763028
0.0886897
0.0994036
0.108549
0.116239
0.122571
0.12765
0.131567
0.134407
0.136247
0.13716
0.137226
0.136507
0.13507
0.132961
0.130234
0.126942
0.123126
0.118833
0.114099
0.108962
0.103454
0.0976116
0.0914684
0.0850358
0.0783523
0.0714408
0.0643156
0.0569915
0.0494982
0.0417814
0.0338885
0.0256711
0.0170343
0.00828556
0.00272103
1.31841
1.17365
1.13584
1.09228
1.04608
1.00417
0.960395
0.915101
0.866614
0.81463
0.758732
0.698611
0.634066
0.564963
0.491363
0.413398
0.331399
0.245885
0.157582
0.0674268
-0.023341
-0.113292
-0.200844
-0.284018
-0.361393
-0.430391
-0.489401
-0.538138
-0.575332
-0.600129
-0.612947
-0.614315
-0.605219
-0.586977
-0.561034
-0.528924
-0.492158
-0.452127
-0.410094
-0.36716
-0.324233
-0.282066
-0.241233
-0.202166
-0.165178
-0.130477
-0.0981784
-0.0683357
-0.0409492
-0.0159719
0.00665862
0.0270352
0.045257
0.0614369
0.0756988
0.0881596
0.0989345
0.108138
0.115883
0.12226
0.127378
0.131325
0.134194
0.136057
0.136998
0.137086
0.136387
0.134961
0.13287
0.130158
0.126871
0.123066
0.118777
0.11405
0.108917
0.103418
0.0975819
0.0914368
0.085013
0.0783334
0.0714288
0.0643101
0.0569864
0.049499
0.041774
0.0338845
0.0256392
0.0169575
0.00829315
0.00276711
1.31841
1.17364
1.13584
1.09227
1.04608
1.00416
0.960392
0.915094
0.866614
0.814625
0.758728
0.698618
0.634063
0.564984
0.491376
0.413412
0.331423
0.245892
0.157592
0.0674338
-0.0233375
-0.113283
-0.200844
-0.284005
-0.361378
-0.430375
-0.489379
-0.538122
-0.575309
-0.600114
-0.612927
-0.614293
-0.6052
-0.586958
-0.561016
-0.528904
-0.492138
-0.452107
-0.410078
-0.367145
-0.324221
-0.282056
-0.241222
-0.20216
-0.165172
-0.130471
-0.0981733
-0.068328
-0.0409424
-0.0159726
0.00665303
0.0270273
0.0452526
0.0614325
0.0756966
0.0881564
0.0989349
0.108141
0.115884
0.122259
0.127379
0.131331
0.134199
0.136064
0.137001
0.137088
0.136383
0.134958
0.132864
0.130151
0.126868
0.123062
0.118777
0.114049
0.108917
0.103415
0.097576
0.0914332
0.0850065
0.0783291
0.0714202
0.0642997
0.0569819
0.0494875
0.0417658
0.0338732
0.0256142
0.0169585
0.00831107
0.00277832
1.31929
1.17454
1.13676
1.09323
1.04709
1.00523
0.961562
0.916351
0.867994
0.816155
0.760457
0.700536
0.636241
0.56742
0.49413
0.416523
0.334903
0.249804
0.161932
0.0722405
-0.018078
-0.107565
-0.194706
-0.27744
-0.354502
-0.423166
-0.482224
-0.530919
-0.568035
-0.592963
-0.605959
-0.607578
-0.598798
-0.580907
-0.555342
-0.523627
-0.487261
-0.447633
-0.405993
-0.363436
-0.320874
-0.279042
-0.238522
-0.199747
-0.163026
-0.128566
-0.0964827
-0.0668353
-0.039625
-0.0148083
0.00768366
0.0279429
0.0460572
0.0621344
0.0763089
0.0886929
0.0994014
0.108545
0.116236
0.12257
0.127648
0.131563
0.134399
0.136235
0.137154
0.137221
0.136505
0.135061
0.132955
0.130229
0.126933
0.123119
0.118821
0.114087
0.108948
0.103442
0.0976032
0.0914522
0.0850246
0.0783423
0.0714332
0.0643117
0.0569862
0.0495006
0.041775
0.0338863
0.0256373
0.0169561
0.0082878
0.00276503
1.32104
1.17632
1.1386
1.09511
1.04908
1.00735
0.963863
0.918849
0.870724
0.819204
0.763845
0.704363
0.640528
0.572268
0.499598
0.422667
0.341816
0.25751
0.170514
0.0817015
-0.00770199
-0.0963021
-0.182591
-0.264577
-0.340878
-0.409063
-0.468093
-0.516611
-0.553668
-0.578808
-0.59215
-0.594275
-0.586093
-0.568895
-0.544083
-0.513154
-0.47759
-0.438756
-0.397893
-0.356084
-0.31423
-0.273071
-0.233173
-0.19497
-0.15877
-0.124786
-0.0931363
-0.063877
-0.037015
-0.0125101
0.00970131
0.0297116
0.04761
0.0634986
0.0775056
0.0897429
0.100323
0.109354
0.116944
0.123187
0.128189
0.132037
0.134813
0.136599
0.137473
0.137499
0.136742
0.13527
0.133133
0.130383
0.12707
0.123235
0.118924
0.114172
0.109022
0.103503
0.0976503
0.091496
0.0850605
0.0783738
0.07146
0.0643281
0.0570028
0.0495049
0.041789
0.0338953
0.0256687
0.0170213
0.00829231
0.00274355
1.32366
1.17897
1.14132
1.09794
1.05204
1.0105
0.967274
0.922542
0.8748
0.823699
0.768882
0.709981
0.646865
0.579403
0.507631
0.43172
0.351953
0.268866
0.183117
0.0956244
0.00755024
-0.0797668
-0.164776
-0.245707
-0.320929
-0.388531
-0.447094
-0.49536
-0.532438
-0.557875
-0.571757
-0.574599
-0.567327
-0.551146
-0.52744
-0.497673
-0.463285
-0.42563
-0.385919
-0.345211
-0.304412
-0.264236
-0.225257
-0.1879
-0.152478
-0.1192
-0.0881804
-0.0594964
-0.0331478
-0.00910042
0.012703
0.032354
0.0499327
0.0655365
0.0792915
0.0913062
0.101691
0.110551
0.11799
0.124102
0.128985
0.132731
0.13542
0.137128
0.137932
0.137897
0.137096
0.135575
0.133398
0.130616
0.127268
0.123406
0.119068
0.114298
0.109133
0.103601
0.0977355
0.0915636
0.0851186
0.0784196
0.0714943
0.0643603
0.0570256
0.04953
0.0417939
0.0339056
0.0256433
0.0169687
0.0083008
0.00277082
1.32712
1.18247
1.14493
1.10164
1.05595
1.01465
0.971765
0.92739
0.880096
0.82959
0.775424
0.717321
0.6551
0.588671
0.518076
0.443447
0.36513
0.283556
0.199454
0.113655
0.0272945
-0.0583182
-0.141732
-0.221197
-0.295165
-0.361807
-0.419734
-0.46768
-0.504764
-0.530574
-0.545107
-0.548902
-0.542773
-0.52792
-0.505658
-0.477403
-0.444563
-0.408445
-0.370239
-0.330989
-0.291561
-0.252683
-0.214903
-0.178655
-0.144247
-0.111887
-0.0817082
-0.0537739
-0.0280969
-0.00464841
0.0166213
0.0357892
0.0529421
0.0681788
0.0816099
0.0933416
0.103473
0.112113
0.119361
0.125303
0.130036
0.133648
0.136219
0.13783
0.138547
0.138436
0.137559
0.13598
0.133749
0.130917
0.127533
0.123635
0.119268
0.114469
0.109277
0.10372
0.097836
0.0916506
0.0851911
0.0784828
0.0715457
0.0644
0.0570585
0.0495512
0.0418212
0.0339187
0.0256748
0.0170237
0.00830727
0.00274473
1.3314
1.18682
1.14939
1.10624
1.06076
1.01977
0.977262
0.933284
0.886573
0.836734
0.783386
0.72621
0.665081
0.599895
0.530687
0.45763
0.381002
0.301297
0.219145
0.135387
0.0511058
-0.0324899
-0.113924
-0.191667
-0.264061
-0.32953
-0.386617
-0.434133
-0.471215
-0.497415
-0.512747
-0.517635
-0.512905
-0.499645
-0.479128
-0.452714
-0.421748
-0.387503
-0.351131
-0.313643
-0.2759
-0.238592
-0.202281
-0.167383
-0.13421
-0.102975
-0.07381
-0.0467915
-0.0219331
0.000783014
0.0214008
0.0399962
0.0566405
0.0714269
0.084458
0.0958369
0.105661
0.114027
0.121033
0.126763
0.13131
0.13476
0.137193
0.138675
0.139283
0.139076
0.138123
0.13647
0.134173
0.131286
0.127849
0.123908
0.119501
0.114671
0.109451
0.103875
0.0979685
0.0917613
0.0852829
0.0785563
0.0716055
0.0644553
0.0570999
0.0495831
0.0418279
0.0339194
0.0256222
0.016948
0.00833746
0.00280331
1.3365
1.19196
1.15464
1.11168
1.06644
1.02577
0.983676
0.940204
0.894152
0.845072
0.792614
0.736511
0.676605
0.612823
0.545222
0.47392
0.399261
0.321652
0.241745
0.160326
0.0783908
-0.0028335
-0.0820546
-0.157713
-0.228351
-0.292383
-0.348469
-0.395444
-0.432448
-0.45907
-0.475244
-0.481389
-0.478227
-0.466798
-0.448294
-0.424004
-0.395216
-0.363148
-0.328905
-0.293476
-0.25768
-0.22221
-0.1876
-0.154272
-0.122532
-0.0926022
-0.0646213
-0.0386633
-0.0147566
0.0071125
0.0269728
0.044888
0.0609354
0.0751959
0.087762
0.098731
0.108192
0.116246
0.122974
0.128463
0.132798
0.136061
0.138326
0.139667
0.140152
0.139836
0.138779
0.137043
0.13467
0.131715
0.12822
0.124229
0.11978
0.114911
0.109658
0.104045
0.0981129
0.091883
0.0853862
0.0786439
0.0716775
0.0645107
0.0571461
0.0496188
0.0418576
0.033939
0.02563
0.0169511
0.00834201
0.00281317
1.34239
1.19789
1.16068
1.11793
1.07294
1.03264
0.990988
0.948062
0.902653
0.8544
0.802955
0.748006
0.689459
0.627221
0.56136
0.492021
0.419496
0.344207
0.266767
0.187897
0.108608
0.02994
-0.0467552
-0.120161
-0.188765
-0.251194
-0.306104
-0.352409
-0.389296
-0.416305
-0.43339
-0.440876
-0.439442
-0.430024
-0.413744
-0.391816
-0.365448
-0.335808
-0.303953
-0.27082
-0.237215
-0.203792
-0.171095
-0.139528
-0.109407
-0.0809423
-0.0542871
-0.0295241
-0.00668668
0.0142199
0.0332261
0.0503856
0.0657646
0.0794377
0.0914871
0.102001
0.111058
0.11875
0.125162
0.130374
0.13447
0.13752
0.139604
0.14078
0.141121
0.140681
0.139519
0.137681
0.135229
0.132203
0.128641
0.124593
0.120091
0.115178
0.109886
0.104245
0.09828
0.0920247
0.0855031
0.0787443
0.0717602
0.0645787
0.0572
0.0496604
0.0418975
0.0339717
0.0257078
0.0170552
0.00833663
0.00275435
1.34899
1.20459
1.16753
1.1249
1.0802
1.04026
0.999058
0.956707
0.912037
0.864656
0.814225
0.760531
0.703399
0.642805
0.578813
0.511539
0.441306
0.368489
0.293664
0.217561
0.141037
0.065179
-0.00885907
-0.0797697
-0.146205
-0.206843
-0.260438
-0.30597
-0.342634
-0.37001
-0.387998
-0.396882
-0.397258
-0.38999
-0.376098
-0.356712
-0.332973
-0.30597
-0.276703
-0.246074
-0.214846
-0.183672
-0.153057
-0.123414
-0.0950488
-0.0681891
-0.0429835
-0.0195199
0.00214619
0.0220085
0.0400849
0.0564181
0.0710584
0.0840831
0.0955622
0.105571
0.114183
0.121485
0.127556
0.132474
0.136305
0.139125
0.14101
0.142008
0.14219
0.141616
0.14033
0.138389
0.135841
0.132727
0.129095
0.124989
0.120434
0.115472
0.110133
0.104452
0.0984578
0.0921749
0.0856308
0.0788455
0.071843
0.0646451
0.0572512
0.0497005
0.0419264
0.0339909
0.0257038
0.016992
0.0083301
0.00279014
1.35637
1.21199
1.17505
1.13261
1.08817
1.04857
1.00784
0.966039
0.922095
0.875604
0.826269
0.773833
0.718194
0.659307
0.597235
0.532128
0.464257
0.394
0.321938
0.248656
0.175093
0.102108
0.0309002
-0.0374123
-0.101529
-0.160255
-0.212416
-0.25706
-0.293441
-0.321121
-0.340003
-0.350299
-0.352545
-0.347492
-0.336096
-0.319381
-0.298402
-0.274179
-0.247652
-0.219674
-0.190978
-0.162179
-0.133784
-0.106182
-0.0796982
-0.054546
-0.0308871
-0.00882253
0.0115963
0.0303387
0.0474195
0.0628663
0.0767281
0.0890652
0.0999329
0.109399
0.117543
0.124427
0.130128
0.134719
0.138268
0.14084
0.142504
0.143316
0.143333
0.142607
0.141197
0.139142
0.136496
0.1333
0.12959