/*--------------------------------*- C++ -*----------------------------------*\
  =========                 |
  \\      /  F ield         | OpenFOAM: The Open Source CFD Toolbox
   \\    /   O peration     | Website:  https://openfoam.org
    \\  /    A nd           | Version:  11
     \\/     M anipulation  |
\*---------------------------------------------------------------------------*/
FoamFile
{
    format      ascii;
    class       volScalarField;
    location    "0.046";
    object      k;
}
// * * * * * * * * * * * * * * * * * * * * * * * * * * * * * * * * * * * * * //

dimensions      [0 2 -2 0 0 0 0];

internalField   nonuniform List<scalar> 
287084
(
0.381855
0.396146
0.406223
0.411322
0.412933
0.413062
0.413015
0.412859
0.412851
0.413118
0.413196
0.413174
0.413175
0.413153
0.413097
0.412912
0.412953
0.413197
0.413048
0.413149
0.413298
0.41323
0.413246
0.413221
0.413183
0.413005
0.413032
0.41321
0.413264
0.413229
0.413171
0.413141
0.412979
0.412818
0.412916
0.413038
0.412972
0.413
0.412951
0.412737
0.412747
0.412878
0.412777
0.412704
0.412717
0.412724
0.412635
0.412752
0.412903
0.412734
0.412809
0.412844
0.412845
0.412844
0.412603
0.412648
0.412811
0.412726
0.412717
0.412737
0.41274
0.412592
0.412645
0.412942
0.412977
0.412918
0.412696
0.41272
0.412873
0.412885
0.412885
0.412705
0.412762
0.412963
0.412921
0.412929
0.412927
0.412807
0.412774
0.412922
0.413016
0.412982
0.412929
0.412908
0.412849
0.412616
0.412591
0.412778
0.4128
0.412705
0.381904
0.396016
0.406079
0.411292
0.412917
0.41303
0.413008
0.412964
0.413064
0.413143
0.413114
0.413103
0.413011
0.412964
0.412925
0.412864
0.412948
0.413028
0.412854
0.412843
0.413053
0.413092
0.413188
0.413291
0.413253
0.413126
0.413176
0.413313
0.41307
0.413122
0.413223
0.413066
0.412966
0.412965
0.413008
0.412983
0.412949
0.41284
0.412945
0.413096
0.413075
0.413069
0.412855
0.412924
0.41304
0.413027
0.413024
0.41295
0.412947
0.412888
0.412691
0.412698
0.412851
0.41284
0.412752
0.412701
0.412771
0.412656
0.41274
0.412921
0.412824
0.412876
0.412893
0.412847
0.412706
0.412779
0.41296
0.412927
0.412925
0.41281
0.412929
0.413086
0.413041
0.412933
0.412819
0.412834
0.412766
0.412893
0.412996
0.412875
0.412875
0.412865
0.412732
0.412788
0.412865
0.41285
0.412847
0.412726
0.412708
0.412575
0.381905
0.396005
0.406074
0.411245
0.412919
0.413253
0.413223
0.413136
0.413066
0.413192
0.413291
0.413235
0.413238
0.413226
0.413079
0.413125
0.413255
0.413254
0.413253
0.413045
0.413074
0.413124
0.413159
0.413364
0.413378
0.413369
0.413152
0.413173
0.413281
0.413044
0.413018
0.413141
0.413002
0.412986
0.413102
0.412983
0.413024
0.413185
0.413156
0.413192
0.413148
0.413017
0.413027
0.413065
0.413048
0.41296
0.412964
0.413066
0.413081
0.413063
0.412806
0.41283
0.412917
0.412697
0.41276
0.412933
0.412737
0.412687
0.412829
0.41294
0.412903
0.412837
0.412796
0.412686
0.412809
0.413
0.412997
0.412998
0.41288
0.41288
0.412947
0.412925
0.412705
0.41275
0.412897
0.412746
0.41269
0.412748
0.412747
0.412749
0.412707
0.412852
0.412989
0.412752
0.412795
0.412937
0.412704
0.412742
0.412866
0.412631
0.381889
0.396045
0.406013
0.411198
0.413029
0.413368
0.413315
0.413313
0.413218
0.413282
0.413364
0.413344
0.413336
0.413121
0.413195
0.413317
0.413307
0.413302
0.413137
0.41309
0.413102
0.413104
0.41306
0.413041
0.413059
0.413063
0.413048
0.412984
0.413128
0.413285
0.41327
0.413261
0.413127
0.413093
0.413071
0.413038
0.412989
0.412835
0.412899
0.413113
0.413038
0.413033
0.412933
0.413003
0.413034
0.413012
0.413005
0.412835
0.412792
0.412813
0.412838
0.412851
0.412808
0.412653
0.412649
0.412811
0.412674
0.412741
0.412951
0.412982
0.412939
0.412711
0.412784
0.413002
0.412891
0.41297
0.413018
0.412895
0.412998
0.413051
0.412801
0.412845
0.412976
0.412803
0.41278
0.412888
0.412882
0.413023
0.413102
0.41306
0.412995
0.412836
0.412922
0.412998
0.412944
0.412749
0.412747
0.412859
0.412853
0.412761
0.381889
0.396045
0.405993
0.411222
0.413013
0.413185
0.413048
0.413144
0.413297
0.413072
0.413145
0.413256
0.413259
0.413259
0.413042
0.413114
0.413166
0.413127
0.41314
0.413109
0.412999
0.413048
0.413282
0.413209
0.413243
0.4132
0.413036
0.41305
0.413183
0.413164
0.413178
0.413163
0.413005
0.413031
0.413231
0.413058
0.413135
0.413291
0.413281
0.413264
0.413019
0.412955
0.413038
0.413065
0.41302
0.412802
0.412832
0.412945
0.412721
0.412763
0.412924
0.412861
0.412844
0.412797
0.412644
0.412697
0.41292
0.412837
0.412869
0.412827
0.412675
0.412682
0.412829
0.412688
0.412722
0.412867
0.412818
0.412798
0.412757
0.412644
0.412693
0.413024
0.41307
0.413011
0.412805
0.412823
0.412966
0.412843
0.412833
0.412828
0.412693
0.412708
0.412875
0.412726
0.412811
0.412974
0.412749
0.41281
0.412968
0.412718
0.381872
0.396058
0.406056
0.411158
0.412635
0.41263
0.412651
0.412991
0.413127
0.4131
0.413081
0.412888
0.41286
0.412832
0.412977
0.413221
0.413101
0.413112
0.413107
0.413131
0.413087
0.412932
0.41296
0.413115
0.413113
0.413022
0.413084
0.413212
0.413186
0.413152
0.413054
0.413099
0.413091
0.413096
0.413096
0.413068
0.413029
0.413005
0.41296
0.412905
0.412856
0.412716
0.412738
0.412892
0.412745
0.412756
0.412902
0.412841
0.412838
0.412837
0.412794
0.412743
0.412911
0.413011
0.413002
0.412998
0.412766
0.412765
0.412894
0.412911
0.412898
0.412683
0.412721
0.412912
0.412844
0.412919
0.412999
0.412987
0.412982
0.412804
0.412853
0.413034
0.41284
0.412918
0.413046
0.412799
0.412812
0.412947
0.412759
0.412765
0.412893
0.412758
0.412857
0.413013
0.412929
0.412955
0.4129
0.41287
0.412866
0.41273
0.381842
0.396093
0.406048
0.411174
0.412704
0.4127
0.41282
0.413005
0.412942
0.412934
0.412836
0.413112
0.413535
0.413502
0.413465
0.41355
0.413634
0.413584
0.413592
0.413524
0.413537
0.413524
0.413354
0.413401
0.413477
0.413472
0.41347
0.413249
0.413292
0.413311
0.413112
0.413191
0.413323
0.41314
0.413072
0.41309
0.41297
0.412983
0.413213
0.413248
0.413192
0.412982
0.413002
0.413132
0.413137
0.413135
0.412945
0.413007
0.413038
0.41299
0.412847
0.412883
0.412974
0.412901
0.41278
0.412831
0.412952
0.412949
0.412949
0.41286
0.412836
0.412617
0.412644
0.412896
0.412933
0.412898
0.412907
0.412859
0.412618
0.412674
0.412853
0.412772
0.412683
0.412767
0.412952
0.412922
0.41287
0.41275
0.412752
0.412697
0.412837
0.412987
0.412758
0.412798
0.412949
0.412838
0.412933
0.412983
0.412925
0.412727
0.381877
0.396073
0.405982
0.411078
0.413205
0.413766
0.413731
0.413795
0.413866
0.413836
0.413805
0.413812
0.413816
0.41376
0.413722
0.413603
0.413586
0.413686
0.413694
0.413674
0.413692
0.413642
0.413486
0.413426
0.413459
0.41352
0.413489
0.413479
0.413421
0.413204
0.413122
0.413162
0.413029
0.413019
0.413168
0.413185
0.413076
0.413149
0.41337
0.413351
0.41331
0.413098
0.413155
0.413284
0.413245
0.413238
0.413147
0.413144
0.413067
0.413161
0.413281
0.413167
0.413236
0.413258
0.413207
0.413195
0.4132
0.413212
0.413133
0.412899
0.412842
0.412927
0.412882
0.412902
0.412892
0.412742
0.412791
0.412944
0.412915
0.412849
0.412852
0.412864
0.412811
0.412707
0.412764
0.41301
0.413025
0.413018
0.41276
0.412732
0.41288
0.412804
0.412919
0.412997
0.412962
0.412915
0.412796
0.412858
0.412883
0.412716
0.381857
0.396078
0.406048
0.411149
0.412791
0.412948
0.413012
0.412982
0.412937
0.412886
0.413085
0.413507
0.413468
0.413481
0.413479
0.413503
0.413446
0.413534
0.413654
0.41362
0.413613
0.413617
0.413623
0.413583
0.413596
0.413558
0.413503
0.413484
0.4134
0.413113
0.413079
0.413228
0.413096
0.413066
0.413169
0.413186
0.413073
0.413113
0.413284
0.413191
0.41326
0.413295
0.413158
0.413242
0.413278
0.413269
0.413264
0.413096
0.413076
0.412993
0.412703
0.412678
0.412792
0.412791
0.412689
0.41272
0.412923
0.412931
0.412916
0.412689
0.412722
0.412909
0.41291
0.412903
0.412692
0.412708
0.412892
0.41278
0.412894
0.41301
0.413004
0.413001
0.412783
0.412848
0.412982
0.412857
0.412992
0.413082
0.413066
0.41306
0.41282
0.412837
0.412984
0.412885
0.412939
0.412955
0.412892
0.4129
0.412876
0.412662
0.381838
0.396066
0.406155
0.41102
0.412762
0.412989
0.412956
0.412827
0.412869
0.413194
0.413224
0.413165
0.412952
0.412993
0.413264
0.413293
0.413259
0.413215
0.413167
0.412965
0.413046
0.413232
0.413209
0.413125
0.413162
0.413298
0.413098
0.413177
0.413361
0.413225
0.413127
0.413158
0.413215
0.413149
0.413193
0.413202
0.413148
0.412987
0.413012
0.413061
0.412914
0.412832
0.412778
0.412619
0.412658
0.412815
0.412763
0.412762
0.412724
0.412618
0.4127
0.412757
0.41271
0.412618
0.412558
0.412645
0.412659
0.412601
0.412694
0.412874
0.412867
0.412859
0.412644
0.412709
0.412801
0.41263
0.412726
0.412891
0.412775
0.412781
0.412737
0.412585
0.412591
0.412743
0.412751
0.412678
0.412757
0.412909
0.412903
0.412897
0.412688
0.412765
0.412973
0.412966
0.41296
0.412849
0.412758
0.412836
0.412884
0.412719
0.381867
0.396047
0.406061
0.411159
0.412894
0.413073
0.413034
0.412895
0.412949
0.413132
0.41313
0.41309
0.413115
0.413269
0.413165
0.413126
0.413321
0.413441
0.413406
0.413403
0.4134
0.413293
0.413288
0.413309
0.413282
0.413235
0.413172
0.413197
0.413198
0.41311
0.413075
0.413261
0.413324
0.413297
0.413292
0.413214
0.413131
0.413076
0.412981
0.412877
0.412824
0.412678
0.412695
0.412847
0.412805
0.412764
0.412915
0.413036
0.412988
0.412882
0.412793
0.412789
0.412764
0.412701
0.412745
0.412869
0.412825
0.412667
0.412726
0.412836
0.412828
0.412825
0.412638
0.412734
0.412826
0.412784
0.412778
0.412632
0.412719
0.412842
0.412825
0.41277
0.412849
0.413028
0.412805
0.412842
0.413003
0.412833
0.412922
0.413052
0.41284
0.412926
0.413057
0.412874
0.412794
0.412825
0.412901
0.412865
0.412813
0.412669
0.381852
0.396085
0.406018
0.411185
0.412868
0.413038
0.413155
0.413161
0.413128
0.413043
0.413123
0.413488
0.413398
0.413528
0.413659
0.413549
0.413574
0.413531
0.413397
0.413487
0.413582
0.413358
0.413438
0.41359
0.413572
0.413581
0.413568
0.41354
0.413323
0.413236
0.413183
0.413092
0.413019
0.412978
0.412957
0.412905
0.412867
0.412763
0.412782
0.412908
0.412767
0.412769
0.412897
0.412836
0.41283
0.412827
0.412743
0.412711
0.412907
0.413031
0.412989
0.413024
0.413001
0.412972
0.412917
0.412679
0.412725
0.412823
0.412732
0.412643
0.41276
0.412934
0.41279
0.412882
0.412943
0.412914
0.412905
0.41274
0.412865
0.412984
0.412956
0.412939
0.412753
0.412814
0.412879
0.412833
0.412752
0.412641
0.41281
0.412976
0.412932
0.412757
0.412792
0.412964
0.412944
0.412905
0.412697
0.412769
0.412934
0.412687
0.381877
0.396072
0.405984
0.411062
0.413243
0.413688
0.413595
0.413587
0.413553
0.413654
0.413696
0.413526
0.413607
0.413695
0.413554
0.413642
0.413694
0.413625
0.413635
0.413567
0.413645
0.413684
0.413475
0.413539
0.413597
0.413579
0.413577
0.413519
0.41348
0.413229
0.413176
0.413261
0.413272
0.413257
0.413212
0.413315
0.413352
0.413296
0.413091
0.413066
0.41319
0.413203
0.413186
0.412978
0.413033
0.41315
0.413151
0.41315
0.412998
0.412996
0.413007
0.41299
0.41294
0.41282
0.412885
0.41296
0.412907
0.412775
0.412716
0.412929
0.413017
0.412966
0.412775
0.412776
0.412922
0.412741
0.41278
0.412922
0.412911
0.412848
0.41285
0.412862
0.412808
0.412703
0.412761
0.413009
0.413018
0.413002
0.412767
0.412804
0.412974
0.412972
0.412955
0.412723
0.412732
0.412918
0.412874
0.412878
0.412864
0.412708
0.381848
0.396057
0.406112
0.411159
0.412584
0.412592
0.412701
0.412987
0.412917
0.412937
0.412929
0.412845
0.412798
0.412866
0.412861
0.413031
0.413181
0.413101
0.413135
0.413148
0.413063
0.413163
0.413435
0.413285
0.413392
0.413505
0.41338
0.41338
0.413376
0.413326
0.413228
0.413262
0.413272
0.413125
0.413156
0.413275
0.413285
0.413263
0.41324
0.413255
0.41319
0.413183
0.413204
0.413231
0.413205
0.413184
0.413133
0.413118
0.413076
0.41302
0.41281
0.412751
0.412899
0.412945
0.412897
0.412781
0.412699
0.412837
0.412954
0.412905
0.412794
0.41268
0.412783
0.412908
0.412861
0.412679
0.412733
0.412931
0.412931
0.412921
0.412794
0.412692
0.412691
0.412656
0.412776
0.413031
0.412859
0.412958
0.413096
0.412982
0.413041
0.413065
0.41302
0.412949
0.412822
0.412924
0.413121
0.413091
0.413049
0.412814
0.381878
0.396072
0.405981
0.411075
0.413201
0.413762
0.413727
0.413726
0.413697
0.413787
0.413828
0.413725
0.413741
0.413754
0.413733
0.413701
0.413684
0.413526
0.41358
0.413659
0.413642
0.413647
0.413596
0.413588
0.413578
0.413581
0.413554
0.413575
0.413503
0.413474
0.413426
0.413231
0.413118
0.413106
0.413049
0.413032
0.412971
0.412775
0.412764
0.412885
0.412736
0.412729
0.412943
0.413042
0.412984
0.412801
0.412757
0.412834
0.412787
0.412889
0.412938
0.412793
0.412884
0.412971
0.412972
0.412971
0.412709
0.412709
0.41292
0.412845
0.412954
0.413135
0.413052
0.413047
0.413049
0.413023
0.412981
0.412963
0.412934
0.412818
0.412839
0.412858
0.412805
0.412701
0.41276
0.413008
0.413017
0.413001
0.412765
0.412815
0.412946
0.412952
0.412952
0.412864
0.412848
0.412676
0.412762
0.412909
0.412867
0.412712
0.381914
0.396023
0.405971
0.411215
0.412838
0.412881
0.413033
0.41323
0.413037
0.41311
0.413237
0.413207
0.413161
0.413079
0.413185
0.413298
0.413251
0.413066
0.413111
0.413221
0.413206
0.413166
0.413235
0.413396
0.413174
0.413211
0.413371
0.413355
0.413242
0.413282
0.413383
0.413166
0.413242
0.413348
0.413227
0.413208
0.413132
0.413137
0.413088
0.412989
0.412907
0.412877
0.41285
0.412822
0.412761
0.412615
0.41254
0.412786
0.412944
0.412834
0.412874
0.412881
0.412846
0.412749
0.412937
0.413262
0.413143
0.41324
0.413408
0.413425
0.413382
0.413168
0.41322
0.413273
0.413259
0.413258
0.413217
0.413192
0.413076
0.412998
0.412763
0.412756
0.412994
0.413029
0.412972
0.412771
0.412829
0.412921
0.412766
0.412701
0.412889
0.413015
0.41297
0.412804
0.412773
0.412879
0.41285
0.412849
0.412808
0.41267
0.381892
0.396074
0.405953
0.411046
0.413156
0.413854
0.413875
0.413902
0.413906
0.413882
0.413912
0.413889
0.413869
0.413815
0.41364
0.413672
0.413707
0.413484
0.413561
0.41366
0.413409
0.413456
0.413588
0.413533
0.413535
0.413549
0.413545
0.413431
0.413313
0.413343
0.41337
0.413306
0.413162
0.413058
0.413081
0.413083
0.413041
0.41298
0.412905
0.412853
0.412762
0.412636
0.412754
0.412863
0.412837
0.41282
0.412632
0.412717
0.412839
0.412695
0.4128
0.41287
0.412629
0.412632
0.412898
0.412877
0.413025
0.413189
0.412989
0.41308
0.413196
0.412986
0.413063
0.413135
0.412999
0.412992
0.412985
0.412827
0.412857
0.412949
0.412767
0.412833
0.412879
0.412861
0.412856
0.412656
0.412706
0.412967
0.412967
0.412928
0.412856
0.412765
0.412737
0.412693
0.41284
0.412981
0.412772
0.41286
0.412997
0.412732
0.381878
0.396072
0.40598
0.41108
0.41317
0.413933
0.413948
0.413907
0.413904
0.413886
0.413879
0.41381
0.413761
0.413724
0.413749
0.413755
0.413627
0.413683
0.413726
0.41352
0.413601
0.413706
0.413646
0.413672
0.413615
0.413588
0.4136
0.413577
0.413275
0.413247
0.413326
0.413165
0.413096
0.413079
0.413032
0.413021
0.412957
0.412752
0.412723
0.412829
0.412767
0.412719
0.412769
0.412858
0.412837
0.412818
0.412777
0.412838
0.412888
0.412865
0.41286
0.41266
0.412703
0.412982
0.412906
0.413033
0.413188
0.413118
0.413151
0.413169
0.413135
0.413036
0.413036
0.413022
0.412872
0.412933
0.413027
0.412796
0.412792
0.412998
0.413064
0.413028
0.412986
0.412883
0.412833
0.412914
0.413019
0.412989
0.412947
0.412904
0.412709
0.412783
0.412985
0.412979
0.412961
0.412714
0.412724
0.412886
0.412879
0.412754
0.381892
0.396075
0.405953
0.411042
0.41318
0.413757
0.413722
0.413812
0.413854
0.413775
0.413808
0.413762
0.413726
0.413605
0.413661
0.413696
0.413472
0.413549
0.413651
0.413403
0.413446
0.413589
0.413477
0.413475
0.413469
0.413348
0.413306
0.413351
0.413314
0.413269
0.413212
0.413093
0.413034
0.41319
0.413291
0.41323
0.413242
0.413254
0.413258
0.413167
0.412928
0.412797
0.41274
0.412626
0.412575
0.412579
0.412561
0.412524
0.412653
0.412807
0.412809
0.412808
0.412589
0.412572
0.412861
0.412882
0.413027
0.413217
0.413139
0.413185
0.413197
0.413185
0.413158
0.413163
0.413146
0.412972
0.413018
0.41309
0.412905
0.412909
0.413003
0.413004
0.41299
0.41301
0.412973
0.412926
0.412788
0.412867
0.412947
0.412897
0.412779
0.412722
0.412781
0.412656
0.412751
0.412893
0.412655
0.41264
0.412772
0.412622
0.381889
0.396092
0.405891
0.411195
0.41305
0.413329
0.413376
0.413335
0.413195
0.413285
0.413371
0.413339
0.41333
0.413212
0.413286
0.413364
0.413327
0.413342
0.41334
0.413261
0.4132
0.413408
0.413636
0.413604
0.413613
0.413601
0.413555
0.413297
0.41324
0.413302
0.413204
0.413165
0.413117
0.413059
0.41306
0.413023
0.412906
0.412868
0.412855
0.412697
0.412674
0.412758
0.412731
0.412746
0.412729
0.412694
0.412668
0.412665
0.41253
0.412526
0.412919
0.413505
0.413512
0.413525
0.4135
0.413531
0.413548
0.413531
0.413523
0.413313
0.413356
0.413414
0.413319
0.413329
0.413268
0.413252
0.413255
0.413204
0.413242
0.413264
0.413208
0.413011
0.413002
0.413063
0.413016
0.413019
0.413019
0.412969
0.412958
0.412923
0.412717
0.412782
0.41288
0.41265
0.412648
0.412792
0.412737
0.412746
0.412744
0.412616
0.381875
0.39605
0.406046
0.411158
0.412772
0.412899
0.412747
0.412759
0.412885
0.412886
0.412911
0.412916
0.41279
0.412861
0.413147
0.413159
0.413156
0.413003
0.413104
0.413448
0.41367
0.413667
0.413513
0.413512
0.413498
0.413338
0.413364
0.413495
0.413399
0.413375
0.41331
0.413106
0.41312
0.413247
0.413035
0.413062
0.413214
0.413197
0.413152
0.412895
0.412918
0.413009
0.412953
0.41294
0.412755
0.412822
0.412875
0.412827
0.412724
0.412672
0.412679
0.412572
0.412525
0.412639
0.412756
0.41272
0.412746
0.412726
0.412545
0.412505
0.412611
0.412532
0.412512
0.412581
0.412569
0.412682
0.412725
0.412549
0.412621
0.412866
0.412885
0.412928
0.412914
0.412892
0.412858
0.412734
0.41279
0.413014
0.413053
0.413013
0.412931
0.412911
0.412688
0.412749
0.412882
0.412722
0.412658
0.412774
0.412825
0.412695
0.381878
0.396072
0.405985
0.411058
0.413265
0.413676
0.413594
0.413589
0.413574
0.413577
0.413528
0.413612
0.413669
0.413624
0.413479
0.413512
0.413587
0.413511
0.413509
0.413496
0.413594
0.413688
0.413659
0.413618
0.413577
0.413537
0.41351
0.41338
0.413266
0.413318
0.413333
0.413187
0.413258
0.413282
0.413261
0.413245
0.412927
0.412929
0.412964
0.412828
0.412799
0.412759
0.412753
0.41271
0.412699
0.412543
0.412625
0.412797
0.412746
0.41274
0.412626
0.412723
0.413323
0.413578
0.413509
0.413507
0.4135
0.41354
0.413581
0.413566
0.413556
0.413561
0.413426
0.413433
0.413441
0.413209
0.413254
0.413321
0.413128
0.413224
0.413332
0.41321
0.413276
0.413363
0.413342
0.413347
0.413321
0.41328
0.413209
0.413122
0.413036
0.412762
0.412748
0.412944
0.412971
0.412936
0.412711
0.412765
0.412892
0.412645
0.381878
0.396073
0.405981
0.411078
0.413195
0.413796
0.413796
0.413748
0.41382
0.413853
0.413765
0.41376
0.413748
0.41375
0.413635
0.413694
0.41374
0.413523
0.413606
0.413718
0.413702
0.413656
0.41369
0.413751
0.413744
0.413744
0.413693
0.413666
0.413392
0.413334
0.413358
0.413186
0.413138
0.413184
0.413164
0.41308
0.413092
0.413114
0.412984
0.413078
0.413155
0.413142
0.413134
0.412886
0.412943
0.413016
0.412956
0.412983
0.412991
0.412975
0.412754
0.412785
0.41332
0.41361
0.413533
0.413615
0.413655
0.413573
0.413569
0.413575
0.413561
0.413501
0.413523
0.413528
0.413321
0.413363
0.413422
0.413252
0.413346
0.413422
0.413419
0.41342
0.413382
0.413377
0.413332
0.413328
0.413207
0.413204
0.413185
0.413216
0.413163
0.413008
0.412906
0.412879
0.412772
0.412741
0.412923
0.412997
0.412942
0.412741
0.381868
0.396039
0.406098
0.411141
0.412712
0.413127
0.413101
0.412951
0.412878
0.412928
0.41299
0.412954
0.412843
0.413048
0.413529
0.413418
0.413458
0.413771
0.413823
0.413773
0.413607
0.413645
0.413745
0.413481
0.413488
0.413595
0.413532
0.413511
0.413475
0.41346
0.41334
0.413264
0.413227
0.41317
0.41302
0.41298
0.412972
0.412809
0.412856
0.413018
0.413021
0.413021
0.412988
0.412984
0.412922
0.41289
0.412889
0.412822
0.412876
0.412927
0.412679
0.412736
0.412814
0.412785
0.4127
0.412673
0.412877
0.412868
0.412889
0.412884
0.412898
0.412801
0.412889
0.413053
0.413048
0.413046
0.412846
0.41292
0.413091
0.41304
0.413073
0.41303
0.412925
0.412864
0.412939
0.412966
0.412842
0.412925
0.413072
0.412824
0.412852
0.412971
0.412744
0.412796
0.41291
0.412914
0.412915
0.412855
0.412838
0.412611
0.381875
0.396084
0.405941
0.411178
0.4131
0.413313
0.41345
0.413524
0.41335
0.413436
0.41356
0.413541
0.41354
0.413474
0.41348
0.413434
0.413251
0.413301
0.413436
0.413396
0.413393
0.413278
0.413408
0.413517
0.413336
0.413435
0.413574
0.413443
0.413309
0.413328
0.413337
0.413138
0.413202
0.413228
0.413204
0.413193
0.413058
0.413022
0.412928
0.412676
0.412619
0.412696
0.412585
0.412529
0.412574
0.412637
0.41262
0.412571
0.41243
0.412445
0.412748
0.412773
0.412729
0.412656
0.412536
0.412631
0.412705
0.412576
0.412693
0.412842
0.412795
0.412795
0.412813
0.412807
0.412627
0.41255
0.412592
0.412506
0.412521
0.412775
0.412849
0.41282
0.412734
0.412774
0.412799
0.412671
0.412768
0.412822
0.412718
0.412624
0.412745
0.41294
0.412923
0.412907
0.41277
0.412721
0.412564
0.412543
0.412652
0.412546
0.381878
0.396073
0.405982
0.411069
0.413234
0.413718
0.413666
0.413686
0.413654
0.41372
0.413748
0.413663
0.413726
0.413761
0.413728
0.413687
0.413649
0.413618
0.413495
0.413551
0.413677
0.413597
0.413674
0.4137
0.41364
0.413638
0.413591
0.41335
0.41326
0.413303
0.413217
0.413185
0.413159
0.413105
0.412931
0.412943
0.413031
0.413043
0.413034
0.412785
0.412768
0.412793
0.412787
0.412766
0.412614
0.412579
0.412491
0.412609
0.412817
0.412771
0.412768
0.412737
0.412757
0.412733
0.412706
0.412654
0.412485
0.412561
0.412766
0.412734
0.412634
0.412695
0.412875
0.412885
0.412886
0.412797
0.412774
0.412561
0.412548
0.412686
0.412705
0.412641
0.412736
0.412897
0.412884
0.412875
0.412751
0.412713
0.412606
0.412573
0.412643
0.412572
0.412684
0.412869
0.412868
0.412868
0.412696
0.412799
0.412887
0.412698
0.381877
0.396073
0.405981
0.411081
0.41317
0.413935
0.413949
0.413874
0.413884
0.413823
0.413838
0.413845
0.413823
0.413831
0.413828
0.413681
0.413727
0.413778
0.413563
0.413645
0.413767
0.413546
0.413607
0.413786
0.413754
0.413751
0.413754
0.413765
0.413732
0.413693
0.413632
0.413504
0.4134
0.413316
0.413062
0.413079
0.413183
0.413185
0.413182
0.4131
0.412929
0.412947
0.413015
0.412963
0.412843
0.412799
0.412836
0.412845
0.412808
0.412643
0.412617
0.412942
0.413609
0.413672
0.413576
0.413634
0.413654
0.4136
0.413604
0.413582
0.413554
0.413507
0.413475
0.413466
0.413291
0.413327
0.413385
0.413192
0.413282
0.413365
0.413247
0.41324
0.413223
0.413234
0.413228
0.413048
0.413078
0.413125
0.413038
0.413031
0.413061
0.413065
0.412898
0.412947
0.412996
0.412958
0.412928
0.412785
0.412731
0.412584
0.381878
0.396073
0.40598
0.411078
0.413196
0.413797
0.413798
0.413751
0.413822
0.413856
0.413767
0.413763
0.413751
0.413753
0.413638
0.413696
0.413742
0.413524
0.413607
0.413721
0.413681
0.413691
0.413695
0.413708
0.413675
0.413629
0.413602
0.413569
0.413388
0.413273
0.413258
0.413118
0.413112
0.413201
0.413168
0.413081
0.413092
0.413116
0.412988
0.413083
0.413158
0.413144
0.413136
0.412888
0.412944
0.413016
0.412991
0.412984
0.412955
0.412951
0.412759
0.412803
0.413324
0.413446
0.413445
0.413425
0.413439
0.41346
0.413388
0.413378
0.413238
0.41332
0.413383
0.413208
0.413287
0.413337
0.413264
0.413294
0.41325
0.413064
0.413116
0.413191
0.413179
0.413178
0.413108
0.413076
0.412852
0.412797
0.412892
0.412803
0.41291
0.413
0.412814
0.412905
0.412974
0.412935
0.412876
0.41279
0.412789
0.412622
0.381878
0.396072
0.405985
0.411057
0.413264
0.413676
0.413594
0.413623
0.413687
0.413657
0.413626
0.413625
0.413511
0.413581
0.413681
0.413641
0.413503
0.41354
0.413608
0.413565
0.413586
0.413566
0.413532
0.413348
0.413415
0.413489
0.413302
0.413405
0.41355
0.413529
0.413524
0.413464
0.413465
0.413425
0.413368
0.413236
0.413179
0.413089
0.412807
0.412826
0.412897
0.412882
0.412877
0.412765
0.412737
0.412548
0.412619
0.412834
0.412852
0.41281
0.412636
0.412716
0.413346
0.413503
0.413451
0.413417
0.413437
0.413484
0.413471
0.413465
0.413243
0.41323
0.413352
0.41336
0.413349
0.413135
0.413154
0.413234
0.413015
0.413081
0.41324
0.413236
0.413224
0.412999
0.41295
0.413091
0.413167
0.413144
0.413167
0.413132
0.413063
0.412895
0.412819
0.412866
0.412783
0.41275
0.412913
0.412982
0.412924
0.412719
0.381875
0.396048
0.406054
0.411132
0.412808
0.413012
0.412973
0.412816
0.412821
0.413123
0.413195
0.413144
0.412962
0.413003
0.413178
0.413106
0.413153
0.413177
0.413103
0.413158
0.413184
0.413299
0.413578
0.413378
0.413455
0.413612
0.413402
0.413365
0.413487
0.413506
0.413456
0.413306
0.41322
0.413208
0.413201
0.413093
0.413095
0.413205
0.413204
0.413119
0.413145
0.413161
0.41309
0.413096
0.413091
0.413102
0.413084
0.413047
0.412976
0.412989
0.413012
0.41299
0.412943
0.412731
0.412564
0.412624
0.412657
0.412538
0.412603
0.412836
0.41284
0.412827
0.412638
0.412684
0.412939
0.412928
0.41293
0.412931
0.412907
0.412839
0.412981
0.413154
0.41309
0.413131
0.413138
0.413101
0.413118
0.413082
0.413007
0.412972
0.412971
0.412965
0.412796
0.412893
0.413072
0.413036
0.412962
0.412907
0.412856
0.412642
0.381916
0.396014
0.405989
0.411205
0.41281
0.412859
0.413016
0.41322
0.413104
0.413079
0.413041
0.413042
0.412972
0.413104
0.413256
0.413239
0.413229
0.413049
0.413026
0.413024
0.413198
0.413507
0.413509
0.413453
0.413235
0.413274
0.413447
0.41336
0.413292
0.413244
0.413193
0.413105
0.413213
0.413301
0.413247
0.413074
0.41306
0.413114
0.413126
0.413124
0.413013
0.412998
0.412958
0.412907
0.412853
0.412821
0.412782
0.412736
0.412609
0.412587
0.412529
0.412647
0.412872
0.412851
0.412819
0.412776
0.412906
0.412878
0.413023
0.413156
0.413126
0.413028
0.413059
0.41312
0.413017
0.413039
0.412981
0.41299
0.412995
0.412937
0.412996
0.41303
0.412977
0.412853
0.412806
0.412939
0.413026
0.412995
0.412952
0.4129
0.412663
0.412714
0.41285
0.412858
0.412859
0.412625
0.412684
0.412844
0.412813
0.412682
0.381914
0.396023
0.405972
0.411214
0.412837
0.412878
0.413024
0.413223
0.413073
0.413096
0.413102
0.413064
0.412959
0.413082
0.413256
0.413261
0.413261
0.413041
0.413148
0.413391
0.413399
0.413402
0.4133
0.413292
0.413217
0.413157
0.413176
0.413166
0.413147
0.413156
0.413056
0.413143
0.413288
0.413284
0.413276
0.413125
0.412994
0.412996
0.413069
0.413022
0.413022
0.412982
0.412803
0.412626
0.412714
0.4128
0.412773
0.412762
0.412591
0.412767
0.41316
0.41301
0.413093
0.413293
0.413318
0.413277
0.413035
0.413066
0.413251
0.413256
0.413263
0.413258
0.413197
0.412981
0.413047
0.413142
0.412968
0.413056
0.413127
0.413073
0.412939
0.412871
0.412889
0.412811
0.412911
0.412976
0.412953
0.41295
0.41285
0.412849
0.412801
0.41277
0.412724
0.412689
0.41254
0.412528
0.412825
0.412898
0.412843
0.412646
0.381878
0.396073
0.40598
0.411078
0.413187
0.413831
0.413846
0.413826
0.413819
0.413834
0.413825
0.413811
0.413798
0.413719
0.4137
0.413715
0.413614
0.413681
0.413725
0.41352
0.413602
0.413707
0.413576
0.413569
0.413568
0.413525
0.413459
0.413404
0.413293
0.413218
0.413286
0.413307
0.413161
0.413221
0.413259
0.413028
0.413094
0.413242
0.413034
0.413003
0.413069
0.412952
0.41304
0.413186
0.413026
0.41312
0.413183
0.413056
0.413118
0.413141
0.413084
0.412949
0.412796
0.412835
0.412829
0.41299
0.413166
0.413052
0.41306
0.413053
0.413076
0.413022
0.413021
0.413008
0.412862
0.412925
0.413019
0.412789
0.412789
0.413001
0.413063
0.413027
0.412986
0.412883
0.412833
0.412951
0.413
0.412945
0.412746
0.412732
0.412892
0.412803
0.412914
0.412988
0.412953
0.412906
0.412795
0.412865
0.412888
0.412719
0.381892
0.396075
0.405951
0.411047
0.413148
0.413922
0.413943
0.413871
0.413854
0.413833
0.413835
0.413828
0.413812
0.413766
0.41378
0.413845
0.413859
0.413824
0.41378
0.41377
0.413724
0.413609
0.41356
0.413616
0.413673
0.413685
0.413639
0.413612
0.413608
0.413573
0.413481
0.413443
0.413372
0.413151
0.413152
0.413319
0.413328
0.413305
0.413042
0.413004
0.413126
0.413142
0.413105
0.412973
0.413031
0.413049
0.412872
0.412919
0.413121
0.413109
0.41308
0.413068
0.413014
0.412858
0.412946
0.413143
0.41316
0.413118
0.412917
0.41298
0.413185
0.413033
0.41312
0.413275
0.413181
0.413223
0.413239
0.413253
0.413259
0.413214
0.413013
0.413052
0.413124
0.413126
0.413126
0.412963
0.412869
0.412942
0.413009
0.412955
0.412837
0.412754
0.412781
0.412658
0.412711
0.412872
0.412747
0.412706
0.412731
0.412607
0.381889
0.396091
0.405897
0.411164
0.413122
0.413409
0.413369
0.413179
0.413161
0.413264
0.413092
0.413174
0.413287
0.413053
0.413124
0.413254
0.413224
0.413177
0.413144
0.413317
0.413423
0.413404
0.41339
0.413336
0.413139
0.413075
0.413148
0.413057
0.413133
0.413301
0.413308
0.413304
0.413091
0.413171
0.413263
0.413236
0.413229
0.413129
0.413072
0.412891
0.412703
0.412654
0.412568
0.412677
0.41284
0.41277
0.412763
0.412672
0.412773
0.412908
0.412909
0.412909
0.4127
0.41274
0.413011
0.412913
0.41301
0.413233
0.413257
0.413215
0.413145
0.413132
0.412953
0.413019
0.4132
0.413102
0.413096
0.413088
0.413019
0.412954
0.412937
0.412891
0.412978
0.413013
0.412873
0.412961
0.413019
0.412773
0.412817
0.412967
0.41293
0.412921
0.412891
0.412884
0.412765
0.412709
0.412912
0.413005
0.412946
0.412733
0.381877
0.396072
0.405981
0.411077
0.413191
0.413789
0.413777
0.413855
0.413877
0.413821
0.41382
0.413804
0.413788
0.413705
0.413723
0.41377
0.413699
0.413753
0.413768
0.413615
0.413674
0.413717
0.413688
0.413691
0.413613
0.413541
0.413277
0.413294
0.413467
0.413451
0.413411
0.413394
0.413374
0.413197
0.413059
0.412995
0.41282
0.412799
0.412908
0.412767
0.412767
0.412889
0.412749
0.412792
0.412946
0.412772
0.412824
0.412984
0.412819
0.412919
0.413017
0.413017
0.413016
0.412784
0.412822
0.412982
0.412987
0.413
0.412888
0.412965
0.413006
0.412853
0.412913
0.413016
0.4128
0.412869
0.413011
0.412792
0.412839
0.413029
0.413012
0.413053
0.413013
0.412948
0.412848
0.412901
0.412964
0.412913
0.412733
0.412781
0.412977
0.412953
0.412914
0.412859
0.412847
0.412675
0.412761
0.412908
0.412865
0.41271
0.381851
0.396073
0.406082
0.411144
0.4127
0.412815
0.412778
0.412748
0.412869
0.41301
0.413006
0.413005
0.412812
0.412873
0.413312
0.413407
0.413376
0.413284
0.413437
0.413588
0.413388
0.413456
0.413657
0.413669
0.413672
0.413599
0.413594
0.413511
0.413306
0.413186
0.413279
0.413304
0.413266
0.413221
0.413216
0.41335
0.41333
0.413102
0.413121
0.413229
0.413224
0.413216
0.412968
0.413022
0.413122
0.413073
0.413069
0.413063
0.413029
0.412799
0.412667
0.412678
0.412606
0.412732
0.412855