/*--------------------------------*- C++ -*----------------------------------*\
  =========                 |
  \\      /  F ield         | OpenFOAM: The Open Source CFD Toolbox
   \\    /   O peration     | Website:  https://openfoam.org
    \\  /    A nd           | Version:  11
     \\/     M anipulation  |
\*---------------------------------------------------------------------------*/
FoamFile
{
    format      ascii;
    class       volScalarField;
    location    "0.046";
    object      nut;
}
// * * * * * * * * * * * * * * * * * * * * * * * * * * * * * * * * * * * * * //

dimensions      [0 2 -1 0 0 0 0];

internalField   nonuniform List<scalar> 
287084
(
0.000837169
0.000869439
0.000892999
0.000905479
0.000909768
0.000910514
0.00091065
0.000910429
0.000910456
0.000911037
0.000911193
0.000911121
0.000911087
0.000910983
0.000910799
0.000910324
0.000910345
0.00091081
0.000910418
0.000910577
0.000910849
0.00091065
0.000910643
0.000910565
0.000910465
0.000910067
0.000910131
0.000910527
0.000910648
0.000910606
0.000910569
0.000910668
0.000910456
0.000910236
0.000910583
0.000910991
0.000910981
0.00091118
0.000911209
0.000910867
0.000911013
0.000911422
0.000911308
0.000911249
0.000911371
0.00091147
0.000911346
0.000911667
0.000912057
0.000911729
0.000911934
0.000912029
0.00091203
0.000912034
0.000911503
0.000911594
0.000911924
0.000911719
0.000911693
0.000911733
0.000911729
0.000911385
0.000911493
0.00091213
0.000912188
0.000912044
0.000911524
0.000911553
0.000911889
0.000911903
0.000911891
0.000911467
0.000911592
0.000912039
0.000911934
0.000911943
0.000911926
0.000911657
0.000911565
0.000911875
0.000912076
0.000911988
0.000911856
0.000911812
0.000911669
0.000911157
0.000911124
0.00091154
0.000911584
0.000911344
0.00118332
0.00122734
0.00125901
0.00127562
0.00128093
0.00128145
0.00128146
0.00128136
0.00128169
0.00128191
0.00128178
0.00128169
0.00128133
0.00128109
0.00128088
0.00128059
0.00128075
0.0012809
0.00128026
0.00128014
0.00128071
0.00128076
0.001281
0.00128129
0.00128114
0.00128076
0.00128094
0.00128141
0.0012807
0.00128097
0.00128141
0.00128107
0.00128091
0.00128108
0.00128139
0.0012815
0.00128159
0.00128144
0.00128196
0.00128261
0.00128272
0.00128287
0.00128236
0.00128272
0.00128321
0.00128329
0.00128338
0.00128324
0.00128331
0.00128319
0.00128263
0.0012827
0.00128321
0.00128321
0.00128295
0.00128278
0.001283
0.00128263
0.00128288
0.00128344
0.00128313
0.00128327
0.00128331
0.00128315
0.00128268
0.00128289
0.00128344
0.00128332
0.00128329
0.00128292
0.00128328
0.00128376
0.0012836
0.00128326
0.00128289
0.00128292
0.00128269
0.00128306
0.00128338
0.00128298
0.00128297
0.00128293
0.0012825
0.00128268
0.00128292
0.00128286
0.00128285
0.00128247
0.00128242
0.001282
0.00118339
0.0012275
0.00125922
0.00127567
0.00128108
0.00128223
0.00128219
0.00128194
0.00128172
0.00128208
0.00128234
0.0012821
0.00128202
0.0012819
0.00128133
0.00128138
0.00128167
0.00128157
0.00128147
0.00128072
0.00128074
0.00128082
0.00128087
0.00128147
0.00128149
0.00128147
0.00128082
0.00128094
0.00128136
0.00128073
0.00128076
0.00128128
0.001281
0.00128112
0.00128167
0.00128149
0.00128181
0.00128252
0.00128262
0.00128292
0.00128296
0.00128272
0.00128291
0.00128318
0.00128326
0.0012831
0.00128321
0.00128362
0.00128374
0.00128375
0.00128301
0.00128312
0.00128343
0.00128277
0.00128298
0.00128354
0.00128293
0.00128277
0.0012832
0.00128354
0.00128342
0.0012832
0.00128306
0.0012827
0.00128307
0.00128363
0.00128361
0.0012836
0.00128322
0.00128321
0.0012834
0.00128332
0.00128262
0.00128274
0.00128318
0.0012827
0.00128251
0.00128268
0.00128266
0.00128266
0.00128251
0.00128296
0.00128337
0.00128263
0.00128275
0.00128319
0.00128245
0.00128256
0.00128294
0.00128219
0.00118336
0.00122777
0.00125929
0.0012758
0.00128168
0.00128279
0.00128263
0.0012826
0.00128226
0.0012824
0.00128259
0.00128245
0.00128233
0.00128156
0.00128168
0.00128195
0.00128181
0.00128169
0.00128108
0.00128083
0.00128078
0.00128071
0.00128052
0.00128041
0.00128045
0.00128047
0.00128045
0.00128031
0.00128084
0.00128143
0.00128151
0.00128162
0.00128137
0.00128145
0.00128157
0.00128167
0.00128172
0.00128144
0.00128184
0.0012827
0.00128266
0.00128281
0.00128266
0.00128303
0.00128325
0.0012833
0.00128338
0.00128294
0.00128288
0.00128301
0.00128314
0.00128322
0.00128312
0.00128266
0.00128267
0.00128318
0.00128276
0.00128297
0.00128362
0.00128371
0.00128356
0.00128284
0.00128305
0.00128371
0.00128335
0.00128358
0.00128371
0.00128331
0.00128361
0.00128376
0.00128296
0.00128308
0.00128347
0.00128291
0.00128282
0.00128314
0.00128311
0.00128354
0.00128377
0.00128363
0.00128342
0.00128291
0.00128317
0.0012834
0.00128322
0.00128261
0.00128259
0.00128293
0.00128291
0.00128259
0.00118337
0.00122784
0.00125934
0.001276
0.00128174
0.00128232
0.00128188
0.00128213
0.00128255
0.00128178
0.00128193
0.00128218
0.00128209
0.00128198
0.0012812
0.0012813
0.00128135
0.00128111
0.00128104
0.00128084
0.00128041
0.00128048
0.00128114
0.00128087
0.00128096
0.00128082
0.00128035
0.00128045
0.00128095
0.001281
0.00128117
0.00128129
0.00128097
0.00128125
0.00128207
0.00128175
0.0012822
0.0012829
0.00128307
0.00128322
0.00128265
0.00128262
0.00128305
0.00128327
0.00128327
0.0012827
0.0012829
0.00128334
0.00128271
0.0012829
0.00128345
0.0012833
0.00128327
0.00128315
0.00128268
0.00128286
0.00128355
0.00128329
0.00128339
0.00128325
0.00128276
0.00128276
0.00128321
0.00128275
0.00128284
0.00128327
0.0012831
0.00128302
0.00128287
0.0012825
0.00128263
0.00128364
0.00128376
0.00128356
0.0012829
0.00128294
0.00128338
0.00128298
0.00128294
0.00128291
0.00128248
0.00128251
0.00128302
0.00128255
0.00128281
0.00128331
0.0012826
0.00128278
0.00128327
0.00128246
0.00118332
0.00122791
0.0012596
0.00127589
0.00128067
0.0012807
0.00128072
0.00128172
0.00128207
0.0012819
0.00128174
0.00128104
0.00128084
0.00128064
0.00128097
0.0012816
0.00128111
0.00128102
0.00128088
0.00128085
0.00128062
0.00128005
0.00128007
0.0012805
0.00128047
0.00128019
0.00128042
0.00128088
0.00128089
0.00128091
0.00128074
0.00128105
0.00128121
0.00128144
0.00128165
0.00128179
0.0012819
0.00128205
0.00128212
0.00128216
0.0012822
0.00128195
0.00128218
0.00128281
0.00128248
0.00128263
0.00128318
0.00128308
0.00128314
0.00128319
0.0012831
0.00128298
0.00128353
0.00128386
0.00128384
0.00128383
0.00128311
0.0012831
0.00128349
0.00128353
0.00128347
0.00128279
0.00128289
0.00128346
0.00128323
0.00128344
0.00128367
0.00128361
0.00128358
0.001283
0.00128314
0.00128368
0.00128305
0.00128328
0.00128366
0.00128288
0.0012829
0.00128331
0.00128271
0.00128272
0.0012831
0.00128267
0.00128297
0.00128344
0.00128318
0.00128325
0.00128307
0.00128297
0.00128295
0.00128249
0.00118323
0.00122804
0.00125961
0.00127599
0.00128094
0.00128096
0.0012813
0.0012818
0.00128152
0.0012814
0.00128099
0.00128173
0.00128293
0.0012827
0.00128245
0.00128258
0.00128271
0.00128243
0.00128232
0.00128199
0.00128193
0.0012818
0.0012812
0.0012813
0.0012815
0.00128149
0.00128152
0.0012809
0.00128113
0.00128132
0.00128086
0.00128129
0.0012819
0.00128156
0.00128158
0.00128188
0.00128175
0.00128202
0.00128297
0.00128329
0.00128332
0.00128285
0.00128309
0.00128364
0.00128378
0.00128389
0.0012834
0.00128367
0.00128383
0.00128374
0.00128333
0.00128348
0.00128378
0.00128357
0.00128319
0.00128335
0.00128373
0.00128371
0.00128369
0.0012834
0.00128331
0.0012826
0.00128267
0.00128343
0.00128352
0.00128339
0.0012834
0.00128322
0.00128245
0.00128261
0.00128314
0.00128287
0.00128257
0.00128281
0.00128337
0.00128326
0.00128309
0.0012827
0.00128269
0.00128251
0.00128293
0.00128338
0.00128266
0.00128278
0.00128324
0.00128289
0.00128317
0.00128332
0.00128314
0.00128249
0.00118334
0.00122799
0.00125943
0.00127572
0.00128254
0.00128431
0.00128417
0.00128428
0.00128441
0.00128421
0.001284
0.0012839
0.00128378
0.00128347
0.00128321
0.0012827
0.0012825
0.00128267
0.00128256
0.00128237
0.00128231
0.00128206
0.0012815
0.00128125
0.00128133
0.00128153
0.00128146
0.00128151
0.00128144
0.00128091
0.00128082
0.00128115
0.00128096
0.00128117
0.00128189
0.0012822
0.00128212
0.0012826
0.00128353
0.00128369
0.00128378
0.00128331
0.00128366
0.00128421
0.00128422
0.00128431
0.00128412
0.00128419
0.00128401
0.00128435
0.00128476
0.00128443
0.00128466
0.00128473
0.00128458
0.00128454
0.00128454
0.00128456
0.0012843
0.00128355
0.00128335
0.00128359
0.00128343
0.00128347
0.00128341
0.00128292
0.00128305
0.0012835
0.00128339
0.00128316
0.00128315
0.00128316
0.00128298
0.00128263
0.00128279
0.00128354
0.00128357
0.00128353
0.00128272
0.00128262
0.00128307
0.00128282
0.00128317
0.0012834
0.00128328
0.00128313
0.00128275
0.00128294
0.00128301
0.00128245
0.00118328
0.00122801
0.00125965
0.00127597
0.00128128
0.00128181
0.00128196
0.00128178
0.00128154
0.00128127
0.00128176
0.00128294
0.00128268
0.00128257
0.00128242
0.00128233
0.001282
0.00128212
0.00128235
0.00128211
0.00128196
0.00128187
0.0012818
0.00128162
0.00128163
0.00128152
0.00128138
0.00128141
0.00128126
0.00128053
0.00128061
0.0012813
0.00128114
0.0012813
0.0012819
0.00128223
0.00128216
0.00128255
0.00128334
0.00128329
0.00128372
0.00128402
0.00128377
0.00128419
0.00128443
0.00128451
0.00128459
0.00128414
0.00128413
0.00128391
0.00128304
0.00128298
0.00128335
0.00128335
0.00128302
0.00128311
0.00128373
0.00128373
0.00128367
0.00128293
0.00128301
0.00128357
0.00128355
0.0012835
0.00128281
0.00128283
0.00128338
0.00128301
0.00128334
0.00128367
0.00128363
0.0012836
0.0012829
0.00128308
0.00128348
0.00128307
0.00128347
0.00128374
0.00128367
0.00128364
0.00128288
0.00128292
0.00128337
0.00128305
0.00128321
0.00128325
0.00128304
0.00128306
0.00128298
0.00128228
0.00118322
0.00122797
0.00125999
0.00127558
0.0012812
0.00128195
0.0012818
0.00128131
0.00128133
0.00128222
0.00128218
0.00128185
0.00128105
0.00128102
0.00128169
0.00128162
0.00128134
0.00128105
0.00128074
0.00127997
0.00128008
0.00128054
0.00128038
0.00128005
0.00128014
0.00128056
0.00127999
0.00128032
0.00128103
0.00128078
0.00128068
0.00128102
0.00128147
0.00128155
0.00128198
0.00128232
0.00128244
0.00128223
0.00128258
0.00128298
0.00128275
0.0012827
0.00128271
0.00128237
0.00128262
0.00128322
0.00128314
0.0012832
0.00128314
0.00128284
0.00128312
0.00128331
0.00128317
0.00128288
0.00128268
0.00128293
0.00128296
0.00128275
0.00128302
0.00128355
0.0012835
0.00128344
0.00128274
0.00128292
0.00128317
0.00128261
0.00128288
0.00128337
0.00128298
0.00128297
0.00128281
0.00128231
0.00128231
0.00128276
0.00128277
0.00128252
0.00128275
0.0012832
0.00128317
0.00128314
0.00128247
0.0012827
0.00128334
0.00128331
0.00128328
0.00128292
0.00128263
0.00128287
0.00128301
0.00128247
0.00118331
0.00122792
0.0012597
0.00127602
0.00128162
0.00128222
0.00128205
0.00128152
0.00128158
0.00128202
0.00128187
0.0012816
0.00128152
0.00128183
0.00128134
0.00128103
0.00128146
0.00128166
0.00128137
0.00128121
0.00128105
0.00128059
0.00128047
0.00128047
0.00128036
0.00128021
0.00128007
0.00128024
0.00128039
0.00128031
0.00128043
0.00128128
0.00128177
0.001282
0.00128231
0.0012824
0.00128246
0.00128259
0.00128258
0.00128252
0.0012826
0.00128235
0.00128258
0.00128321
0.00128321
0.00128318
0.00128373
0.00128418
0.00128407
0.00128377
0.00128351
0.0012835
0.00128342
0.00128321
0.00128333
0.00128369
0.00128353
0.00128301
0.00128316
0.00128347
0.00128341
0.00128337
0.00128275
0.00128302
0.00128327
0.00128311
0.00128306
0.00128258
0.00128282
0.00128318
0.00128309
0.0012829
0.00128312
0.00128366
0.00128294
0.00128304
0.00128352
0.00128297
0.00128323
0.00128362
0.00128295
0.0012832
0.0012836
0.00128302
0.00128276
0.00128286
0.00128308
0.00128297
0.0012828
0.00128231
0.00118327
0.00122804
0.00125957
0.00127611
0.00128155
0.00128212
0.00128242
0.00128235
0.00128213
0.00128173
0.00128183
0.00128281
0.00128235
0.00128258
0.0012828
0.00128227
0.00128216
0.00128183
0.00128123
0.00128134
0.00128147
0.00128064
0.00128078
0.00128118
0.00128109
0.00128112
0.00128113
0.00128116
0.00128065
0.00128059
0.00128068
0.00128069
0.00128079
0.001281
0.00128129
0.00128148
0.00128171
0.00128171
0.00128207
0.00128275
0.00128255
0.00128277
0.00128335
0.00128332
0.00128342
0.00128351
0.00128333
0.00128328
0.00128393
0.00128434
0.00128422
0.00128432
0.00128424
0.00128413
0.00128393
0.00128317
0.00128328
0.00128355
0.00128323
0.00128291
0.00128324
0.00128374
0.00128326
0.00128351
0.00128366
0.00128354
0.00128347
0.00128293
0.00128329
0.00128363
0.00128351
0.00128344
0.00128283
0.001283
0.00128318
0.00128302
0.00128274
0.00128238
0.00128289
0.00128339
0.00128324
0.00128268
0.00128278
0.00128331
0.00128323
0.0012831
0.00128244
0.00128266
0.00128317
0.00128236
0.00118335
0.001228
0.00125946
0.00127573
0.00128272
0.00128414
0.00128379
0.00128366
0.00128343
0.00128361
0.00128358
0.00128288
0.00128296
0.00128303
0.0012824
0.00128247
0.00128243
0.00128201
0.00128185
0.00128145
0.00128152
0.00128149
0.00128073
0.00128084
0.00128098
0.00128094
0.001281
0.00128093
0.00128099
0.00128044
0.00128056
0.00128115
0.00128154
0.00128187
0.00128211
0.00128281
0.0012833
0.00128347
0.00128315
0.00128337
0.001284
0.00128426
0.0012844
0.00128391
0.0012842
0.00128466
0.00128473
0.00128478
0.00128433
0.00128434
0.00128438
0.00128431
0.00128414
0.00128374
0.00128391
0.0012841
0.0012839
0.00128345
0.00128322
0.00128385
0.00128408
0.00128388
0.00128324
0.0012832
0.00128362
0.00128302
0.0012831
0.00128351
0.00128345
0.00128322
0.0012832
0.0012832
0.00128301
0.00128266
0.00128282
0.00128357
0.00128358
0.00128351
0.00128276
0.00128286
0.00128337
0.00128336
0.00128329
0.00128256
0.00128258
0.00128315
0.001283
0.00128301
0.00128296
0.00128244
0.00118325
0.00122795
0.00125986
0.00127603
0.00128067
0.00128073
0.00128101
0.00128179
0.00128145
0.00128136
0.00128117
0.00128073
0.00128039
0.0012804
0.00128018
0.00128049
0.00128074
0.00128028
0.00128016
0.00128001
0.00127956
0.00127971
0.00128043
0.00127987
0.00128017
0.00128053
0.00128021
0.00128034
0.00128053
0.00128063
0.00128063
0.00128109
0.00128151
0.00128146
0.00128197
0.00128275
0.00128317
0.00128347
0.00128374
0.00128409
0.00128415
0.00128435
0.00128461
0.00128484
0.00128488
0.00128491
0.00128481
0.00128481
0.0012847
0.00128453
0.00128387
0.00128366
0.0012841
0.00128421
0.00128402
0.00128361
0.00128331
0.0012837
0.00128401
0.00128381
0.00128342
0.00128302
0.0012833
0.00128364
0.00128345
0.00128285
0.00128298
0.00128356
0.00128352
0.00128346
0.00128303
0.00128269
0.00128266
0.00128253
0.00128287
0.00128364
0.00128309
0.00128338
0.00128379
0.00128342
0.00128359
0.00128365
0.0012835
0.00128326
0.00128286
0.00128316
0.00128377
0.00128367
0.00128353
0.00128277
0.00118335
0.001228
0.00125945
0.00127576
0.00128258
0.00128435
0.00128418
0.00128406
0.00128384
0.00128397
0.00128393
0.00128342
0.00128327
0.0012831
0.00128281
0.00128248
0.0012822
0.00128148
0.00128142
0.00128145
0.0012812
0.00128104
0.00128074
0.00128063
0.00128055
0.00128058
0.00128057
0.00128079
0.00128078
0.00128097
0.00128116
0.00128094
0.001281
0.00128141
0.00128168
0.00128206
0.00128229
0.00128207
0.00128239
0.00128308
0.00128289
0.00128309
0.00128395
0.00128441
0.00128434
0.00128386
0.00128378
0.00128405
0.00128392
0.00128423
0.00128437
0.00128389
0.00128414
0.00128437
0.00128432
0.00128427
0.0012834
0.00128335
0.00128395
0.00128367
0.00128396
0.00128447
0.00128416
0.0012841
0.00128406
0.00128394
0.00128377
0.00128367
0.00128355
0.00128315
0.00128319
0.00128321
0.00128302
0.00128267
0.00128283
0.00128358
0.00128358
0.00128352
0.00128276
0.0012829
0.0012833
0.0012833
0.00128329
0.001283
0.00128294
0.0012824
0.00128266
0.00128311
0.00128297
0.00128245
0.00118346
0.00122785
0.00125942
0.0012762
0.00128144
0.00128161
0.00128201
0.00128251
0.00128178
0.00128185
0.00128206
0.00128177
0.00128142
0.00128094
0.00128104
0.00128114
0.00128075
0.00127994
0.00127983
0.00127995
0.00127969
0.00127938
0.00127945
0.00127985
0.00127911
0.00127924
0.00127983
0.00127994
0.00127983
0.00128026
0.00128094
0.00128068
0.00128137
0.00128217
0.00128227
0.00128268
0.00128288
0.00128331
0.00128353
0.00128354
0.00128357
0.00128371
0.00128381
0.00128387
0.00128379
0.00128342
0.00128323
0.00128403
0.00128452
0.00128417
0.00128427
0.00128426
0.0012841
0.00128375
0.00128428
0.00128524
0.00128481
0.00128505
0.00128552
0.00128552
0.00128533
0.0012846
0.00128471
0.00128483
0.00128474
0.00128469
0.00128452
0.0012844
0.001284
0.00128373
0.00128296
0.00128291
0.00128362
0.0012837
0.0012835
0.00128285
0.00128301
0.00128327
0.00128277
0.00128255
0.00128312
0.0012835
0.00128335
0.00128282
0.00128271
0.00128303
0.00128293
0.00128293
0.00128279
0.00128232
0.00118339
0.00122801
0.00125936
0.00127567
0.00128243
0.00128462
0.00128462
0.00128459
0.00128446
0.00128421
0.00128412
0.00128384
0.00128356
0.00128317
0.00128237
0.00128222
0.00128207
0.00128112
0.0012811
0.00128116
0.00128016
0.00128011
0.00128037
0.00128009
0.00128005
0.00128011
0.0012802
0.00128002
0.00127991
0.00128034
0.00128082
0.00128106
0.0012811
0.00128128
0.00128186
0.00128236
0.00128269
0.00128293
0.00128308
0.00128326
0.00128326
0.0012831
0.00128366
0.00128415
0.00128417
0.00128419
0.00128365
0.00128393
0.00128431
0.00128384
0.00128414
0.00128431
0.00128351
0.00128346
0.00128423
0.0012841
0.0012845
0.00128495
0.00128426
0.00128448
0.00128478
0.00128407
0.00128426
0.00128443
0.00128395
0.00128388
0.00128382
0.00128328
0.00128334
0.00128358
0.00128298
0.00128316
0.00128327
0.00128318
0.00128314
0.0012825
0.00128263
0.00128342
0.0012834
0.00128326
0.00128302
0.00128272
0.00128262
0.00128247
0.00128292
0.00128335
0.00128269
0.00128296
0.00128338
0.00128252
0.00118335
0.001228
0.00125944
0.00127577
0.00128247
0.00128486
0.00128483
0.00128458
0.00128443
0.0012842
0.00128398
0.00128356
0.00128318
0.00128282
0.00128264
0.00128239
0.00128172
0.00128162
0.00128149
0.00128059
0.0012806
0.00128072
0.00128038
0.00128034
0.00128012
0.00128006
0.00128021
0.00128033
0.00127967
0.00127994
0.00128061
0.00128059
0.00128089
0.00128137
0.00128176
0.00128224
0.00128253
0.00128234
0.00128264
0.00128331
0.00128341
0.0012835
0.00128385
0.00128427
0.00128431
0.00128431
0.00128423
0.00128443
0.00128457
0.00128447
0.00128442
0.00128374
0.00128382
0.00128462
0.00128432
0.00128465
0.00128506
0.00128477
0.00128481
0.0012848
0.00128463
0.00128426
0.0012842
0.0012841
0.00128358
0.00128372
0.00128396
0.0012832
0.00128315
0.00128375
0.00128392
0.00128377
0.00128361
0.00128326
0.00128307
0.0012833
0.00128361
0.00128349
0.00128334
0.00128319
0.00128257
0.00128278
0.0012834
0.00128337
0.00128329
0.00128251
0.00128254
0.00128303
0.001283
0.00128258
0.00118339
0.00122801
0.00125936
0.00127565
0.00128249
0.00128431
0.00128412
0.00128427
0.00128425
0.00128382
0.00128373
0.00128337
0.00128302
0.00128239
0.0012823
0.00128213
0.00128115
0.0012811
0.00128114
0.00128009
0.00127999
0.00128021
0.00127969
0.00127957
0.0012795
0.00127916
0.00127915
0.0012795
0.00127968
0.00127992
0.00128019
0.00128033
0.00128069
0.00128173
0.0012826
0.00128296
0.0012835
0.001284
0.00128442
0.00128449
0.00128404
0.00128387
0.00128389
0.00128368
0.00128361
0.00128369
0.00128366
0.00128355
0.00128394
0.00128438
0.00128434
0.00128428
0.00128353
0.00128341
0.00128424
0.00128423
0.0012846
0.00128512
0.00128481
0.00128488
0.00128485
0.00128475
0.0012846
0.00128456
0.00128445
0.00128386
0.00128395
0.00128413
0.00128351
0.00128348
0.00128374
0.0012837
0.00128363
0.00128366
0.00128352
0.00128334
0.00128289
0.00128312
0.00128335
0.00128317
0.00128279
0.0012826
0.00128276
0.00128236
0.00128265
0.00128308
0.00128233
0.00128228
0.00128268
0.00128218
0.00118338
0.00122806
0.00125916
0.00127612
0.00128208
0.00128297
0.00128303
0.00128277
0.00128219
0.00128228
0.00128234
0.00128202
0.00128174
0.00128112
0.00128107
0.00128102
0.00128061
0.00128036
0.00128006
0.00127954
0.00127909
0.00127951
0.00128004
0.00127983
0.00127981
0.0012798
0.00127979
0.00127921
0.00127935
0.00127994
0.00128011
0.00128052
0.00128094
0.00128135
0.00128193
0.00128237
0.00128253
0.00128289
0.00128327
0.00128314
0.00128337
0.00128387
0.00128397
0.00128416
0.00128421
0.00128415
0.0012841
0.00128409
0.00128364
0.00128359
0.00128476
0.00128652
0.00128647
0.00128644
0.00128628
0.00128629
0.00128627
0.00128614
0.00128603
0.00128531
0.00128537
0.00128548
0.00128512
0.00128509
0.00128485
0.00128474
0.0012847
0.00128449
0.00128457
0.0012846
0.00128438
0.00128373
0.00128367
0.00128383
0.00128366
0.00128364
0.00128361
0.00128344
0.00128338
0.00128326
0.0012826
0.00128279
0.00128307
0.00128235
0.00128233
0.00128277
0.00128259
0.00128261
0.00128259
0.00128216
0.00118334
0.00122793
0.00125964
0.001276
0.00128121
0.00128163
0.00128106
0.00128098
0.00128121
0.00128102
0.00128089
0.00128067
0.00128003
0.00127998
0.00128058
0.00128033
0.00128001
0.00127923
0.00127924
0.00128002
0.00128044
0.0012802
0.00127953
0.00127941
0.00127932
0.00127887
0.00127908
0.00127972
0.00127976
0.0012801
0.0012804
0.00128032
0.00128095
0.00128195
0.00128189
0.00128255
0.00128356
0.00128399
0.00128428
0.00128385
0.00128423
0.00128475
0.00128477
0.00128486
0.00128438
0.00128464
0.00128483
0.00128467
0.00128432
0.00128411
0.00128408
0.00128367
0.00128345
0.00128373
0.00128401
0.00128381
0.00128381
0.00128366
0.00128302
0.00128282
0.00128307
0.00128276
0.00128263
0.00128278
0.00128269
0.00128298
0.00128306
0.00128247
0.00128264
0.00128336
0.00128339
0.00128348
0.00128341
0.0012833
0.00128317
0.00128276
0.00128291
0.00128358
0.00128368
0.00128354
0.00128326
0.00128319
0.00128248
0.00128266
0.00128306
0.00128255
0.00128234
0.0012827
0.00128285
0.00128241
0.00118335
0.001228
0.00125945
0.00127569
0.00128274
0.00128403
0.00128369
0.00128354
0.00128333
0.00128315
0.00128278
0.00128281
0.00128273
0.00128231
0.00128157
0.00128137
0.00128129
0.00128074
0.00128042
0.00128008
0.00128011
0.00128016
0.00127988
0.00127963
0.00127946
0.00127938
0.00127944
0.00127928
0.00127928
0.00127987
0.00128043
0.00128055
0.00128138
0.00128208
0.00128262
0.00128317
0.00128273
0.00128323
0.00128377
0.00128372
0.00128394
0.00128406
0.00128423
0.00128423
0.00128429
0.00128385
0.00128412
0.00128465
0.00128446
0.00128438
0.00128396
0.00128419
0.00128598
0.00128669
0.00128639
0.00128629
0.00128618
0.00128622
0.00128627
0.00128614
0.00128604
0.00128598
0.00128549
0.00128545
0.00128541
0.00128463
0.00128472
0.00128488
0.00128423
0.00128449
0.00128478
0.00128436
0.00128454
0.00128477
0.00128468
0.00128467
0.00128456
0.00128441
0.00128417
0.00128388
0.00128359
0.00128273
0.00128267
0.00128327
0.00128334
0.00128322
0.00128251
0.00128267
0.00128306
0.00128225
0.00118335
0.001228
0.00125944
0.00127575
0.00128252
0.0012844
0.00128431
0.00128403
0.00128408
0.001284
0.0012835
0.00128325
0.00128295
0.00128268
0.00128202
0.00128189
0.00128171
0.00128072
0.00128066
0.0012807
0.00128037
0.00127998
0.0012799
0.00127996
0.0012799
0.00127995
0.00127995
0.00128011
0.00127961
0.00127988
0.00128048
0.00128054
0.00128101
0.00128179
0.00128235
0.00128269
0.00128328
0.00128385
0.00128389
0.00128456
0.00128511
0.00128531
0.00128548
0.00128484
0.00128511
0.00128538
0.00128521
0.00128528
0.00128527
0.00128516
0.0012844
0.00128442
0.00128601
0.00128682
0.00128649
0.00128666
0.00128669
0.00128635
0.00128625
0.00128619
0.00128607
0.0012858
0.00128581
0.00128575
0.00128505
0.00128512
0.00128525
0.00128467
0.00128491
0.00128511
0.00128506
0.00128502
0.00128487
0.00128482
0.00128465
0.00128461
0.00128421
0.00128417
0.0012841
0.00128417
0.00128399
0.00128349
0.00128316
0.00128306
0.00128272
0.00128261
0.00128317
0.00128339
0.00128321
0.00128255
0.00118332
0.00122789
0.0012598
0.00127594
0.00128101
0.00128232
0.00128215
0.00128155
0.00128115
0.00128111
0.00128109
0.00128073
0.00128012
0.00128047
0.00128166
0.00128101
0.0012808
0.00128145
0.00128129
0.00128083
0.00128002
0.0012799
0.00128001
0.00127907
0.00127905
0.00127943
0.00127939
0.00127958
0.00127983
0.00128024
0.00128041
0.00128077
0.00128129
0.00128176
0.00128192
0.00128241
0.00128294
0.00128294
0.00128353
0.00128441
0.00128473
0.00128498
0.00128507
0.00128519
0.00128508
0.00128503
0.00128504
0.00128481
0.00128494
0.00128504
0.0012842
0.00128429
0.00128445
0.00128427
0.00128391
0.00128374
0.00128428
0.00128417
0.00128415
0.00128405
0.00128401
0.00128363
0.00128384
0.00128428
0.0012842
0.00128414
0.00128346
0.00128364
0.00128413
0.00128392
0.00128398
0.00128381
0.00128345
0.00128323
0.00128343
0.00128349
0.00128307
0.00128331
0.00128374
0.00128295
0.00128302
0.00128338
0.00128266
0.0012828
0.00128315
0.00128315
0.00128314
0.00128294
0.00128289
0.00128214
0.00118334
0.00122803
0.00125931
0.00127606
0.00128222
0.00128289
0.00128323
0.00128332
0.00128261
0.00128268
0.00128285
0.00128254
0.00128227
0.00128179
0.0012815
0.00128104
0.00128015
0.00127997
0.00128007
0.00127963
0.00127934
0.00127873
0.00127894
0.00127915
0.00127855
0.00127891
0.00127949
0.00127934
0.0012793
0.00127982
0.0012804
0.00128038
0.00128121
0.00128194
0.0012825
0.00128308
0.00128323
0.00128362
0.00128377
0.00128337
0.0012835
0.00128399
0.00128383
0.00128379
0.00128402
0.00128426
0.00128421
0.00128405
0.00128357
0.00128356
0.00128443
0.00128442
0.0012842
0.00128388
0.00128341
0.00128362
0.00128376
0.00128327
0.00128354
0.00128392
0.0012837
0.00128362
0.00128361
0.00128352
0.0012829
0.0012826
0.00128267
0.00128236
0.00128235
0.0012831
0.00128329
0.00128316
0.00128285
0.00128295
0.00128299
0.00128257
0.00128284
0.00128299
0.00128265
0.00128233
0.00128269
0.00128328
0.00128322
0.00128315
0.00128271
0.00128255
0.00128206
0.00128198
0.00128231
0.00128194
0.00118335
0.001228
0.00125944
0.00127572
0.00128264
0.00128415
0.0012839
0.00128382
0.00128356
0.00128357
0.00128343
0.00128292
0.00128285
0.00128267
0.00128227
0.00128182
0.00128138
0.00128095
0.00128025
0.00128011
0.00128022
0.00127972
0.00127977
0.00127972
0.00127949
0.00127954
0.00127954
0.00127906
0.00127915
0.00127974
0.00128002
0.00128052
0.00128108
0.00128156
0.00128166
0.0012823
0.00128314
0.00128369
0.0012841
0.00128371
0.00128397
0.00128429
0.00128446
0.00128453
0.00128414
0.00128408
0.00128382
0.00128416
0.00128477
0.00128457
0.00128449
0.00128431
0.00128429
0.00128412
0.00128394
0.00128369
0.00128307
0.00128322
0.00128377
0.00128359
0.00128319
0.00128331
0.0012838
0.00128376
0.0012837
0.00128337
0.00128324
0.00128253
0.00128244
0.00128282
0.00128284
0.0012826
0.00128286
0.00128333
0.00128326
0.0012832
0.00128279
0.00128265
0.0012823
0.00128217
0.00128237
0.00128214
0.00128247
0.00128303
0.00128302
0.00128301
0.00128246
0.00128278
0.00128304
0.00128242
0.00118335
0.001228
0.00125944
0.00127576
0.00128244
0.00128483
0.00128478
0.00128441
0.00128428
0.00128389
0.00128372
0.00128349
0.00128316
0.00128291
0.00128259
0.00128182
0.00128164
0.00128147
0.00128048
0.00128043
0.00128052
0.00127959
0.00127959
0.00128001
0.00127987
0.00127992
0.00128008
0.00128037
0.00128063
0.00128097
0.00128132
0.00128151
0.00128182
0.00128221
0.00128205
0.00128271
0.0012836
0.00128411
0.00128455
0.00128467
0.00128445
0.00128475
0.00128515
0.00128512
0.00128483
0.00128474
0.00128487
0.00128488
0.00128473
0.00128416
0.001284
0.00128494
0.00128693
0.00128703
0.00128664
0.00128673
0.0012867
0.00128644
0.00128637
0.00128622
0.00128605
0.00128583
0.00128566
0.00128557
0.00128496
0.00128501
0.00128514
0.00128449
0.00128472
0.00128493
0.00128453
0.00128446
0.00128438
0.00128438
0.00128433
0.00128374
0.00128381
0.00128393
0.00128364
0.0012836
0.00128367
0.00128367
0.00128314
0.00128327
0.00128342
0.00128329
0.00128319
0.00128273
0.00128256
0.00128207
0.00118335
0.001228
0.00125944
0.00127575
0.00128252
0.00128441
0.00128432
0.00128403
0.00128409
0.00128401
0.00128351
0.00128325
0.00128296
0.00128268
0.00128203
0.0012819
0.00128172
0.00128072
0.00128066
0.0012807
0.0012803
0.00128009
0.00127991
0.00127983
0.00127968
0.00127959
0.00127965
0.00127981
0.0012796
0.00127969
0.00128017
0.00128032
0.00128093
0.00128184
0.00128236
0.00128269
0.00128328
0.00128386
0.0012839
0.00128457
0.00128512
0.00128532
0.00128548
0.00128484
0.00128511
0.00128538
0.00128532
0.00128528
0.00128515
0.00128508
0.00128442
0.00128448
0.00128602
0.00128631
0.00128622
0.00128606
0.00128602
0.001286
0.00128569
0.00128557
0.00128506
0.00128524
0.00128537
0.00128476
0.00128494
0.00128504
0.00128476
0.0012848
0.00128462
0.00128399
0.00128411
0.00128431
0.00128424
0.0012842
0.00128395
0.00128383
0.0012831
0.00128291
0.00128318
0.00128289
0.0012832
0.00128347
0.00128287
0.00128314
0.00128334
0.00128322
0.00128302
0.00128275
0.00128274
0.00128218
0.00118335
0.001228
0.00125945
0.00127568
0.00128274
0.00128403
0.00128369
0.00128365
0.00128368
0.0012834
0.00128309
0.00128285
0.00128224
0.00128218
0.0012822
0.00128177
0.00128103
0.00128083
0.00128072
0.00128029
0.00128008
0.00127978
0.00127949
0.0012788
0.00127896
0.00127924
0.0012788
0.00127936
0.00128015
0.00128052
0.00128102
0.00128141
0.00128202
0.00128252
0.00128296
0.00128314
0.00128351
0.00128372
0.00128328
0.00128371
0.00128424
0.00128444
0.00128461
0.0012844
0.0012844
0.00128386
0.0012841
0.00128476
0.00128479
0.0012846
0.00128399
0.00128417
0.00128605
0.00128646
0.00128621
0.00128601
0.00128599
0.00128605
0.00128593
0.00128583
0.00128506
0.00128495
0.00128526
0.00128522
0.00128512
0.0012844
0.00128441
0.00128461
0.00128388
0.00128404
0.00128449
0.00128444
0.00128437
0.00128364
0.00128346
0.00128387
0.00128408
0.00128399
0.00128404
0.00128391
0.00128368
0.00128314
0.00128289
0.00128302
0.00128275
0.00128264
0.00128313
0.00128334
0.00128315
0.00128248
0.00118334
0.00122792
0.00125967
0.00127592
0.00128133
0.00128198
0.00128177
0.00128115
0.001281
0.00128176
0.00128177
0.00128138
0.00128056
0.00128042
0.00128068
0.00128016
0.00128
0.00127977
0.00127924
0.00127912
0.00127893
0.00127905
0.00127974
0.00127899
0.00127919
0.00127972
0.0012792
0.00127932
0.00128003
0.00128051
0.00128085
0.00128093
0.00128126
0.00128183
0.00128241
0.00128265
0.00128319
0.00128402
0.00128444
0.00128455
0.00128493
0.00128523
0.00128519
0.00128535
0.00128543
0.00128552
0.00128548
0.00128536
0.00128511
0.0012851
0.00128511
0.00128497
0.00128475
0.00128401
0.00128341
0.00128351
0.00128353
0.00128308
0.0012832
0.00128385
0.00128379
0.00128368
0.00128302
0.0012831
0.00128384
0.00128375
0.0012837
0.00128366
0.00128353
0.00128328
0.00128368
0.00128418
0.00128395
0.00128405
0.00128404