/*--------------------------------*- C++ -*----------------------------------*\
  =========                 |
  \\      /  F ield         | OpenFOAM: The Open Source CFD Toolbox
   \\    /   O peration     | Website:  https://openfoam.org
    \\  /    A nd           | Version:  11
     \\/     M anipulation  |
\*---------------------------------------------------------------------------*/
FoamFile
{
    format      ascii;
    class       volScalarField;
    location    "0.046";
    object      omega;
}
// * * * * * * * * * * * * * * * * * * * * * * * * * * * * * * * * * * * * * //

dimensions      [0 0 -1 0 0 0 0];

internalField   nonuniform List<scalar> 
287084
(
55.0439
56.0529
56.7222
57.0401
57.1295
57.1344
57.1308
57.12
57.1219
57.14
57.1439
57.1417
57.1388
57.137
57.1338
57.1235
57.1286
57.1462
57.1345
57.1416
57.151
57.1449
57.1441
57.1421
57.1417
57.1309
57.1337
57.1439
57.1448
57.1452
57.1407
57.1369
57.1245
57.1163
57.1254
57.1332
57.1276
57.1271
57.1262
57.1127
57.1148
57.1246
57.1137
57.1096
57.111
57.1115
57.1074
57.1153
57.1248
57.1137
57.1184
57.1202
57.1201
57.12
57.1039
57.108
57.1194
57.1139
57.1139
57.1127
57.1126
57.1038
57.1086
57.1275
57.1294
57.1255
57.1095
57.1129
57.124
57.1227
57.1225
57.1113
57.1161
57.1303
57.1277
57.1287
57.1283
57.1158
57.1147
57.127
57.1322
57.1299
57.1232
57.1207
57.1186
57.104
57.1046
57.1166
57.1167
57.112
55.0473
56.0435
56.7131
57.0387
57.128
57.1315
57.1291
57.1263
57.1349
57.1395
57.1368
57.1328
57.1262
57.1259
57.1229
57.1193
57.1266
57.1314
57.1202
57.1207
57.1345
57.1351
57.1428
57.1497
57.1469
57.138
57.1424
57.1516
57.1345
57.1384
57.1449
57.1316
57.1262
57.1269
57.1274
57.1285
57.1282
57.12
57.1274
57.1371
57.137
57.1368
57.1207
57.1258
57.1333
57.1318
57.1317
57.1259
57.1231
57.1195
57.1085
57.1111
57.1226
57.1207
57.1108
57.1091
57.1178
57.1081
57.1138
57.1258
57.1199
57.1221
57.1228
57.1202
57.1101
57.1162
57.1282
57.1276
57.1278
57.1187
57.127
57.1368
57.1332
57.1221
57.1169
57.1216
57.1161
57.1242
57.1302
57.1231
57.1242
57.1213
57.1116
57.1161
57.1209
57.1193
57.1191
57.1095
57.1091
57.1017
55.0473
56.0427
56.7127
57.0355
57.1295
57.1481
57.1454
57.1359
57.1335
57.1443
57.15
57.1481
57.1488
57.1457
57.1349
57.139
57.1476
57.1468
57.1465
57.1331
57.1346
57.1359
57.1403
57.1571
57.1566
57.1548
57.14
57.1425
57.1502
57.1328
57.1329
57.1429
57.1309
57.1309
57.1403
57.13
57.1332
57.1449
57.1403
57.1398
57.1397
57.1326
57.1333
57.1361
57.1351
57.1286
57.1298
57.1376
57.1359
57.1331
57.1167
57.1193
57.1253
57.11
57.1152
57.1269
57.1099
57.1082
57.1202
57.1266
57.1235
57.1158
57.1158
57.1102
57.1189
57.1311
57.1299
57.1293
57.1232
57.1239
57.1291
57.1263
57.1098
57.1141
57.1242
57.1107
57.1082
57.1159
57.1153
57.1155
57.1121
57.1218
57.1299
57.1135
57.1173
57.1271
57.1102
57.1135
57.1221
57.105
55.0463
56.0454
56.7081
57.0332
57.1381
57.1563
57.1506
57.1501
57.1459
57.1499
57.1551
57.1531
57.152
57.1383
57.144
57.1518
57.1504
57.1496
57.1365
57.135
57.1391
57.1391
57.1325
57.1315
57.136
57.1356
57.1311
57.1274
57.1399
57.1495
57.1476
57.146
57.1357
57.1322
57.1307
57.1284
57.1255
57.1177
57.1243
57.1389
57.1316
57.1309
57.1265
57.1309
57.1325
57.1307
57.1301
57.1166
57.1155
57.1203
57.1192
57.1191
57.118
57.1071
57.1083
57.1208
57.1092
57.1141
57.1256
57.1258
57.1258
57.111
57.1172
57.1321
57.1246
57.1291
57.1317
57.1247
57.1312
57.134
57.1169
57.1207
57.1297
57.1147
57.1146
57.1262
57.1248
57.1334
57.1376
57.1338
57.1257
57.1179
57.1258
57.1303
57.1265
57.1126
57.1143
57.1228
57.1214
57.1145
55.0463
56.0453
56.7069
57.035
57.1361
57.1428
57.1342
57.1408
57.1507
57.1352
57.1406
57.1476
57.1473
57.1473
57.1331
57.138
57.1409
57.1376
57.1368
57.1342
57.1286
57.1343
57.1509
57.1428
57.1426
57.1423
57.1327
57.1345
57.1445
57.1431
57.1444
57.1409
57.1295
57.1334
57.1481
57.1347
57.1403
57.1505
57.149
57.1472
57.1281
57.1263
57.1335
57.1346
57.1334
57.1169
57.1198
57.1278
57.1116
57.1155
57.1269
57.1199
57.116
57.1134
57.1055
57.1112
57.1269
57.1183
57.118
57.1178
57.109
57.1105
57.1217
57.1101
57.1129
57.1233
57.117
57.1127
57.1117
57.1063
57.1114
57.133
57.1353
57.1312
57.1164
57.1195
57.1299
57.121
57.1213
57.1204
57.11
57.112
57.1246
57.1125
57.1184
57.129
57.1134
57.1182
57.1289
57.111
55.045
56.0466
56.711
57.0283
57.1103
57.1061
57.1078
57.1318
57.1388
57.1359
57.1313
57.1208
57.1222
57.1201
57.13
57.1457
57.138
57.1399
57.1365
57.1348
57.1345
57.1255
57.1282
57.1394
57.1371
57.1306
57.1358
57.1441
57.1414
57.1357
57.1321
57.1392
57.1382
57.1388
57.1386
57.1334
57.1279
57.1263
57.1231
57.1194
57.1178
57.1106
57.1136
57.1249
57.1139
57.1155
57.1265
57.1215
57.1218
57.1216
57.115
57.1121
57.1262
57.1316
57.1304
57.13
57.1147
57.1162
57.126
57.125
57.1223
57.1084
57.1128
57.1264
57.1216
57.1256
57.1306
57.1291
57.1285
57.1175
57.1219
57.1346
57.1201
57.1257
57.134
57.1168
57.119
57.129
57.1145
57.116
57.1257
57.1149
57.1217
57.1317
57.1245
57.1237
57.1228
57.1237
57.1236
57.1129
55.0429
56.0493
56.7103
57.0299
57.1155
57.1111
57.1186
57.1304
57.1276
57.1276
57.1199
57.1416
57.1686
57.1638
57.1614
57.1686
57.1737
57.1693
57.1689
57.1667
57.1694
57.1664
57.1538
57.1575
57.1623
57.1615
57.1613
57.147
57.1496
57.1506
57.1378
57.1435
57.1521
57.1368
57.1338
57.1386
57.1291
57.1309
57.1458
57.1471
57.144
57.1288
57.1318
57.1411
57.1397
57.1393
57.1275
57.1314
57.133
57.1297
57.1197
57.1229
57.129
57.1222
57.1144
57.1196
57.1276
57.1268
57.1266
57.1195
57.1175
57.1039
57.1077
57.1234
57.1258
57.1229
57.1204
57.1198
57.1041
57.1092
57.1214
57.1131
57.1076
57.1155
57.1277
57.1247
57.1176
57.1121
57.1157
57.1114
57.1207
57.1298
57.114
57.1177
57.1283
57.1207
57.1265
57.1291
57.125
57.1109
55.0455
56.0474
56.7053
57.0259
57.1531
57.1853
57.183
57.1857
57.1868
57.1876
57.1872
57.185
57.183
57.1789
57.1772
57.1716
57.1723
57.1801
57.1793
57.1747
57.1737
57.1726
57.1604
57.1581
57.1612
57.1652
57.1624
57.1586
57.157
57.1401
57.1369
57.1434
57.1327
57.133
57.142
57.1422
57.1366
57.1418
57.1538
57.1541
57.1539
57.1377
57.1419
57.1504
57.1468
57.1468
57.1426
57.1432
57.1372
57.143
57.1505
57.144
57.1476
57.1485
57.1443
57.144
57.1444
57.1452
57.1396
57.1197
57.119
57.1289
57.1245
57.1266
57.1237
57.1126
57.1171
57.1275
57.1237
57.1193
57.1199
57.1207
57.116
57.1092
57.1158
57.1329
57.1322
57.1309
57.1136
57.114
57.1258
57.1186
57.1259
57.1302
57.1269
57.1203
57.1153
57.1209
57.122
57.1116
55.044
56.0481
56.7103
57.0286
57.1199
57.1234
57.1271
57.1278
57.1242
57.1211
57.139
57.1666
57.1645
57.1658
57.1655
57.1674
57.1626
57.1676
57.1751
57.1717
57.1715
57.1718
57.1721
57.1689
57.1669
57.1663
57.1622
57.1587
57.1533
57.1358
57.1365
57.1486
57.1342
57.1334
57.1419
57.1423
57.1364
57.1396
57.1521
57.1451
57.1488
57.1507
57.1427
57.1479
57.1497
57.1489
57.1484
57.1352
57.1337
57.1281
57.1089
57.11
57.119
57.1162
57.1088
57.1129
57.1277
57.1256
57.1228
57.1087
57.1129
57.1263
57.1262
57.1251
57.1095
57.1121
57.1259
57.1168
57.1244
57.1315
57.1304
57.13
57.1159
57.1208
57.1295
57.1219
57.1312
57.1363
57.1345
57.134
57.1181
57.1207
57.1316
57.1241
57.1264
57.127
57.1249
57.1261
57.1222
57.1064
55.0425
56.0479
56.7172
57.0189
57.1187
57.1295
57.1268
57.1176
57.1228
57.1438
57.1451
57.1412
57.1259
57.131
57.1475
57.1496
57.1468
57.1406
57.1395
57.127
57.1335
57.1456
57.1435
57.1375
57.1412
57.1506
57.1364
57.1424
57.1546
57.1425
57.137
57.1403
57.1441
57.1418
57.143
57.1434
57.1398
57.1287
57.1309
57.1342
57.1221
57.1144
57.1116
57.1034
57.1078
57.1188
57.1132
57.1104
57.1094
57.1046
57.1105
57.1137
57.1105
57.1008
57.0992
57.1093
57.1085
57.1039
57.1107
57.1224
57.121
57.1197
57.106
57.111
57.1168
57.1058
57.1128
57.1234
57.1134
57.1132
57.1123
57.1024
57.104
57.1155
57.114
57.1085
57.1146
57.1245
57.1232
57.1223
57.1091
57.1155
57.1295
57.1276
57.1249
57.1164
57.1127
57.1195
57.1222
57.1118
55.0446
56.046
56.7114
57.0297
57.1277
57.1351
57.1321
57.1222
57.1274
57.14
57.1388
57.1359
57.1391
57.1502
57.1394
57.1376
57.1537
57.1602
57.1597
57.1598
57.1565
57.1488
57.1494
57.1509
57.1485
57.1418
57.14
57.1453
57.145
57.135
57.1336
57.149
57.1517
57.1494
57.149
57.1427
57.1348
57.131
57.1242
57.1173
57.115
57.1077
57.1107
57.1219
57.116
57.1136
57.1264
57.1335
57.1296
57.1188
57.1155
57.1186
57.1134
57.1092
57.1136
57.1219
57.1188
57.1075
57.1123
57.1194
57.1182
57.118
57.1062
57.1131
57.1186
57.1148
57.1144
57.106
57.112
57.1198
57.1183
57.1145
57.1212
57.133
57.1174
57.121
57.1325
57.1198
57.1261
57.1343
57.1199
57.1263
57.1347
57.1191
57.1153
57.1185
57.1202
57.1205
57.117
57.107
55.0436
56.0485
56.7083
57.0316
57.1256
57.1301
57.1375
57.1405
57.1384
57.1326
57.1408
57.1668
57.1591
57.1678
57.1757
57.1664
57.1657
57.1657
57.1582
57.1639
57.1696
57.1544
57.1604
57.1702
57.1681
57.1679
57.1667
57.1651
57.148
57.141
57.1409
57.1338
57.1298
57.13
57.1257
57.1224
57.1227
57.115
57.1168
57.1263
57.1154
57.1164
57.1264
57.1212
57.1213
57.121
57.1113
57.1101
57.1264
57.1332
57.1295
57.1291
57.1285
57.1265
57.1221
57.1076
57.1121
57.1185
57.1104
57.105
57.1155
57.1266
57.1173
57.1233
57.1266
57.124
57.1211
57.1121
57.1225
57.1297
57.1268
57.122
57.1121
57.118
57.122
57.1183
57.1093
57.1045
57.1192
57.1292
57.1259
57.1134
57.117
57.1258
57.126
57.126
57.1099
57.1154
57.1263
57.1088
55.0455
56.0473
56.7054
57.025
57.1555
57.1793
57.1729
57.1731
57.1706
57.1761
57.1781
57.1674
57.1727
57.178
57.1694
57.1748
57.1775
57.1718
57.1712
57.1691
57.1744
57.1763
57.1626
57.1667
57.1701
57.1683
57.1682
57.1635
57.1599
57.141
57.1405
57.1506
57.1502
57.1459
57.1437
57.1525
57.1543
57.1513
57.1364
57.137
57.147
57.1466
57.1438
57.1291
57.1337
57.1415
57.141
57.1409
57.1318
57.132
57.1328
57.1313
57.1241
57.1174
57.1234
57.128
57.1244
57.1118
57.1103
57.1279
57.132
57.1285
57.1148
57.1168
57.1278
57.1135
57.1167
57.1268
57.1236
57.1193
57.1198
57.1206
57.1158
57.1089
57.1156
57.1328
57.1314
57.1287
57.1139
57.1182
57.1301
57.128
57.1253
57.1109
57.1136
57.1275
57.1238
57.1245
57.1216
57.11
55.0431
56.047
56.7149
57.028
57.1066
57.1037
57.1111
57.1307
57.1258
57.128
57.1251
57.1156
57.1148
57.1232
57.1222
57.1334
57.1421
57.138
57.1384
57.1389
57.135
57.1422
57.1607
57.1496
57.1569
57.1637
57.1564
57.1576
57.1545
57.1475
57.1439
57.1472
57.1479
57.1393
57.1419
57.1506
57.1494
57.1479
57.1482
57.1497
57.1457
57.1458
57.1449
57.1441
57.1421
57.1407
57.1371
57.1354
57.1353
57.1333
57.1146
57.1129
57.1251
57.1269
57.1243
57.1126
57.1091
57.121
57.1278
57.1239
57.1126
57.1075
57.1168
57.1245
57.1213
57.1082
57.1135
57.1272
57.1253
57.1226
57.1127
57.1082
57.1115
57.1088
57.1169
57.1337
57.1217
57.1288
57.1375
57.1307
57.1336
57.1347
57.1316
57.1232
57.117
57.1266
57.1362
57.1363
57.136
57.1178
55.0455
56.0473
56.7052
57.0257
57.1528
57.185
57.1826
57.1829
57.1807
57.1853
57.1873
57.1818
57.184
57.1817
57.18
57.1805
57.1774
57.1657
57.1699
57.1748
57.1736
57.1705
57.1695
57.1719
57.1711
57.1715
57.1665
57.1657
57.1637
57.1641
57.1579
57.1407
57.1364
57.1393
57.132
57.1281
57.1245
57.1138
57.1154
57.1249
57.1133
57.114
57.1284
57.1338
57.1302
57.1137
57.1134
57.1226
57.1182
57.124
57.1265
57.1177
57.1237
57.129
57.1289
57.1288
57.1107
57.1127
57.1288
57.1218
57.1291
57.1407
57.1362
57.1365
57.1337
57.1285
57.1256
57.1244
57.122
57.1171
57.1193
57.1204
57.1156
57.1088
57.1155
57.1327
57.1313
57.1286
57.1138
57.1183
57.127
57.1268
57.1267
57.1196
57.1185
57.1083
57.1149
57.1244
57.1213
57.1102
55.0481
56.0435
56.7054
57.0338
57.1252
57.1242
57.1338
57.1462
57.133
57.1382
57.1464
57.1435
57.1369
57.1341
57.1434
57.1501
57.147
57.1335
57.1371
57.1443
57.1433
57.1404
57.1458
57.1562
57.1409
57.1444
57.1559
57.1532
57.1453
57.1487
57.1556
57.1411
57.1469
57.1538
57.1438
57.1437
57.138
57.136
57.1343
57.1268
57.1201
57.1184
57.1166
57.1146
57.1112
57.1005
57.0981
57.1188
57.1275
57.121
57.1223
57.1224
57.1197
57.1131
57.1295
57.1504
57.1424
57.149
57.1568
57.1569
57.157
57.1431
57.1465
57.1497
57.1483
57.1482
57.1448
57.1399
57.1315
57.127
57.1132
57.1155
57.1309
57.1324
57.1286
57.1142
57.1192
57.125
57.112
57.1089
57.1247
57.1318
57.1284
57.1166
57.1168
57.1254
57.1193
57.1193
57.1184
57.1083
55.0467
56.0472
56.7031
57.0236
57.1503
57.1891
57.1895
57.1915
57.1926
57.1908
57.1898
57.1879
57.1864
57.1833
57.1736
57.1762
57.1782
57.1633
57.1688
57.1748
57.1573
57.1612
57.1699
57.1674
57.1681
57.1661
57.1642
57.1552
57.1492
57.1525
57.1543
57.1499
57.1366
57.1325
57.1351
57.1353
57.1341
57.1266
57.1196
57.1161
57.1095
57.1044
57.115
57.1216
57.1189
57.115
57.1046
57.1123
57.1201
57.111
57.118
57.1219
57.1055
57.1075
57.128
57.1247
57.1345
57.1445
57.1309
57.1374
57.1447
57.1305
57.1359
57.1402
57.132
57.1326
57.1315
57.1193
57.1217
57.128
57.1152
57.1194
57.1219
57.1202
57.1198
57.1071
57.112
57.1276
57.1278
57.1272
57.1186
57.1132
57.1144
57.1111
57.1209
57.1294
57.1151
57.1217
57.1305
57.1119
55.0456
56.0473
56.7052
57.0259
57.1514
57.1949
57.1955
57.1922
57.1921
57.1906
57.1905
57.1848
57.1819
57.1822
57.1814
57.1806
57.1737
57.1769
57.1792
57.1656
57.1713
57.1777
57.1724
57.1712
57.1703
57.1714
57.1702
57.1672
57.1469
57.1476
57.1541
57.1382
57.1351
57.1373
57.131
57.1274
57.1237
57.1123
57.113
57.1216
57.1133
57.1106
57.1153
57.118
57.1192
57.1181
57.1154
57.1203
57.1232
57.1211
57.1207
57.108
57.1125
57.133
57.1263
57.1349
57.1444
57.1411
57.1416
57.1425
57.1425
57.135
57.1358
57.1328
57.1217
57.1267
57.1327
57.1169
57.1183
57.1315
57.1317
57.132
57.1314
57.1205
57.1182
57.1254
57.132
57.1296
57.1236
57.1225
57.1105
57.1167
57.1303
57.1285
57.1258
57.1101
57.1129
57.1248
57.1236
57.1141
55.0466
56.0473
56.7031
57.0234
57.1515
57.1847
57.1822
57.187
57.1891
57.1828
57.1824
57.1822
57.1823
57.1731
57.1757
57.1774
57.1625
57.168
57.1742
57.157
57.1607
57.1704
57.1629
57.1637
57.1626
57.1501
57.1488
57.1557
57.1492
57.1431
57.1404
57.1319
57.1308
57.1442
57.15
57.148
57.1497
57.1478
57.1454
57.1393
57.1212
57.1123
57.1117
57.1029
57.1008
57.1043
57.0998
57.0974
57.1085
57.118
57.1174
57.1171
57.1028
57.1035
57.1262
57.1255
57.1347
57.1466
57.1425
57.1439
57.144
57.1459
57.1442
57.1448
57.1416
57.1287
57.1323
57.1369
57.1249
57.1258
57.1298
57.1305
57.1294
57.1277
57.1271
57.1231
57.1148
57.1219
57.1268
57.1234
57.1118
57.1104
57.1182
57.1078
57.1142
57.1232
57.1067
57.1074
57.1178
57.1052
55.0465
56.0482
56.6993
57.0338
57.1396
57.1506
57.1557
57.1542
57.1439
57.1504
57.1555
57.1525
57.1483
57.1432
57.1498
57.1544
57.154
57.1554
57.1538
57.1443
57.1415
57.1592
57.1731
57.1724
57.1734
57.1691
57.1635
57.1445
57.1443
57.1527
57.1413
57.1364
57.1359
57.132
57.1302
57.1272
57.1227
57.1234
57.1221
57.1102
57.1103
57.1172
57.1145
57.1161
57.1116
57.1093
57.1104
57.1102
57.0996
57.1005
57.1313
57.1688
57.1688
57.1686
57.1673
57.1681
57.169
57.1675
57.1664
57.1531
57.156
57.1597
57.1519
57.15
57.1489
57.1507
57.1502
57.1462
57.1476
57.1489
57.1453
57.1311
57.1321
57.1367
57.1338
57.1344
57.1342
57.1272
57.1271
57.1274
57.1114
57.116
57.1222
57.1064
57.1078
57.1189
57.1141
57.1153
57.1146
57.1047
55.0452
56.046
56.7103
57.0291
57.1183
57.1227
57.1131
57.1147
57.1242
57.1242
57.1234
57.1216
57.1149
57.1217
57.1417
57.1409
57.1383
57.1289
57.1381
57.1595
57.1725
57.1742
57.1649
57.1662
57.163
57.1513
57.1546
57.164
57.1546
57.1505
57.1467
57.1356
57.1387
57.1481
57.1327
57.1355
57.1434
57.1437
57.1432
57.1236
57.1261
57.1325
57.1268
57.1258
57.1146
57.1193
57.1224
57.1191
57.1087
57.1077
57.1114
57.0996
57.0974
57.1071
57.1142
57.1137
57.1161
57.1127
57.096
57.0958
57.1072
57.0969
57.0962
57.1047
57.1031
57.1094
57.1113
57.1001
57.1061
57.1232
57.1226
57.1222
57.1215
57.1198
57.1183
57.1122
57.1174
57.13
57.1307
57.1308
57.1244
57.1229
57.1088
57.1137
57.1224
57.1088
57.1059
57.1156
57.1181
57.1105
55.0456
56.0473
56.7054
57.0248
57.157
57.1783
57.1729
57.1733
57.1721
57.1726
57.1686
57.1729
57.176
57.1727
57.1624
57.165
57.1698
57.1663
57.1666
57.1654
57.1706
57.1761
57.1732
57.1671
57.1668
57.1638
57.1595
57.15
57.1458
57.1507
57.1515
57.1431
57.1475
57.1488
57.1472
57.1462
57.1246
57.1257
57.1285
57.117
57.1164
57.1164
57.1163
57.11
57.107
57.0989
57.1063
57.1175
57.1127
57.1125
57.1065
57.1152
57.1579
57.1723
57.1686
57.169
57.1684
57.1689
57.1694
57.1712
57.1697
57.1663
57.1596
57.1608
57.1613
57.1458
57.1488
57.1531
57.1404
57.1473
57.1539
57.1467
57.1506
57.156
57.1539
57.1512
57.1491
57.1461
57.1408
57.1347
57.1294
57.1128
57.1147
57.1269
57.1282
57.1282
57.1107
57.1148
57.1232
57.1059
55.0455
56.0473
56.7052
57.0259
57.1526
57.1875
57.1872
57.1835
57.1873
57.189
57.1848
57.1851
57.1841
57.1843
57.175
57.1778
57.1803
57.1658
57.1717
57.1785
57.1774
57.174
57.1762
57.1801
57.1792
57.1792
57.1751
57.173
57.1518
57.151
57.1564
57.1396
57.1381
57.1453
57.1402
57.1348
57.1365
57.1381
57.1309
57.1371
57.1418
57.1405
57.1399
57.1235
57.1278
57.1324
57.1302
57.1329
57.1303
57.1272
57.1137
57.1189
57.1581
57.1747
57.1702
57.1747
57.1766
57.1729
57.1732
57.1716
57.1672
57.1652
57.1673
57.1674
57.1538
57.1564
57.1601
57.1493
57.1557
57.1601
57.1595
57.1595
57.1564
57.1563
57.1528
57.1517
57.1456
57.1473
57.143
57.1421
57.1403
57.128
57.1231
57.1244
57.113
57.1118
57.1267
57.1302
57.1265
57.112
55.0446
56.0455
56.714
57.0274
57.1152
57.14
57.138
57.1234
57.1204
57.1249
57.1254
57.1257
57.12
57.1364
57.1679
57.1597
57.1632
57.1837
57.1858
57.1821
57.1701
57.1734
57.1799
57.1615
57.1633
57.1713
57.1638
57.1631
57.1635
57.1622
57.1498
57.1432
57.1409
57.1368
57.13
57.1308
57.1308
57.1181
57.1221
57.1336
57.1321
57.1321
57.1295
57.1263
57.1252
57.1259
57.1249
57.1199
57.123
57.1261
57.1091
57.1133
57.1182
57.1162
57.1102
57.1105
57.1267
57.1243
57.126
57.1253
57.1264
57.1186
57.1243
57.1349
57.1337
57.1334
57.1206
57.1262
57.1375
57.1327
57.1322
57.1316
57.1233
57.1204
57.1267
57.1279
57.1209
57.1264
57.1358
57.1185
57.1213
57.1298
57.1131
57.1168
57.1243
57.1241
57.1241
57.1193
57.118
57.1034
55.0454
56.0479
56.7029
57.0326
57.1431
57.1495
57.1585
57.1662
57.1551
57.1611
57.1688
57.1666
57.1665
57.1613
57.161
57.1596
57.1468
57.1507
57.1596
57.1551
57.155
57.1488
57.1576
57.1639
57.1521
57.1593
57.1681
57.1566
57.1486
57.151
57.1518
57.1393
57.1435
57.1451
57.1433
57.1425
57.1321
57.1279
57.1221
57.104
57.1038
57.1131
57.1005
57.0977
57.1019
57.1027
57.1043
57.1015
57.0915
57.0947
57.1148
57.1151
57.1123
57.1037
57.0977
57.1062
57.1104
57.1028
57.1109
57.1202
57.1187
57.1191
57.1175
57.1162
57.1019
57.0986
57.1051
57.098
57.0996
57.1165
57.1201
57.118
57.112
57.1149
57.1162
57.109
57.1151
57.1179
57.109
57.1034
57.1143
57.1268
57.1245
57.1205
57.1105
57.1083
57.1
57.1005
57.1093
57.1002
55.0455
56.0473
56.7053
57.0254
57.1549
57.1816
57.1782
57.1802
57.1776
57.1803
57.1815
57.1776
57.1804
57.1822
57.1798
57.1736
57.1736
57.1741
57.1645
57.1679
57.1762
57.1714
57.1753
57.1763
57.1744
57.1749
57.1689
57.1481
57.1454
57.1524
57.1423
57.1379
57.1363
57.1355
57.1256
57.1273
57.1341
57.1331
57.132
57.1159
57.1162
57.1184
57.1158
57.1115
57.1005
57.0996
57.0963
57.1057
57.1191
57.1175
57.1176
57.1123
57.1115
57.1095
57.1067
57.1041
57.0949
57.1016
57.1153
57.1112
57.1044
57.1106
57.1225
57.1225
57.1224
57.1152
57.1132
57.1001
57.1011
57.1119
57.1096
57.1049
57.1134
57.1238
57.1219
57.1195
57.1101
57.1082
57.1002
57.1001
57.1087
57.1025
57.1099
57.1218
57.1209
57.1207
57.1101
57.1174
57.1226
57.1102
55.0455
56.0473
56.7052
57.026
57.1515
57.1951
57.1955
57.1896
57.1891
57.1876
57.1879
57.1879
57.1891
57.1881
57.1852
57.1762
57.1799
57.1828
57.1684
57.1743
57.1818
57.1666
57.1716
57.1838
57.1827
57.1827
57.1802
57.1776
57.1752
57.1727
57.1684
57.1595
57.1526
57.1481
57.1332
57.1362
57.1437
57.143
57.1426
57.1356
57.1248
57.1275
57.1322
57.1287
57.1171
57.1167
57.1199
57.1202
57.1201
57.1043
57.104
57.1329
57.1738
57.178
57.173
57.1756
57.1764
57.1721
57.1696
57.1679
57.1658
57.1657
57.1663
57.1654
57.1518
57.1538
57.1575
57.1449
57.1512
57.1562
57.1494
57.1498
57.1486
57.1496
57.1483
57.1344
57.1361
57.1391
57.1349
57.1352
57.1347
57.1346
57.1244
57.1271
57.13
57.1267
57.1211
57.1109
57.1084
57.101
55.0455
56.0473
56.7052
57.0259
57.1526
57.1876
57.1873
57.1837
57.1875
57.1892
57.1849
57.1853
57.1843
57.1845
57.1752
57.178
57.1805
57.1659
57.1717
57.1787
57.1779
57.1788
57.176
57.1735
57.1709
57.1708
57.169
57.1651
57.1512
57.1464
57.1491
57.1384
57.139
57.1463
57.1403
57.1348
57.1365
57.1383
57.1312
57.1375
57.142
57.1406
57.14
57.1236
57.1279
57.1324
57.1301
57.1298
57.1304
57.1303
57.1152
57.1203
57.1574
57.1625
57.1618
57.1604
57.1616
57.1629
57.157
57.1563
57.1484
57.1539
57.1575
57.1463
57.1514
57.1542
57.1483
57.1477
57.1472
57.1358
57.1392
57.1439
57.1426
57.1424
57.1368
57.1341
57.1168
57.1157
57.1264
57.1184
57.1253
57.1305
57.1184
57.1246
57.1285
57.1251
57.1178
57.115
57.1183
57.1051
55.0456
56.0473
56.7054
57.0247
57.1569
57.1783
57.1729
57.1734
57.1745
57.175
57.1726
57.1719
57.166
57.1706
57.1768
57.1739
57.1639
57.1667
57.1709
57.167
57.1664
57.1645
57.1643
57.153
57.1573
57.1619
57.1498
57.1575
57.1668
57.1668
57.1665
57.1601
57.1578
57.1551
57.1537
57.1438
57.1385
57.1329
57.116
57.1188
57.1237
57.1223
57.1218
57.1129
57.111
57.0998
57.1059
57.1174
57.1174
57.1174
57.1068
57.1146
57.1596
57.1666
57.1616
57.1597
57.1616
57.1646
57.1634
57.1625
57.1482
57.149
57.1585
57.1585
57.1566
57.1403
57.1424
57.1479
57.1323
57.1374
57.1479
57.1466
57.1452
57.1274
57.1265
57.1382
57.1422
57.1401
57.1386
57.1357
57.1316
57.1193
57.1171
57.1241
57.114
57.1125
57.1258
57.1291
57.1251
57.1104
55.0452
56.0459
56.7107
57.0275
57.1215
57.131
57.1278
57.1166
57.1194
57.1398
57.1432
57.1397
57.1265
57.1309
57.1431
57.1384
57.1397
57.1408
57.1377
57.1396
57.1404
57.1504
57.1691
57.155
57.1607
57.1709
57.1534
57.153
57.163
57.1634
57.1617
57.1474
57.1437
57.1464
57.1454
57.1374
57.1387
57.1473
57.146
57.1398
57.141
57.142
57.1393
57.1405
57.1373
57.1349
57.1334
57.1331
57.1308
57.1313
57.1328
57.1302
57.1239
57.1075
57.0994
57.1051
57.1069
57.1001
57.1052
57.1217
57.1212
57.1185
57.1055
57.1107
57.1291
57.1282
57.1284
57.1282
57.1231
57.1187
57.1311
57.1418
57.1389
57.1398
57.1399
57.1369
57.1352
57.1322
57.1303
57.1307
57.128
57.1241
57.1153
57.1243
57.1359
57.1328
57.1244
57.1199
57.1196
57.1059
55.0483
56.043
56.7067
57.0329
57.1232
57.1227
57.1328
57.1455
57.1353
57.1346
57.1347
57.1332
57.1279
57.1381
57.1474
57.1451
57.1418
57.1317
57.1328
57.1327
57.1448
57.1614
57.1631
57.1601
57.1441
57.1485
57.1607
57.1517
57.1445
57.1414
57.1413
57.1378
57.145
57.1504
57.1467
57.1347
57.1356
57.14
57.1391
57.1387
57.13
57.1297
57.1265
57.1206
57.117
57.1149
57.1146
57.1123
57.104
57.1047
57.1003
57.1083
57.1229
57.1214
57.116
57.1148
57.1282
57.1248
57.1342
57.1421
57.1399
57.1329
57.1351
57.1391
57.1307
57.1298
57.1287
57.1297
57.13
57.1282
57.1307
57.1325
57.129
57.117
57.1164
57.1275
57.1324
57.1297
57.1236
57.1221
57.1069
57.1113
57.1204
57.1203
57.1202
57.1047
57.1095
57.1203
57.1177
57.1083
55.0481
56.0436
56.7055
57.0337
57.1252
57.124
57.1332
57.1458
57.136
57.1362
57.1364
57.1342
57.1268
57.1366
57.1475
57.1469
57.1466
57.1321
57.1407
57.1565
57.1558
57.1558
57.1475
57.1455
57.1398
57.1382
57.1431
57.1391
57.138
57.142
57.1342
57.1399
57.1495
57.1488
57.1481
57.1359
57.1287
57.1307
57.1362
57.1344
57.1349
57.1293
57.1128
57.1037
57.112
57.1173
57.1146
57.1108
57.1018
57.118
57.1438
57.133
57.1389
57.1491
57.1497
57.1498
57.1338
57.1373
57.1508
57.1502
57.1477
57.1468
57.1434
57.1291
57.1347
57.1407
57.1294
57.1354
57.1395
57.1357
57.123
57.1209
57.1256
57.1192
57.1252
57.1288
57.1267
57.1261
57.1183
57.1162
57.1127
57.1115
57.1081
57.1055
57.0979
57.0996
57.1202
57.1233
57.1195
57.1053
55.0456
56.0473
56.7052
57.0259
57.1522
57.1902
57.1898
57.1882
57.1884
57.1896
57.1894
57.1853
57.1812
57.1788
57.1791
57.1803
57.1735
57.1768
57.1792
57.1656
57.1713
57.1777
57.1698
57.1703
57.1694
57.1628
57.1559
57.1536
57.1455
57.1429
57.149
57.15
57.1416
57.1451
57.1475
57.1323
57.1376
57.1475
57.1304
57.1303
57.1387
57.129
57.1349
57.1444
57.134
57.1403
57.1438
57.1365
57.1397
57.1407
57.137
57.1238
57.1157
57.1224
57.1216
57.1322
57.143
57.1361
57.1377
57.1343
57.1339
57.1329
57.1348
57.1318
57.1211
57.1262
57.1321
57.1164
57.118
57.1316
57.1318
57.1321
57.1314
57.1205
57.1183
57.128
57.1304
57.1268
57.1125
57.1138
57.1262
57.1185
57.1255
57.1296
57.1263
57.1197
57.1152
57.1214
57.1224
57.1118
55.0467
56.0472
56.703
57.0236
57.1501
57.1942
57.1952
57.1893
57.1888
57.1902
57.1876
57.1869
57.1886
57.1851
57.1854
57.1871
57.1887
57.1868
57.1806
57.1786
57.1778
57.1687
57.1667
57.1716
57.1718
57.1722
57.1722
57.1733
57.1703
57.1644
57.1581
57.1557
57.1517
57.1392
57.1419
57.1547
57.1526
57.1494
57.1328
57.133
57.1402
57.1405
57.1404
57.1304
57.1334
57.1342
57.1231
57.127
57.1382
57.1382
57.1388
57.1356
57.128
57.12
57.1286
57.1385
57.1386
57.1386
57.1258
57.1311
57.1453
57.1343
57.1403
57.1503
57.1451
57.1464
57.1465
57.1475
57.1484
57.1471
57.1319
57.1345
57.1392
57.139
57.1389
57.1256
57.1206
57.1271
57.1311
57.127
57.1155
57.1125
57.118
57.108
57.1118
57.1231
57.111
57.1093
57.1144
57.1044
55.0465
56.0481
56.6997
57.032
57.1452
57.159
57.1557
57.1419
57.1428
57.1509
57.137
57.1426
57.1496
57.1336
57.1388
57.1471
57.1451
57.1386
57.1384
57.1526
57.1582
57.156
57.1516
57.1504
57.135
57.1327
57.1418
57.1341
57.1391
57.1505
57.1499
57.1495
57.136
57.1421
57.148
57.1456
57.1448
57.1371
57.1312
57.1179
57.1086
57.1086
57.1024
57.1097
57.1202
57.1138
57.1135
57.1095
57.1163
57.1249
57.1243
57.1241
57.1106
57.115
57.135
57.1265
57.1332
57.1449
57.1453
57.1453
57.1398
57.1389
57.1281
57.1334
57.1456
57.1395
57.1399
57.137
57.1287
57.1267
57.1286
57.1251
57.1296
57.1313
57.123
57.1285
57.1318
57.1149
57.119
57.1294
57.1248
57.1245
57.1252
57.1245
57.112
57.1095
57.1262
57.1308
57.1266
57.1113
55.0455
56.0473
56.7052
57.0258
57.1523
57.1871
57.1864
57.1898
57.1907
57.1891
57.1895
57.1851
57.1805
57.1779
57.1798
57.1828
57.1799
57.1818
57.1822
57.1729
57.1761
57.1784
57.1758
57.1737
57.1676
57.1625
57.1467
57.1501
57.1594
57.1597
57.1596
57.1557
57.1536
57.1397
57.1291
57.1262
57.1169
57.1179
57.1266
57.1154
57.1163
57.1259
57.1145
57.1179
57.1289
57.1159
57.1201
57.1311
57.1194
57.1263
57.1323
57.1318
57.1316
57.1163
57.12
57.1313
57.13
57.1272
57.1221
57.1289
57.131
57.1217
57.1253
57.132
57.1173
57.1224
57.1318
57.1167
57.1211
57.1345
57.1311
57.1308
57.1304
57.125
57.119
57.124
57.1279
57.1246
57.1116
57.1163
57.1266
57.1267
57.1267
57.1196
57.1185
57.1083
57.1149
57.1243
57.1212
57.1101
55.0434
56.048
56.7127
57.0277
57.1129
57.1167
57.1132
57.1115
57.1219
57.1307
57.1296
57.1294
57.1171
57.1233
57.1532
57.1544
57.1549
57.1506
57.1612
57.1702
57.1566
57.1621
57.1758
57.1749
57.1747
57.1689
57.1664
57.1607
57.1453
57.1407
57.1489
57.1499
57.1467
57.1441
57.1462
57.1566
57.1543
57.1372
57.1398
57.1477
57.1457
57.1449
57.1286
57.1329
57.1394
57.1381
57.1383
57.1347
57.1303
57.1127
57.1067
57.1111
57.1053
57.1136
57.121
57.1197
57.1197
57.1106
57.114
57.1204
57.1173
57.107
57.1115
57.1227
57.1213
57.1203
57.1073
57.1094
57.1142
57.1199
57.1203
57.1172
57.1137
57.1158
57.1197
57.1156
57.1157
57.1157
57.1091
57.1161
57.1294
57.1233
57.1227
57.1169
57.1161
57.116
57.1076
57.1072
57.1144
57.104
55.0456
56.0473
56.7052
57.0253
57.1547
57.181
57.1742
57.1817
57.1852
57.181
57.1806
57.1761
57.1766
57.1774
57.1772
57.1726
57.17
57.1707
57.1719
57.1701
57.1597
57.1648
57.1689
57.1671
57.167
57.1628
57.153
57.1534
57.1568
57.1447
57.1517
57.1589
57.1563
57.1556
57.1444
57.1479
57.1536
57.1486
57.1504
57.1483
57.1461
57.1442
57.1339
57.1405
57.147
57.1334
57.1393
57.1441
57.1442
57.1441
57.1255
57.1282
57.1319
57.1223
57.1189
57.1157
57.1067
57.1132
57.1267
57.1218
57.1218
57.1189
57.1092
57.1156
57.1311
57.1171
57.1224
57.129
57.1144
57.1207
57.1292
57.1296
57.1296
57.113
57.1175
57.1323
57.1307
57.128
57.1135
57.1182
57.127
57.1268
57.1268
57.1198
57.1186
57.1084
57.115
57.1244
57.1214
57.1102
55.0436
56.0485
56.7083
57.0316
57.1255
57.13
57.1374
57.1405
57.1383
57.1326
57.1409
57.1669
57.159
57.1677
57.1758
57.1737
57.1734
57.1607
57.1665
57.1723
57.157
57.1625
57.1692
57.1682
57.1681
57.1614
57.1595
57.1621
57.1632
57.1589
57.1508
57.1404
57.1388
57.139
57.1376
57.1358
57.1278
57.134
57.1478
57.1332
57.1384
57.1446
57.1279
57.1322
57.1388
57.1382
57.1381
57.1337
57.1289
57.1233
57.127
57.1277
57.1255
57.1258
57.1217
57.1074
57.112
57.1185
57.1027
57.1044
57.118
57.1213
57.1185
57.1084
57.113
57.1145
57.1027
57.1034
57.1226
57.1277
57.1247
57.1191
57.1117
57.1178
57.1219
57.1194
57.1162
57.1078
57.1209
57.1327
57.1327
57.1326
57.1169
57.1208
57.1279
57.115
57.1218
57.134
57.1314
57.1213
55.0431
56.047
56.715
57.0275
57.1117
57.1155
57.1092
57.1155
57.1522
57.1576
57.1494
57.1563
57.161
57.1544
57.1559
57.1559
57.1543
57.1548
57.1556
57.1489
57.1528
57.1551
57.1512
57.1521
57.1502
57.1344
57.1325
57.1438
57.1446
57.1447
57.1432
57.1351
57.1308
57.1354
57.1268
57.1246
57.1278
57.1244
57.1244
57.1241
57.1147
57.1145
57.1201
57.1084
57.1136
57.1234
57.1071
57.1086
57.1201
57.1188
57.1129
57.1193
57.1291
57.1293
57.1292
57.1118
57.1145
57.1227
57.1229
57.123
57.1163
57.115
57.1035
57.1101
57.1197
57.1035
57.103
57.1201
57.1235
57.1209
57.1174
57.1085
57.107
57.1056
57.1164
57.133
57.1213
57.1287
57.1358
57.1332
57.1289
57.1214
57.1217
57.1126
57.1174
57.1285
57.1211
57.1226
57.1194
57.1075
55.0454
56.0473
56.7076
57.0283
57.1194
57.1182
57.1273
57.1347
57.1208
57.125
57.1416
57.1533
57.1522
57.1479
57.1471
57.1342
57.1401
57.1558
57.1549
57.151
57.136
57.1408
57.1535
57.1542
57.1543
57.1481
57.1464
57.1307
57.1323
57.1466
57.1465
57.1437
57.1305
57.1362
57.1411
57.1241
57.1281
57.1368
57.1277
57.1238
57.1202
57.1096
57.1115
57.1228
57.1145
57.1119
57.1271
57.1347
57.1307
57.1196
57.1157
57.1186
57.1138
57.1098
57.1142
57.1225
57.1197
57.1143
57.1086
57.1177
57.126
57.1256
57.1255
57.1119
57.1164
57.1287
57.1365
57.145
57.1421
57.1422
57.1429
57.1413
57.1256
57.1271
57.1319
57.1194
57.1254
57.1365
57.1337
57.1268
57.1223
57.1295
57.1317
57.1278
57.1174
57.1106
57.119
57.1238
57.1199
57.1058
55.0459
56.0454
56.7104
57.0261
57.1245
57.1353
57.1346
57.1345
57.1303
57.123
57.1375
57.1671
57.159
57.1674
57.175
57.1639
57.1699
57.1734
57.1681
57.1716
57.1731
57.1699
57.1556
57.1573
57.1617