/*--------------------------------*- C++ -*----------------------------------*\
  =========                 |
  \\      /  F ield         | OpenFOAM: The Open Source CFD Toolbox
   \\    /   O peration     | Website:  https://openfoam.org
    \\  /    A nd           | Version:  11
     \\/     M anipulation  |
\*---------------------------------------------------------------------------*/
FoamFile
{
    format      ascii;
    class       volScalarField;
    location    "0.046";
    object      p;
}
// * * * * * * * * * * * * * * * * * * * * * * * * * * * * * * * * * * * * * //

dimensions      [0 2 -2 0 0 0 0];

internalField   nonuniform List<scalar> 
287084
(
1.74118
1.46019
1.39517
1.32781
1.25988
1.20822
1.15962
1.11443
1.06972
1.02677
0.98603
0.944448
0.901446
0.857284
0.812347
0.767155
0.721621
0.675772
0.629777
0.58388
0.538276
0.493282
0.449091
0.40621
0.364945
0.325519
0.288228
0.253918
0.224071
0.198968
0.17776
0.155426
0.133979
0.117799
0.10496
0.0951044
0.0880157
0.0834016
0.0809695
0.0804556
0.081582
0.0840428
0.0875912
0.0920144
0.0970383
0.102461
0.108092
0.11374
0.119062
0.124079
0.127294
0.131214
0.138715
0.145231
0.150526
0.155093
0.157379
0.158654
0.158835
0.158994
0.159188
0.158775
0.157801
0.156478
0.154262
0.152013
0.149076
0.145181
0.14071
0.134923
0.127432
0.123515
0.121883
0.116857
0.112758
0.107821
0.100389
0.093864
0.0854106
0.0757836
0.0681448
0.0602067
0.0521548
0.0467237
0.0435679
0.0388957
0.0282128
0.0155221
0.00532096
0.000852794
1.60644
1.41702
1.36526
1.30901
1.24901
1.20118
1.15496
1.11115
1.068
1.0257
0.984047
0.941756
0.898535
0.854571
0.809938
0.764717
0.719066
0.673017
0.626814
0.580684
0.534844
0.489594
0.445252
0.401654
0.360216
0.322541
0.286017
0.251384
0.220918
0.193977
0.169479
0.147435
0.12824
0.112681
0.100248
0.0907489
0.0839422
0.0796238
0.0774698
0.0772373
0.0786294
0.0813513
0.08515
0.0898126
0.0950606
0.100697
0.106546
0.112411
0.118123
0.123581
0.12865
0.133674
0.139215
0.143908
0.148238
0.152578
0.155479
0.157129
0.158066
0.158582
0.158666
0.158491
0.157442
0.155911
0.154406
0.151666
0.148338
0.145514
0.141154
0.135709
0.130302
0.12554
0.121695
0.117555
0.112443
0.10614
0.0992805
0.0917569
0.0842585
0.0769705
0.0692645
0.0616622
0.0556386
0.0495803
0.0423948
0.0350412
0.0260496
0.0165202
0.00819642
0.00246801
1.57996
1.40976
1.35845
1.30265
1.24499
1.19738
1.15147
1.10773
1.06488
1.02255
0.980476
0.937896
0.894566
0.850432
0.805571
0.760062
0.714008
0.667551
0.620891
0.574264
0.527955
0.482246
0.437485
0.394019
0.352358
0.313032
0.276231
0.241953
0.210685
0.182797
0.158621
0.137136
0.118494
0.103246
0.0911961
0.0821243
0.0758287
0.0720071
0.0703933
0.0706903
0.0726086
0.0758592
0.0801756
0.0853075
0.0910133
0.0970883
0.103347
0.109614
0.115745
0.12165
0.127179
0.132475
0.137751
0.142682
0.147133
0.150839
0.153507
0.155555
0.156825
0.157723
0.158208
0.157834
0.156908
0.155482
0.153204
0.151011
0.148508
0.144937
0.141041
0.136528
0.131783
0.127103
0.122496
0.117452
0.111874
0.105942
0.0992962
0.0921425
0.0848716
0.0772012
0.069946
0.0631815
0.0561489
0.049198
0.0420084
0.0342949
0.0257477
0.0166497
0.00774581
0.00205039
1.53356
1.37664
1.33105
1.28097
1.22923
1.18521
1.14203
1.10014
1.05849
1.01684
0.974806
0.932136
0.888641
0.844255
0.79908
0.753089
0.706498
0.65941
0.612059
0.564717
0.517643
0.471201
0.425749
0.381661
0.339412
0.299401
0.261969
0.227372
0.196054
0.167876
0.143099
0.121666
0.103593
0.0889454
0.0775432
0.0692195
0.0636639
0.0606595
0.0598566
0.060975
0.0636917
0.0677259
0.0727899
0.0786343
0.0850127
0.0917205
0.0985698
0.105398
0.112078
0.118492
0.124572
0.130302
0.135727
0.140685
0.145042
0.148851
0.151982
0.15427
0.155816
0.156803
0.157206
0.15705
0.156311
0.154977
0.153247
0.150913
0.147884
0.14447
0.140695
0.136422
0.131955
0.127241
0.12235
0.117134
0.11154
0.105483
0.0989824
0.0922423
0.0851227
0.0779542
0.0708775
0.0636263
0.0564366
0.049279
0.0417177
0.0339339
0.0257251
0.0170312
0.00828035
0.0024629
1.51055
1.36137
1.31849
1.26991
1.22021
1.17709
1.13461
1.09314
1.05176
1.01015
0.968019
0.925097
0.881244
0.836418
0.790652
0.743996
0.69663
0.648652
0.600394
0.552035
0.503969
0.456523
0.410068
0.365078
0.321917
0.281115
0.242946
0.207831
0.175995
0.14762
0.122924
0.101816
0.084282
0.0702926
0.0596849
0.0522354
0.0476741
0.0456877
0.0459468
0.0481289
0.0519087
0.0569806
0.0630428
0.0698284
0.0770941
0.0846327
0.0922586
0.0998037
0.107139
0.114171
0.120803
0.127004
0.132744
0.137968
0.142585
0.14652
0.149733
0.152272
0.154163
0.15543
0.156051
0.156024
0.155412
0.154267
0.152503
0.150233
0.147564
0.144357
0.140665
0.136528
0.132083
0.127329
0.122302
0.116993
0.11135
0.105317
0.0989239
0.0922337
0.0853536
0.0783281
0.0711849
0.063947
0.0566609
0.0492441
0.0415885
0.03376
0.025516
0.0168909
0.00817313
0.00240482
1.48708
1.34016
1.29924
1.25299
1.20599
1.16484
1.12397
1.08365
1.04296
1.0017
0.959573
0.916431
0.8722
0.826782
0.780337
0.732808
0.684463
0.635429
0.585966
0.536398
0.487033
0.438291
0.390601
0.344389
0.300161
0.25832
0.219355
0.183551
0.151305
0.122736
0.0980602
0.0772695
0.0603368
0.0471759
0.0375521
0.0312474
0.0279127
0.0272351
0.0288289
0.0323586
0.0374567
0.043806
0.0510945
0.0590399
0.0673952
0.0759521
0.0845116
0.0929199
0.101054
0.108799
0.116087
0.12286
0.129072
0.134674
0.139612
0.143864
0.147429
0.150256
0.152362
0.153812
0.154629
0.1548
0.154365
0.153333
0.15172
0.149596
0.146969
0.143833
0.140261
0.136268
0.131912
0.1272
0.122174
0.116832
0.111158
0.105155
0.0988387
0.0922654
0.0854576
0.0784845
0.0713841
0.0641339
0.0567873
0.0493074
0.041622
0.0337686
0.0255793
0.0170145
0.00826338
0.00247504
1.46926
1.32455
1.28524
1.24013
1.19448
1.15423
1.11404
1.07415
1.03371
0.992434
0.950131
0.906598
0.86178
0.815643
0.768269
0.719692
0.670166
0.619774
0.568934
0.517836
0.46695
0.416671
0.367433
0.319804
0.274193
0.231199
0.191207
0.154668
0.121938
0.0931857
0.0686539
0.0482996
0.0321098
0.0199143
0.0114787
0.00651525
0.0046385
0.00550538
0.00867796
0.0137882
0.0204512
0.028317
0.0370592
0.0463784
0.0560176
0.0657625
0.0754222
0.0848414
0.0938881
0.102468
0.110497
0.117925
0.124699
0.13079
0.13617
0.140815
0.144705
0.147849
0.150266
0.15199
0.153026
0.1534
0.153144
0.152276
0.150825
0.148822
0.14631
0.1433
0.139826
0.135922
0.131626
0.12696
0.121958
0.116623
0.110969
0.104997
0.0987391
0.0922233
0.0854805
0.0785519
0.0714668
0.0642141
0.0568379
0.0493222
0.0416113
0.0337374
0.025527
0.0169477
0.00825108
0.00252072
1.45315
1.30903
1.27051
1.2265
1.18195
1.1426
1.10309
1.06373
1.02346
0.982169
0.939562
0.895536
0.85004
0.802997
0.754582
0.70476
0.653838
0.601947
0.549417
0.496612
0.443911
0.391813
0.340814
0.291471
0.244337
0.199944
0.158842
0.12145
0.0881722
0.0592567
0.0348824
0.0150608
-0.000284527
-0.0113302
-0.0183765
-0.0217711
-0.0219269
-0.0192676
-0.0142552
-0.00730737
0.00115288
0.0107576
0.0211575
0.0320385
0.0431412
0.0542411
0.0651437
0.0756997
0.0857826
0.0952923
0.104159
0.112326
0.119756
0.126421
0.132303
0.137388
0.141683
0.145193
0.147936
0.149942
0.151237
0.151836
0.151778
0.151092
0.149798
0.147944
0.145559
0.142661
0.13929
0.135476
0.131256
0.126649
0.121684
0.116387
0.110763
0.104833
0.0986188
0.0921474
0.0854509
0.0785615
0.0714946
0.0642624
0.0568857
0.0493513
0.0416355
0.0337583
0.0254953
0.0169002
0.00829119
0.00260572
1.43894
1.29537
1.2575
1.21412
1.17021
1.13136
1.09223
1.05305
1.01279
0.971241
0.928235
0.883567
0.837209
0.789147
0.739456
0.688223
0.635696
0.582028
0.527644
0.47283
0.418101
0.363963
0.310928
0.259686
0.210755
0.164841
0.122453
0.0841213
0.0502992
0.0211932
-0.00291289
-0.0221198
-0.0364484
-0.0461775
-0.0516458
-0.0532486
-0.0514764
-0.0467901
-0.0397135
-0.0307056
-0.020221
-0.00867194
0.00357719
0.0162063
0.0289313
0.0415307
0.053811
0.0656189
0.0768393
0.0873753
0.0971602
0.106151
0.114307
0.121612
0.128063
0.133656
0.138395
0.142302
0.145397
0.147717
0.149287
0.150133
0.150293
0.149794
0.14868
0.146979
0.144726
0.141947
0.138686
0.134966
0.13082
0.126278
0.121368
0.116114
0.110529
0.104641
0.0984697
0.0920424
0.0853838
0.0785147
0.0714702
0.0642462
0.0568666
0.0493383
0.0416314
0.0337513
0.0255897
0.0170665
0.0082594
0.00246832
1.42601
1.28267
1.24517
1.20219
1.1587
1.12017
1.08117
1.04206
1.00168
0.95979
0.91619
0.870743
0.823416
0.77414
0.723073
0.670234
0.615921
0.560324
0.503818
0.446832
0.389816
0.33338
0.278116
0.224711
0.173863
0.126214
0.0824502
0.0431147
0.00866138
-0.0205648
-0.0444089
-0.062859
-0.0760602
-0.084303
-0.0879741
-0.087576
-0.0836299
-0.0766967
-0.0673258
-0.0560503
-0.0433569
-0.0296753
-0.0154055
-0.000884336
0.0136105
0.0278385
0.0416056
0.0547771
0.0672239
0.0788647
0.0896418
0.0995074
0.108447
0.116447
0.123514
0.129647
0.134869
0.139209
0.142689
0.145342
0.147205
0.148311
0.148703
0.148414
0.147477
0.145935
0.143824
0.141173
0.138016
0.134393
0.130331
0.125861
0.121013
0.115809
0.110269
0.104427
0.0982993
0.0919115
0.0852888
0.0784523
0.0714268
0.0642274
0.0568602
0.0493267
0.0416173
0.0337502
0.0254845
0.0169035
0.00829082
0.00260677
1.41418
1.27098
1.23366
1.19095
1.14767
1.10925
1.07024
1.03095
0.990363
0.947974
0.903678
0.857347
0.808879
0.758289
0.705641
0.651055
0.594776
0.537019
0.478241
0.418814
0.359332
0.300409
0.24268
0.186988
0.133964
0.0845112
0.0392243
-0.00119192
-0.0362429
-0.0656191
-0.0890535
-0.106671
-0.11857
-0.125151
-0.126866
-0.124266
-0.117971
-0.108588
-0.0967475
-0.0830135
-0.0679273
-0.0519619
-0.0355264
-0.0189749
-0.00260313
0.0133594
0.028716
0.0433184
0.0570624
0.0698701
0.0816964
0.0924995
0.102268
0.111008
0.118726
0.125439
0.13117
0.13596
0.13984
0.142847
0.14502
0.1464
0.147037
0.146959
0.146215
0.144838
0.142872
0.140348
0.13731
0.133786
0.129808
0.125415
0.12063
0.115481
0.109992
0.104196
0.0981066
0.0917549
0.0851677
0.0783575
0.071354
0.0641692
0.056814
0.0493013
0.0415933
0.0337107
0.0254982
0.0169458
0.00827555
0.00257897
1.40325
1.2601
1.22292
1.1803
1.13708
1.09866
1.05955
1.01997
0.978878
0.935907
0.890838
0.843459
0.793777
0.741713
0.687397
0.630905
0.572516
0.512478
0.451214
0.389233
0.327055
0.265458
0.205115
0.1469
0.0916525
0.0401954
-0.0066445
-0.0481899
-0.083879
-0.113307
-0.136336
-0.152976
-0.16347
-0.168236
-0.167799
-0.162821
-0.153977
-0.141979
-0.127491
-0.111161
-0.0935589
-0.0751767
-0.0564694
-0.0377954
-0.0194508
-0.00168073
0.0153255
0.0314364
0.0465389
0.0605625
0.0734729
0.0852439
0.0958774
0.105377
0.113771
0.121083
0.127351
0.132608
0.1369
0.140274
0.142769
0.144432
0.145316
0.145459
0.144906
0.143699
0.141883
0.139496
0.13657
0.133146
0.129257
0.124937
0.120222
0.115133
0.109696
0.103944
0.0978968
0.0915895
0.085032
0.0782519
0.0712651
0.0640993
0.0567676
0.0492472
0.0415628
0.0337057
0.0254829
0.0169328
0.00826743
0.00257775
1.39315
1.25
1.21282
1.17027
1.12703
1.08845
1.04913
1.00911
0.967497
0.923828
0.877828
0.829368
0.778325
0.724717
0.668591
0.610088
0.549447
0.486969
0.423115
0.358364
0.293416
0.228969
0.165869
0.105061
0.0474016
-0.00606916
-0.0545681
-0.0972495
-0.133532
-0.163025
-0.185491
-0.201087
-0.210014
-0.212823
-0.210113
-0.202616
-0.191111
-0.176363
-0.159122
-0.140076
-0.119846
-0.0989706
-0.0779094
-0.0570389
-0.0366655
-0.0170367
0.00166826
0.0193093
0.0357941
0.0510616
0.0650854
0.077848
0.0893615
0.0996498
0.108736
0.116661
0.123465
0.129202
0.133917
0.137659
0.14048
0.142429
0.143566
0.143934
0.143577
0.14254
0.140879
0.13862
0.13581
0.132491
0.128692
0.124454
0.1198
0.114774
0.109395
0.103687
0.0976828
0.0914025
0.0848788
0.0781301
0.0711741
0.0640269
0.0567062
0.0492185
0.0415362
0.0336673
0.0254607
0.0169211
0.00825814
0.00258857
1.3838
1.24062
1.20341
1.16081
1.11742
1.07866
1.03901
0.998537
0.956287
0.911825
0.864866
0.815181
0.762754
0.707488
0.649507
0.588891
0.525942
0.460928
0.394359
0.3268
0.258886
0.191548
0.125563
0.0620454
0.00196041
-0.0536289
-0.103766
-0.147592
-0.184454
-0.213912
-0.235801
-0.250223
-0.257519
-0.258262
-0.253152
-0.243033
-0.228751
-0.211167
-0.191089
-0.169269
-0.146365
-0.122945
-0.0994945
-0.076399
-0.0539782
-0.0324678
-0.0120524
0.00713872
0.02502
0.0415402
0.0566815
0.0704468
0.0828469
0.0939165
0.103695
0.112232
0.119584
0.125798
0.130928
0.135039
0.138186
0.140429
0.141819
0.142406
0.142242
0.141381
0.13987
0.137745
0.135052
0.131831
0.128121
0.123962
0.119382
0.11441
0.109083
0.103421
0.0974558
0.0912187
0.0847247
0.077998
0.0710646
0.0639312
0.0566216
0.0491357
0.0414705
0.0336398
0.0254196
0.0168779
0.00825448
0.00259932
1.37516
1.23196
1.19467
1.15197
1.10842
1.06934
1.02931
0.9883
0.945414
0.900096
0.852096
0.801184
0.747284
0.690339
0.630418
0.567658
0.502297
0.434715
0.365381
0.294898
0.224058
0.153688
0.084835
0.0185732
-0.0439895
-0.101663
-0.15345
-0.198378
-0.235761
-0.265147
-0.286345
-0.299541
-0.305085
-0.303691
-0.296132
-0.283332
-0.266243
-0.245794
-0.222857
-0.198249
-0.172664
-0.146697
-0.12086
-0.0955534
-0.0710923
-0.047718
-0.0256017
-0.00487502
0.0143845
0.0321448
0.048391
0.0631375
0.0764131
0.0882611
0.0987259
0.107869
0.115753
0.122444
0.127992
0.132469
0.135941
0.138461
0.140096
0.140901
0.140931
0.140235
0.138871
0.136876
0.134296
0.131179
0.127558
0.123474
0.118956
0.114047
0.108772
0.103156
0.0972341
0.0910244
0.0845631
0.0778685
0.0709582
0.0638527
0.0565627
0.0491027
0.0414458
0.033611
0.0254109
0.016888
0.00824842
0.00258807
1.36723
1.22399
1.1866
1.14376
1.09994
1.06057
1.0201
0.978561
0.934976
0.888777
0.839701
0.787525
0.73215
0.673505
0.611657
0.546727
0.478999
0.408808
0.336707
0.263343
0.189481
0.116179
0.04439
-0.0245772
-0.089583
-0.149317
-0.202689
-0.248673
-0.28651
-0.315745
-0.336206
-0.348104
-0.351892
-0.348332
-0.338302
-0.322825
-0.302934
-0.279639
-0.253882
-0.226525
-0.198299
-0.169838
-0.141665
-0.114188
-0.0877324
-0.0625344
-0.0387635
-0.0165425
0.00406267
0.0230271
0.0403521
0.0560566
0.0701835
0.0827856
0.0939202
0.10365
0.11205
0.119192
0.125141
0.129972
0.133751
0.136548
0.138429
0.139445
0.139658
0.139131
0.137906
0.136035
0.133568
0.130545
0.127008
0.123002
0.118551
0.113692
0.108462
0.10289
0.0970089
0.0908355
0.0844011
0.077731
0.070843
0.0637468
0.0564701
0.0490147
0.0413764
0.033556
0.0253663
0.0168552
0.00823415
0.00260101
1.36
1.21673
1.17922
1.1362
1.09216
1.05241
1.0115
0.96939
0.925103
0.878008
0.827892
0.774452
0.717624
0.657282
0.593527
0.526464
0.456364
0.383642
0.308808
0.232586
0.155839
0.079582
0.00500757
-0.0666224
-0.133976
-0.195684
-0.250564
-0.2975
-0.335729
-0.364739
-0.384418
-0.394995
-0.396998
-0.391286
-0.378826
-0.360732
-0.338119
-0.312069
-0.283583
-0.253572
-0.222811
-0.191948
-0.161531
-0.131978
-0.103613
-0.0766741
-0.0513217
-0.0276685
-0.00578083
0.0143339
0.0326861
0.0493032
0.0642381
0.0775643
0.0893296
0.0996234
0.10852
0.116096
0.12243
0.127601
0.131678
0.134735
0.136842
0.138059
0.138449
0.138074
0.136985
0.135235
0.132873
0.129941
0.126483
0.122545
0.118154
0.113352
0.10817
0.102643
0.0967989
0.0906564
0.0842519
0.0776026
0.0707356
0.0636712
0.0564157
0.0489862
0.0413422
0.0335331
0.0252984
0.016787
0.0082551
0.0026343
1.35351
1.21016
1.17254
1.12936
1.08504
1.04497
1.00352
0.960899
0.91594
0.86797
0.816796
0.762162
0.703901
0.641968
0.576358
0.507256
0.434905
0.359714
0.282276
0.203316
0.123759
0.0447444
-0.032567
-0.106672
-0.176274
-0.239811
-0.296076
-0.343881
-0.382394
-0.41115
-0.429995
-0.439273
-0.439545
-0.431767
-0.416983
-0.39639
-0.371187
-0.342521
-0.311453
-0.27894
-0.245785
-0.212665
-0.18014
-0.148634
-0.118474
-0.0898992
-0.0630637
-0.0380754
-0.0149805
0.00621304
0.025526
0.0430007
0.0586999
0.072689
0.0850483
0.0958668
0.105224
0.113205
0.119897
0.125382
0.129735
0.133036
0.135358
0.136762
0.137318
0.137092
0.136127
0.134488
0.132225
0.129379
0.125995
0.122119
0.117784
0.113031
0.107897
0.102404
0.0965903
0.0904769
0.0840968
0.0774709
0.0706227
0.0635718
0.0563222
0.0488982
0.0412694
0.0334837
0.0252864
0.0168339
0.00824378
0.00257058
1.34776
1.20434
1.16657
1.12325
1.07869
1.03826
0.996451
0.953223
0.907495
0.858771
0.80665
0.750863
0.691287
0.6278
0.560481
0.489435
0.41495
0.337486
0.257578
0.17607
0.0939184
0.0122717
-0.0674975
-0.143964
-0.215569
-0.280799
-0.338292
-0.386819
-0.425572
-0.453987
-0.472045
-0.480043
-0.478675
-0.468939
-0.451983
-0.429074
-0.40148
-0.370408
-0.33697
-0.302159
-0.266809
-0.23162
-0.19716
-0.163867
-0.132064
-0.10199
-0.0738023
-0.0475825
-0.0233878
-0.00121068
0.0189792
0.0372342
0.0536222
0.0682362
0.0811376
0.0924339
0.102214
0.110567
0.117588
0.123359
0.127969
0.13149
0.134006
0.135582
0.136288
0.136189
0.135344
0.133804
0.131629
0.128861
0.125546
0.121727
0.117447
0.11274
0.107642
0.102187
0.0964072
0.0903239
0.0839687
0.0773606
0.070533
0.0635051
0.0562747
0.0488756
0.0412504
0.0334653
0.0252818
0.0167705
0.0082124
0.00260069
1.34274
1.1993
1.16143
1.11792
1.0731
1.03237
0.990178
0.946406
0.900078
0.850589
0.797579
0.740748
0.679952
0.615099
0.546199
0.473406
0.397009
0.317416
0.235312
0.151456
0.0669407
-0.0170332
-0.0990959
-0.177592
-0.25106
-0.317727
-0.376294
-0.425444
-0.464316
-0.492417
-0.509681
-0.516507
-0.51364
-0.502144
-0.483229
-0.458236
-0.428497
-0.395263
-0.359704
-0.322835
-0.285523
-0.248487
-0.212309
-0.17742
-0.144155
-0.112749
-0.0833475
-0.0560448
-0.0308674
-0.00780481
0.0131749
0.0321245
0.0491266
0.0642728
0.0776589
0.0893789
0.099535
0.108219
0.115529
0.121559
0.126392
0.130112
0.132801
0.13453
0.13537
0.135391
0.134645
0.133198
0.131099
0.128399
0.125141
0.121376
0.117145
0.112478
0.107418
0.101989
0.0962334
0.0901724
0.083837
0.077251
0.0704346
0.0634121
0.0561913
0.0487945
0.0411904
0.033418
0.0252524
0.0167697
0.00819428
0.00259508
1.33855
1.19502
1.15702
1.1134
1.06837
1.02735
0.984772
0.940598
0.893726
0.843577
0.789762
0.732018
0.670161
0.604062
0.533794
0.45945
0.381342
0.29995
0.215886
0.130017
0.0434432
-0.0426076
-0.126587
-0.206914
-0.281913
-0.349836
-0.409275
-0.458894
-0.497871
-0.525612
-0.542177
-0.547961
-0.543756
-0.530715
-0.510098
-0.4833
-0.451709
-0.416623
-0.379239
-0.340606
-0.301606
-0.26299
-0.225325
-0.189071
-0.154549
-0.121994
-0.0915587
-0.0633168
-0.0372994
-0.0134865
0.00815792
0.02771
0.04525
0.0608706
0.0746678
0.0867564
0.097233
0.106201
0.113764
0.120014
0.125044
0.12893
0.131772
0.133631
0.134584
0.134703
0.134047
0.132674
0.130649
0.128007
0.124801
0.12108
0.116886
0.112254
0.10722
0.101826
0.0960946
0.0900555
0.0837392
0.0771645
0.0703677
0.0633606
0.0561564
0.0487835
0.0411715
0.0334087
0.0252464
0.0167559
0.0081967
0.00259701
1.33514
1.19159
1.15349
1.10974
1.06453
1.02325
0.980395
0.935829
0.888505
0.837778
0.783336
0.724809
0.662062
0.594965
0.523537
0.447917
0.36842
0.285463
0.199794
0.112211
0.0239283
-0.0638067
-0.149424
-0.231185
-0.307523
-0.376362
-0.436484
-0.486507
-0.525502
-0.552955
-0.568897
-0.573789
-0.568497
-0.554174
-0.532155
-0.503875
-0.470762
-0.434145
-0.395261
-0.355177
-0.314801
-0.274879
-0.236003
-0.198622
-0.16307
-0.129576
-0.0982822
-0.0692758
-0.042566
-0.0181373
0.00406377
0.0241108
0.0420851
0.0580811
0.0722209
0.0846066
0.0953508
0.104553
0.112319
0.118748
0.123931
0.127962
0.130921
0.132887
0.133932
0.134134
0.133551
0.132244
0.130268
0.127677
0.124516
0.120831
0.116671
0.112066
0.107059
0.10168
0.0959675
0.0899459
0.0836404
0.0770853
0.0702943
0.0632924
0.0560992
0.0487193
0.0411237
0.0333608
0.0252029
0.0167233
0.00818309
0.00260907
1.33257
1.18898
1.1508
1.10698
1.0616
1.02016
0.977016
0.932194
0.884526
0.833381
0.778388
0.719288
0.655842
0.587935
0.515621
0.439008
0.358395
0.274296
0.187361
0.0984889
0.00889451
-0.0801586
-0.167014
-0.249907
-0.327315
-0.396798
-0.457368
-0.507654
-0.546697
-0.57388
-0.589346
-0.593566
-0.587397
-0.572093
-0.548995
-0.519579
-0.485303
-0.447527
-0.407498
-0.366308
-0.324877
-0.283966
-0.244162
-0.205925
-0.169584
-0.135373
-0.103432
-0.0738348
-0.0465978
-0.0216952
0.000925095
0.0213501
0.0396556
0.0559477
0.0703439
0.082961
0.0939034
0.103286
0.111211
0.117776
0.123085
0.127218
0.130273
0.132318
0.133437
0.133702
0.133176
0.131914
0.129984
0.127429
0.124297
0.120644
0.116503
0.111922
0.106932
0.101574
0.0958748
0.0898674
0.0835787
0.07703
0.0702547
0.06326
0.0560765
0.0487134
0.041119
0.0333717
0.0252141
0.0167187
0.00817572
0.00260626
1.33085
1.18722
1.14898
1.1051
1.05964
1.01805
0.974782
0.929728
0.881788
0.830353
0.775056
0.715531
0.651622
0.583205
0.51027
0.432979
0.351637
0.266708
0.178915
0.0891483
-0.00136225
-0.0912738
-0.179029
-0.262621
-0.340833
-0.410752
-0.471397
-0.521925
-0.561027
-0.588044
-0.603174
-0.606908
-0.600176
-0.584198
-0.560369
-0.530184
-0.495123
-0.45656
-0.415758
-0.373823
-0.331683
-0.290099
-0.24967
-0.210853
-0.17398
-0.139285
-0.106906
-0.076912
-0.0493185
-0.0241025
-0.00119822
0.0194746
0.0380045
0.0544966
0.0690763
0.0818499
0.0929341
0.102434
0.110466
0.117123
0.122511
0.126719
0.129836
0.131937
0.133101
0.133406
0.132914
0.131691
0.129786
0.127253
0.124147
0.120509
0.11639
0.111824
0.106848
0.101498
0.0958094
0.0898147
0.0835259
0.0769874
0.0702156
0.0632245
0.056041
0.0486745
0.0410948
0.0333456
0.0252456
0.0167978
0.00814849
0.0025231
1.32998
1.18634
1.14808
1.10418
1.05867
1.01702
0.973683
0.928489
0.880385
0.828851
0.773355
0.713636
0.649485
0.580768
0.507538
0.4299
0.348173
0.262861
0.174637
0.0844343
-0.00652626
-0.0968876
-0.185063
-0.269121
-0.347635
-0.417998
-0.478491
-0.528979
-0.568237
-0.595141
-0.610117
-0.613629
-0.606591
-0.59028
-0.566086
-0.535517
-0.500063
-0.461106
-0.419918
-0.377609
-0.335105
-0.293187
-0.252444
-0.213334
-0.176196
-0.14126
-0.108657
-0.0784632
-0.0506906
-0.0253058
-0.00225805
0.0185396
0.0371773
0.0537697
0.0684363
0.0812852
0.0924354
0.102
0.110086
0.11679
0.122218
0.126459
0.129607
0.131734
0.132927
0.133255
0.132784
0.131572
0.129687
0.127168
0.124068
0.120444
0.116327
0.111769
0.106799
0.101458
0.095774
0.089779
0.083502
0.0769687
0.0702057
0.0632186
0.0560372
0.048678
0.0410914
0.033348
0.0252052
0.0167138
0.00816511
0.0025894
1.32998
1.18633
1.14808
1.10417
1.05867
1.01702
0.973679
0.928477
0.880376
0.828831
0.773346
0.713636
0.649475
0.580786
0.507543
0.429911
0.34819
0.26286
0.174639
0.084433
-0.00652893
-0.0968875
-0.185065
-0.269107
-0.34762
-0.41797
-0.478471
-0.528964
-0.568215
-0.595128
-0.610095
-0.613603
-0.606569
-0.590258
-0.566064
-0.535492
-0.500039
-0.461085
-0.419903
-0.377595
-0.335094
-0.293177
-0.252433
-0.213331
-0.17619
-0.141252
-0.108652
-0.0784566
-0.0506874
-0.0253114
-0.00226692
0.0185295
0.0371711
0.0537622
0.0684311
0.08128
0.0924335
0.101999
0.110083
0.116784
0.122218
0.126461
0.129606
0.131735
0.132923
0.133249
0.132773
0.131565
0.129677
0.127159
0.124062
0.120437
0.116326
0.111764
0.106795
0.101451
0.0957681
0.0897753
0.0834956
0.0769645
0.0701943
0.0632072
0.0560295
0.0486608
0.0410781
0.0333255
0.0251812
0.0167155
0.00817538
0.00259663
1.33083
1.18721
1.14898
1.10511
1.05965
1.01806
0.974809
0.929715
0.881744
0.830332
0.775039
0.715508
0.651614
0.583168
0.510249
0.432966
0.35161
0.266712
0.178917
0.0891766
-0.00133531
-0.0912429
-0.17898
-0.26259
-0.340794
-0.410733
-0.471323
-0.52185
-0.560954
-0.587969
-0.603102
-0.606844
-0.600109
-0.584134
-0.560308
-0.530125
-0.495067
-0.456511
-0.415716
-0.373787
-0.33165
-0.290067
-0.249645
-0.210834
-0.173966
-0.139275
-0.106896
-0.0769043
-0.0493143
-0.0240957
-0.00118812
0.0194858
0.0380088
0.0544941
0.069068
0.0818363
0.0929175
0.102419
0.11045
0.117108
0.122496
0.126702
0.129815
0.131916
0.133084
0.133389
0.132899
0.131669
0.129767
0.127237
0.124127
0.120494
0.116369
0.111804
0.106827
0.101479
0.0957934
0.0897939
0.0835133
0.0769746
0.0702076
0.0632208
0.0560385
0.0486792
0.0410899
0.0333412
0.0251906
0.016692
0.00816237
0.00259993
1.33254
1.18896
1.15079
1.10696
1.0616
1.02015
0.977061
0.932162
0.884432
0.833323
0.778356
0.719265
0.655813
0.587935
0.515617
0.439003
0.358412
0.274295
0.187373
0.0985058
0.0089098
-0.0801173
-0.166983
-0.249836
-0.327249
-0.396701
-0.457264
-0.50756
-0.546579
-0.573778
-0.589225
-0.59345
-0.587284
-0.571985
-0.548894
-0.519482
-0.485214
-0.447446
-0.407426
-0.366244
-0.324821
-0.283917
-0.244119
-0.205891
-0.169555
-0.13535
-0.103416
-0.073823
-0.0465921
-0.0216969
0.000919296
0.0213383
0.0396386
0.055925
0.0703249
0.0829409
0.0938858
0.103267
0.111191
0.117755
0.123063
0.127199
0.130249
0.132295
0.133415
0.133676
0.133144
0.131884
0.129949
0.127394
0.124267
0.120612
0.116474
0.111889
0.106902
0.101541
0.0958444
0.0898416
0.0835511
0.0770074
0.0702324
0.0632364
0.0560536
0.04868
0.0411034
0.0333461
0.0252324
0.0167799
0.00815599
0.00255414
1.33511
1.19156
1.15345
1.10973
1.06452
1.02325
0.980411
0.935786
0.888427
0.837726
0.783299
0.724772
0.66204
0.594938
0.523512
0.447907
0.368387
0.285483
0.199799
0.11225
0.0239725
-0.0637517
-0.14934
-0.231116
-0.307404
-0.376275
-0.436356
-0.486372
-0.525354
-0.552806
-0.568749
-0.573642
-0.568354
-0.554031
-0.532018
-0.503746
-0.470637
-0.434037
-0.395162
-0.355085
-0.314722
-0.27481
-0.235946
-0.198576
-0.163033
-0.129549
-0.098261
-0.0692613
-0.042557
-0.0181352
0.00405658
0.024101
0.0420679
0.0580573
0.0721949
0.0845799
0.0953226
0.104525
0.11229
0.118716
0.123898
0.127929
0.130887
0.13285
0.133897
0.134094
0.133514
0.132202
0.130225
0.127636
0.124473
0.12079
0.116623
0.11202
0.107019
0.101643
0.0959303
0.0899083
0.0836087
0.0770525
0.0702696
0.0632711
0.0560819
0.0487108
0.0411131
0.0333675
0.0252148
0.016725
0.00816292
0.00258732
1.3385
1.19499
1.15699
1.11336
1.06835
1.02732
0.984784
0.940551
0.893638
0.843508
0.789717
0.731978
0.67012
0.604043
0.533777
0.459439
0.381357
0.299946
0.215907
0.130039
0.0434801
-0.042532
-0.126522
-0.206801
-0.281803
-0.349698
-0.409112
-0.458741
-0.497672
-0.52544
-0.541977
-0.547774
-0.543569
-0.530536
-0.509932
-0.483144
-0.451563
-0.41649
-0.379117
-0.340496
-0.301511
-0.262908
-0.225255
-0.189011
-0.154503
-0.121959
-0.0915326
-0.0633
-0.0372901
-0.0134879
0.00815129
0.0276945
0.0452225
0.0608336
0.0746328
0.0867202
0.0971961
0.106168
0.113732
0.119979
0.125002
0.128891
0.131726
0.133587
0.134541
0.134655
0.133996
0.132623
0.13059
0.127951
0.12475
0.121028
0.116831
0.112197
0.107167
0.101766
0.0960351
0.0899992
0.0836845
0.0771193
0.0703214
0.063314
0.0561165
0.0487351
0.0411413
0.0333759
0.0252397
0.0167767
0.00817385
0.00255924
1.3427
1.19925
1.16136
1.11788
1.07306
1.03234
0.990145
0.946356
0.900001
0.850525
0.797533
0.740703
0.679924
0.615071
0.546173
0.473392
0.396983
0.317431
0.235324
0.151498
0.0670019
-0.0169789
-0.0989817
-0.177514
-0.250899
-0.317596
-0.376111
-0.425257
-0.464119
-0.492204
-0.509474
-0.516289
-0.513436
-0.501937
-0.483034
-0.458051
-0.428316
-0.395102
-0.359556
-0.322701
-0.28541
-0.248391
-0.212227
-0.177351
-0.144101
-0.112708
-0.0833203
-0.0560296
-0.0308617
-0.00781481
0.0131485
0.0320977
0.049097
0.0642369
0.0776184
0.0893397
0.0994929
0.108177
0.115488
0.121513
0.126342
0.13006
0.132748
0.134474
0.135314
0.135329
0.134587
0.133135
0.131035
0.128334
0.125078
0.121313
0.117073
0.112409
0.10735
0.101929
0.0961719
0.0901135
0.0837795
0.0771957
0.070387
0.0633714
0.0561577
0.0487678
0.0411533
0.033386
0.0252011
0.016703
0.00819737
0.00262532
1.34769
1.20429
1.1665
1.1232
1.07862
1.0382
0.996418
0.953147
0.907445
0.858704
0.806588
0.750816
0.691239
0.627772
0.560464
0.489418
0.414966
0.337482
0.257616
0.176112
0.0939654
0.0123638
-0.0674199
-0.143827
-0.215437
-0.280631
-0.338097
-0.38663
-0.425335
-0.453764
-0.471796
-0.479799
-0.478437
-0.468713
-0.451773
-0.428878
-0.401294
-0.370237
-0.336814
-0.302018
-0.266681
-0.231518
-0.197072
-0.16379
-0.132002
-0.101943
-0.0737701
-0.0475689
-0.0233809
-0.00120906
0.0189697
0.0372141
0.0535949
0.0681894
0.0810853
0.0923774
0.102152
0.11051
0.117531
0.123301
0.127905
0.131427
0.13394
0.135516
0.136225
0.136123
0.135272
0.133734
0.131554
0.128782
0.125466
0.121649
0.117366
0.112658
0.107562
0.102104
0.0963232
0.0902392
0.0838875
0.0772878
0.0704626
0.0634325
0.0562105
0.0488092
0.0411905
0.0334164
0.025216
0.0167051
0.00819768
0.00263189
1.35346
1.21009
1.17243
1.12932
1.08498
1.0449
1.00352
0.960841
0.915806
0.86788
0.816749
0.762102
0.70387
0.641924
0.576334
0.507232
0.434887
0.359713
0.282295
0.203339
0.123831
0.0447936
-0.0324427
-0.10658
-0.176103
-0.239657
-0.295871
-0.34366
-0.382168
-0.410897
-0.429758
-0.439014
-0.439307
-0.431522
-0.416747
-0.396169
-0.370973
-0.342327
-0.311281
-0.27878
-0.245646
-0.212547
-0.180041
-0.148549
-0.11841
-0.089847
-0.0630311
-0.038058
-0.0149751
0.0062037
0.0255002
0.0429638
0.0586549
0.0726381
0.084993
0.0958077
0.10516
0.113139
0.119829
0.12531
0.129664
0.132961
0.135282
0.136684
0.137242
0.13701
0.136048
0.134403
0.132139
0.129291
0.125903
0.122026
0.117686
0.112936
0.107801
0.102312
0.0964969
0.0903882
0.0840113
0.0773949
0.0705499
0.063503
0.0562638
0.0488516
0.0412281
0.0334414
0.0252935
0.0168259
0.00820035
0.00255894
1.35992
1.21665
1.17913
1.13614
1.09207
1.05235
1.01141
0.96931
0.925028
0.877953
0.827809
0.774409
0.717556
0.657243
0.5935
0.526436
0.456372
0.383644
0.30883
0.232633
0.155885
0.0796703
0.00510555
-0.0665009
-0.133821
-0.195521
-0.250358
-0.297291
-0.335487
-0.364494
-0.384159
-0.394724
-0.396743
-0.391035
-0.378588
-0.360506
-0.337908
-0.311877
-0.28341
-0.253416
-0.222669
-0.191835
-0.161432
-0.131895
-0.103544
-0.076621
-0.0512894
-0.0276515
-0.00577504
0.0143278
0.0326647
0.0492698
0.0641928
0.0775041
0.0892649
0.0995538
0.108441
0.116014
0.122348
0.127518
0.131592
0.134647
0.136757
0.137972
0.138363
0.137987
0.136895
0.135143
0.132776
0.129839
0.126379
0.122438
0.118044
0.11324
0.108055
0.102527
0.0966831
0.0905453
0.0841444
0.0774999
0.0706383
0.0635772
0.0563244
0.0488989
0.0412632
0.0334674
0.025271
0.0167417
0.008207
0.00262162
1.36715
1.2239
1.18651
1.14367
1.09987
1.06048
1.02
0.978473
0.934893
0.888708
0.839641
0.78747
0.7321
0.673465
0.611616
0.546706
0.478969
0.408797
0.336728
0.263342
0.189561
0.116215
0.0445066
-0.0244785
-0.0894239
-0.149159
-0.202483
-0.248451
-0.286276
-0.315487
-0.335956
-0.347841
-0.351642
-0.348072
-0.338055
-0.322593
-0.302715
-0.279439
-0.253703
-0.22636
-0.198153
-0.169713
-0.141559
-0.114093
-0.0876594
-0.0624792
-0.0387318
-0.0165286
0.00406523
0.0230135
0.040323
0.0560115
0.0701274
0.0827203
0.0938442
0.103567
0.111964
0.1191
0.125047
0.129874
0.133654
0.136449
0.138328