/*--------------------------------*- C++ -*----------------------------------*\
  =========                 |
  \\      /  F ield         | OpenFOAM: The Open Source CFD Toolbox
   \\    /   O peration     | Website:  https://openfoam.org
    \\  /    A nd           | Version:  11
     \\/     M anipulation  |
\*---------------------------------------------------------------------------*/
FoamFile
{
    format      ascii;
    class       volScalarField;
    location    "0.032";
    object      k;
}
// * * * * * * * * * * * * * * * * * * * * * * * * * * * * * * * * * * * * * //

dimensions      [0 2 -2 0 0 0 0];

internalField   nonuniform List<scalar> 
287084
(
0.382815
0.394676
0.400376
0.402096
0.402226
0.402176
0.402068
0.402011
0.402184
0.402323
0.402295
0.40224
0.402075
0.402047
0.402215
0.402161
0.402291
0.402453
0.402305
0.402402
0.402454
0.402365
0.402396
0.40235
0.402235
0.402159
0.402273
0.402388
0.40233
0.402105
0.402131
0.402245
0.401992
0.402041
0.402193
0.402173
0.402136
0.402088
0.402121
0.401971
0.40207
0.402174
0.401924
0.401989
0.40214
0.40189
0.401908
0.402156
0.402169
0.402135
0.40216
0.402134
0.402028
0.401987
0.401886
0.40201
0.402114
0.402091
0.402023
0.40204
0.402171
0.401969
0.402045
0.402193
0.40214
0.402131
0.401963
0.40207
0.402174
0.402144
0.402108
0.402042
0.402133
0.402154
0.402197
0.402218
0.402171
0.402029
0.402115
0.402187
0.402184
0.402183
0.401959
0.401928
0.401996
0.401866
0.401971
0.402112
0.402085
0.401998
0.382841
0.394546
0.400333
0.402127
0.402277
0.40226
0.402233
0.402224
0.402284
0.402268
0.402216
0.402062
0.402115
0.402222
0.401964
0.402015
0.402188
0.402153
0.402066
0.402164
0.402452
0.402388
0.402398
0.402469
0.402463
0.402267
0.402358
0.402427
0.402199
0.40227
0.402321
0.402063
0.402126
0.402278
0.402032
0.402038
0.402198
0.402122
0.402223
0.402269
0.40221
0.402076
0.402026
0.402198
0.402234
0.402174
0.401942
0.401964
0.402073
0.401832
0.401823
0.402047
0.402136
0.402088
0.401919
0.402023
0.402161
0.40196
0.40206
0.40217
0.402144
0.402067
0.402079
0.402168
0.402012
0.402093
0.402197
0.402158
0.402028
0.402089
0.402258
0.402253
0.402251
0.402029
0.402103
0.402257
0.402115
0.402169
0.402184
0.40216
0.402169
0.402124
0.40198
0.402007
0.402041
0.402
0.401883
0.401944
0.402114
0.401869
0.382841
0.394537
0.400325
0.402088
0.402166
0.402293
0.402403
0.402217
0.402294
0.40247
0.402435
0.402393
0.402342
0.402202
0.40221
0.402322
0.402338
0.402341
0.402126
0.402137
0.402309
0.402274
0.402375
0.402461
0.402442
0.402438
0.402276
0.402334
0.402407
0.402176
0.402267
0.402417
0.402183
0.402266
0.402425
0.402205
0.402301
0.40245
0.402288
0.402273
0.402279
0.402245
0.40226
0.402294
0.402273
0.402178
0.402224
0.402271
0.402247
0.40224
0.402037
0.402079
0.402136
0.401982
0.402088
0.402191
0.401941
0.402012
0.402144
0.402126
0.402121
0.402064
0.402141
0.40206
0.402176
0.402239
0.402201
0.402092
0.402134
0.402211
0.402071
0.402055
0.401944
0.402043
0.402128
0.401916
0.402006
0.402225
0.40212
0.402135
0.402092
0.402166
0.402191
0.401999
0.40208
0.402171
0.401932
0.402011
0.402092
0.401849
0.382835
0.394556
0.400256
0.402158
0.402363
0.402505
0.402534
0.402446
0.402429
0.402449
0.402459
0.402418
0.402361
0.402292
0.402406
0.402442
0.402382
0.40218
0.402217
0.402382
0.402278
0.402266
0.402215
0.402223
0.402211
0.402213
0.402067
0.402127
0.402375
0.402384
0.402365
0.402103
0.402139
0.40228
0.402049
0.402082
0.402251
0.402094
0.402187
0.40233
0.402209
0.402179
0.402175
0.402165
0.40217
0.402169
0.401984
0.401966
0.402062
0.402074
0.402076
0.402016
0.402008
0.401895
0.402021
0.402178
0.401971
0.402066
0.402175
0.402108
0.402101
0.401996
0.402157
0.402281
0.402262
0.402236
0.402226
0.402251
0.402237
0.402234
0.402058
0.402128
0.402208
0.40204
0.40213
0.40233
0.402324
0.402331
0.402293
0.402227
0.402
0.40207
0.40218
0.402175
0.402173
0.401946
0.402029
0.402114
0.402077
0.401963
0.382835
0.394551
0.400254
0.402185
0.402433
0.402406
0.4023
0.402367
0.402454
0.402275
0.402354
0.402389
0.402328
0.402323
0.402259
0.402294
0.402249
0.402149
0.4021
0.402148
0.402146
0.402324
0.402475
0.402327
0.402323
0.40232
0.402186
0.402262
0.402391
0.402141
0.402115
0.402247
0.40218
0.402303
0.402447
0.402278
0.402365
0.402405
0.402391
0.402386
0.40214
0.402185
0.402254
0.402243
0.402239
0.402023
0.402102
0.402176
0.401983
0.402084
0.402197
0.40194
0.401969
0.402128
0.401968
0.402056
0.402214
0.402093
0.402092
0.40209
0.401965
0.402049
0.402207
0.401975
0.402055
0.402182
0.401948
0.401999
0.402168
0.401986
0.402072
0.402231
0.402201
0.402196
0.402029
0.402129
0.402224
0.402096
0.402115
0.40207
0.401938
0.402046
0.402196
0.402009
0.402114
0.402197
0.402002
0.402107
0.402197
0.401925
0.382823
0.394593
0.400234
0.401924
0.402052
0.401897
0.401998
0.402193
0.402197
0.402197
0.401971
0.402042
0.402297
0.402149
0.402265
0.40239
0.402271
0.402301
0.402244
0.402212
0.402207
0.402087
0.402171
0.402306
0.402057
0.402068
0.402282
0.402295
0.402287
0.402141
0.402236
0.402425
0.402333
0.402322
0.402275
0.402106
0.402158
0.402257
0.401996
0.40205
0.402216
0.401995
0.402075
0.402249
0.402027
0.402115
0.402284
0.402138
0.402132
0.402129
0.402003
0.402069
0.402206
0.402212
0.402208
0.402006
0.401938
0.402082
0.402143
0.402086
0.401944
0.401879
0.402083
0.402211
0.402196
0.402194
0.402117
0.402029
0.402053
0.402046
0.402204
0.402302
0.402123
0.402212
0.402263
0.402039
0.402125
0.402238
0.402016
0.402092
0.402218
0.402063
0.402166
0.402232
0.402213
0.402194
0.402199
0.402227
0.402167
0.401958
0.382797
0.394641
0.400225
0.40199
0.402149
0.401962
0.402064
0.402159
0.402058
0.401998
0.402102
0.402712
0.402778
0.402669
0.402683
0.402744
0.402736
0.402715
0.402714
0.402654
0.402631
0.40262
0.402481
0.402518
0.402551
0.402498
0.402339
0.402328
0.402404
0.4024
0.402331
0.402366
0.402439
0.402192
0.402269
0.40242
0.402197
0.402278
0.402414
0.402376
0.402368
0.402188
0.402287
0.402378
0.402291
0.402305
0.402244
0.402225
0.402178
0.402177
0.402085
0.402156
0.402193
0.401937
0.401957
0.402164
0.402176
0.402134
0.401901
0.401892
0.402019
0.401886
0.401999
0.402113
0.402095
0.402097
0.401974
0.401959
0.401873
0.401999
0.402102
0.40188
0.401929
0.402139
0.402136
0.40213
0.401929
0.40201
0.402203
0.402065
0.402156
0.402197
0.402015
0.402096
0.402202
0.402186
0.402188
0.402139
0.40212
0.401903
0.382831
0.394569
0.400195
0.402217
0.40281
0.402959
0.402995
0.402957
0.402921
0.402927
0.402888
0.40286
0.402862
0.402834
0.402803
0.402759
0.402727
0.402713
0.40269
0.402633
0.402604
0.402599
0.402471
0.402512
0.402554
0.402499
0.40238
0.402332
0.402349
0.402179
0.40228
0.402435
0.402201
0.402283
0.402435
0.402254
0.402215
0.40245
0.402545
0.402516
0.40251
0.402343
0.402432
0.402503
0.402399
0.402358
0.402406
0.402488
0.402477
0.4025
0.402473
0.402452
0.402404
0.402347
0.402246
0.402171
0.402138
0.402133
0.402085
0.401996
0.402158
0.402271
0.402198
0.402216
0.402212
0.402027
0.402096
0.402195
0.402057
0.402085
0.402034
0.401993
0.401857
0.401868
0.402178
0.402229
0.402181
0.402105
0.401946
0.40209
0.402252
0.402161
0.402174
0.402177
0.402176
0.402007
0.40206
0.402177
0.402127
0.40195
0.382811
0.394618
0.40023
0.401991
0.402198
0.402157
0.402158
0.402152
0.402033
0.402093
0.402662
0.402762
0.402697
0.402687
0.402704
0.402732
0.402704
0.40269
0.402666
0.402629
0.402576
0.402543
0.402532
0.40253
0.402507
0.402489
0.402306
0.402317
0.402399
0.402194
0.402291
0.402442
0.402204
0.402286
0.402436
0.402254
0.40221
0.402431
0.402561
0.402516
0.402501
0.402471
0.402474
0.402461
0.40246
0.402422
0.402346
0.402082
0.402107
0.402167
0.401916
0.401989
0.402087
0.401844
0.401832
0.4021
0.402159
0.4021
0.401944
0.401882
0.402069
0.40215
0.402108
0.402041
0.40192
0.402073
0.402231
0.402134
0.402196
0.40222
0.402166
0.401982
0.401993
0.402196
0.402193
0.4022
0.402255
0.402273
0.402232
0.402234
0.402086
0.402154
0.402276
0.402209
0.402243
0.402197
0.401993
0.401983
0.402053
0.401861
0.382786
0.394656
0.400259
0.401799
0.402164
0.402134
0.401972
0.401932
0.402201
0.402317
0.402267
0.402165
0.402061
0.402263
0.402367
0.402311
0.402163
0.402108
0.402194
0.402127
0.402252
0.402329
0.402128
0.402113
0.402335
0.402376
0.402243
0.402352
0.402455
0.402197
0.402261
0.402426
0.4024
0.402367
0.402305
0.402265
0.402258
0.40215
0.40218
0.402214
0.40194
0.40199
0.402135
0.401899
0.401971
0.402101
0.401856
0.401891
0.402063
0.401953
0.401948
0.401941
0.40194
0.401807
0.401896
0.402058
0.401819
0.401854
0.402061
0.402121
0.40208
0.401827
0.40186
0.402043
0.402043
0.40199
0.402044
0.402125
0.401988
0.401995
0.401987
0.401856
0.401933
0.402083
0.401841
0.40186
0.402099
0.402122
0.402077
0.401863
0.401901
0.402107
0.402154
0.402111
0.402034
0.401938
0.402018
0.402194
0.402153
0.402002
0.382811
0.394596
0.400272
0.402032
0.402258
0.402212
0.402076
0.40201
0.402223
0.402312
0.402291
0.402243
0.402358
0.402468
0.402284
0.40236
0.402529
0.402549
0.402504
0.402424
0.402297
0.402315
0.40243
0.402387
0.402246
0.402201
0.402282
0.402308
0.40231
0.40216
0.402273
0.402451
0.402371
0.402362
0.402312
0.402131
0.402168
0.402246
0.40198
0.40203
0.402189
0.401968
0.402047
0.402219
0.401998
0.402068
0.40227
0.402262
0.402243
0.401998
0.402058
0.40215
0.40191
0.401961
0.402119
0.402085
0.402086
0.401961
0.402019
0.402058
0.402006
0.401844
0.401889
0.402066
0.402068
0.402066
0.401844
0.401866
0.402111
0.402085
0.402088
0.40207
0.402201
0.402267
0.40207
0.402164
0.402282
0.402136
0.402218
0.402265
0.402129
0.402226
0.402268
0.402007
0.402067
0.402189
0.402037
0.402039
0.402027
0.401884
0.382804
0.394618
0.400227
0.402083
0.402297
0.402266
0.402263
0.40226
0.402153
0.402136
0.402589
0.402789
0.402701
0.402768
0.402792
0.402762
0.402775
0.402729
0.402581
0.402623
0.402649
0.402505
0.402601
0.402662
0.402603
0.402479
0.402368
0.402334
0.402167
0.402255
0.402361
0.4021
0.402161
0.402303
0.402049
0.402105
0.402263
0.402033
0.402108
0.402271
0.402043
0.402125
0.402285
0.402137
0.402128
0.402124
0.401994
0.402071
0.402157
0.402159
0.40216
0.4021
0.401975
0.401992
0.40209
0.401954
0.402022
0.402043
0.401875
0.401918
0.402159
0.402171
0.402143
0.402124
0.4021
0.402051
0.401904
0.401991
0.402214
0.402185
0.402143
0.401909
0.401968
0.402112
0.402094
0.402089
0.401864
0.401956
0.402184
0.402127
0.402119
0.401978
0.402077
0.402141
0.402083
0.402076
0.401955
0.402075
0.402157
0.4019
0.382831
0.394568
0.400193
0.402215
0.40281
0.402917
0.402905
0.402923
0.402823
0.402819
0.402845
0.402789
0.402792
0.402796
0.40281
0.402765
0.402735
0.402759
0.402731
0.402713
0.402691
0.402588
0.402551
0.402605
0.402615
0.402593
0.402372
0.402388
0.40247
0.402239
0.402326
0.402463
0.402336
0.402264
0.402413
0.402516
0.402515
0.402511
0.402294
0.402362
0.402457
0.402393
0.402384
0.402252
0.40234
0.402395
0.40233
0.402327
0.402259
0.402244
0.402214
0.402192
0.402017
0.402073
0.402205
0.402188
0.402184
0.401975
0.40208
0.402246
0.402226
0.402221
0.402018
0.402121
0.402244
0.402014
0.402096
0.4022
0.40206
0.402085
0.402033
0.401991
0.401855
0.401865
0.402174
0.402228
0.402168
0.402042
0.401948
0.402097
0.402161
0.40212
0.402063
0.40194
0.402088
0.402258
0.402169
0.402188
0.402168
0.401944
0.382792
0.394636
0.400279
0.401877
0.401985
0.401891
0.40203
0.402248
0.40213
0.402149
0.402144
0.402014
0.402064
0.402238
0.40219
0.402249
0.402267
0.402155
0.402154
0.402341
0.402278
0.402402
0.402565
0.402436
0.4025
0.402522
0.40245
0.402447
0.402431
0.402265
0.402329
0.402466
0.40234
0.40226
0.402402
0.402515
0.402451
0.40243
0.402441
0.40247
0.402411
0.402365
0.402374
0.402404
0.402372
0.402384
0.402331
0.402196
0.402053
0.402015
0.401956
0.402093
0.402184
0.40217
0.402166
0.401957
0.402017
0.402146
0.402128
0.402124
0.401926
0.401999
0.402176
0.402042
0.40203
0.401952
0.402065
0.402139
0.40209
0.402082
0.401911
0.401978
0.402196
0.402049
0.402144
0.402309
0.402177
0.402269
0.402314
0.402252
0.402248
0.402227
0.402218
0.402035
0.40209
0.402249
0.402239
0.402239
0.402177
0.401986
0.382832
0.394568
0.400194
0.402215
0.402808
0.402957
0.402993
0.402956
0.402928
0.402939
0.402893
0.402865
0.402868
0.402847
0.402768
0.402725
0.40273
0.402669
0.402694
0.402716
0.402648
0.402615
0.402659
0.402682
0.40262
0.402433
0.402385
0.40241
0.402327
0.402338
0.402325
0.402171
0.40223
0.402326
0.402057
0.402104
0.402253
0.402021
0.402094
0.402251
0.402021
0.402105
0.40226
0.402198
0.402187
0.402015
0.402096
0.402229
0.40215
0.402143
0.402168
0.402166
0.40218
0.40221
0.402167
0.402114
0.401952
0.402136
0.402341
0.402234
0.402309
0.402403
0.402343
0.402348
0.402322
0.402081
0.402116
0.402196
0.402055
0.402082
0.402031
0.401989
0.401853
0.401863
0.402173
0.402227
0.402167
0.402042
0.401947
0.402096
0.402159
0.402104
0.401914
0.401906
0.402041
0.401979
0.40207
0.402118
0.402061
0.401873
0.382859
0.39451
0.400239
0.402135
0.402323
0.4022
0.402312
0.402399
0.402276
0.402315
0.402377
0.402343
0.402172
0.402249
0.402369
0.402319
0.402195
0.402131
0.402212
0.402221
0.402243
0.402229
0.402362
0.402422
0.402241
0.402326
0.402452
0.402195
0.402188
0.402414
0.402436
0.402331
0.402413
0.402459
0.402299
0.402311
0.402234
0.402194
0.40217
0.401989
0.402032
0.402133
0.401875
0.401884
0.402047
0.401899
0.401965
0.402225
0.402217
0.40218
0.402199
0.40215
0.401975
0.402066
0.40253
0.402589
0.402577
0.40261
0.402581
0.402538
0.402477
0.402425
0.402474
0.402493
0.402422
0.40242
0.402391
0.402169
0.402195
0.402256
0.402005
0.40208
0.402189
0.402155
0.402152
0.402028
0.402093
0.402115
0.401953
0.402029
0.402226
0.402234
0.40223
0.402007
0.402086
0.402193
0.402092
0.402105
0.40209
0.401921
0.382851
0.394544
0.400153
0.402188
0.402797
0.402954
0.402991
0.403003
0.40296
0.402925
0.402944
0.402916
0.40284
0.4028
0.4028
0.402774
0.402762
0.402648
0.402685
0.402708
0.402486
0.402552
0.402621
0.402598
0.402544
0.402542
0.402553
0.402278
0.402327
0.402432
0.40243
0.402424
0.402134
0.402177
0.402242
0.402239
0.402232
0.401945
0.401984
0.402123
0.401883
0.40194
0.402109
0.40211
0.402107
0.401861
0.401912
0.402101
0.40209
0.402085
0.402092
0.402096
0.401931
0.402115
0.402415
0.402313
0.402409
0.402456
0.402332
0.402412
0.40244
0.402317
0.402345
0.402352
0.40232
0.402321
0.402263
0.40207
0.402122
0.402185
0.402094
0.402112
0.402097
0.402047
0.401849
0.401859
0.40208
0.402116
0.402123
0.402103
0.401976
0.402034
0.402199
0.402077
0.402153
0.402184
0.40206
0.402161
0.402208
0.401932
0.382832
0.394568
0.400194
0.402216
0.402811
0.40296
0.402993
0.403002
0.403004
0.402969
0.402943
0.402959
0.402932
0.402857
0.402818
0.402818
0.402797
0.402731
0.402694
0.402637
0.402693
0.402723
0.402622
0.402617
0.402597
0.402403
0.402401
0.402476
0.402273
0.402358
0.402425
0.402162
0.402223
0.402324
0.402053
0.402099
0.40224
0.402003
0.402074
0.402228
0.401997
0.402065
0.402243
0.402123
0.40211
0.402099
0.402124
0.402119
0.402118
0.402078
0.402088
0.402029
0.402181
0.402432
0.402317
0.40241
0.402458
0.40241
0.402391
0.402403
0.402413
0.402326
0.402359
0.402313
0.402154
0.40221
0.402246
0.40208
0.40215
0.402243
0.402233
0.402226
0.402054
0.401957
0.402102
0.40221
0.402151
0.401984
0.401942
0.402024
0.401984
0.402114
0.402169
0.402127
0.402077
0.401918
0.402051
0.402183
0.402133
0.401954
0.382851
0.394545
0.400153
0.402189
0.402798
0.402955
0.402993
0.402958
0.402924
0.402938
0.402907
0.402831
0.402791
0.402791
0.402765
0.402752
0.402638
0.402677
0.402701
0.402481
0.402553
0.402633
0.402498
0.402516
0.402469
0.402303
0.402375
0.402483
0.402219
0.402272
0.402429
0.402195
0.402247
0.402358
0.402357
0.402355
0.402306
0.402251
0.402174
0.402111
0.401914
0.402001
0.402109
0.401848
0.401908
0.402034
0.401792
0.401857
0.402029
0.402021
0.402017
0.401839
0.401794
0.40209
0.402439
0.402344
0.402417
0.402503
0.40249
0.402495
0.402468
0.402448
0.402425
0.40241
0.402379
0.402214
0.402274
0.402302
0.402218
0.402198
0.402166
0.402166
0.402143
0.402108
0.402099
0.401972
0.402024
0.40221
0.402209
0.402191
0.401948
0.402013
0.402134
0.401949
0.402041
0.402101
0.401894
0.401978
0.402125
0.401872
0.382851
0.394545
0.400145
0.402254
0.402522
0.402495
0.402489
0.402454
0.402418
0.402474
0.402491
0.402308
0.402263
0.402371
0.402479
0.402446
0.402398
0.4023
0.402285
0.402216
0.40232
0.402673
0.402652
0.402606
0.402374
0.402389
0.402477
0.40224
0.402306
0.402418
0.402156
0.402216
0.402344
0.40208
0.402128
0.402269
0.402133
0.402138
0.402121
0.401956
0.402011
0.402109
0.401992
0.401964
0.401941
0.401987
0.401977
0.401935
0.401875
0.402088
0.402625
0.402784
0.402826
0.402842
0.402799
0.402764
0.402722
0.402685
0.402684
0.402608
0.402634
0.402652
0.402557
0.402563
0.402538
0.402462
0.402429
0.402426
0.402401
0.4024
0.402355
0.402202
0.402271
0.402313
0.402269
0.402141
0.40216
0.402217
0.402113
0.4021
0.401981
0.402034
0.402073
0.401909
0.401988
0.40214
0.402021
0.402021
0.402018
0.401881
0.382822
0.394584
0.400244
0.40197
0.402106
0.40207
0.401954
0.402035
0.402185
0.401943
0.401964
0.402154
0.402016
0.402127
0.402269
0.402227
0.402226
0.402177
0.402323
0.402335
0.402512
0.402666
0.402547
0.402569
0.402522
0.402359
0.402437
0.402547
0.402284
0.402329
0.402473
0.402243
0.402315
0.40245
0.402216
0.402297
0.40239
0.402341
0.402329
0.402135
0.402218
0.402276
0.402162
0.402141
0.402101
0.402113
0.40212
0.402073
0.401915
0.401963
0.402005
0.401807
0.401875
0.402043
0.401972
0.40197
0.401944
0.401931
0.401764
0.40186
0.402036
0.401801
0.401872
0.402035
0.401914
0.401849
0.401847
0.401838
0.402015
0.402184
0.402063
0.402041
0.402069
0.402077
0.401879
0.401873
0.402166
0.402226
0.402162
0.401991
0.401943
0.402023
0.401936
0.402041
0.402088
0.401885
0.401951
0.402116
0.402096
0.402017
0.382832
0.394568
0.400194
0.402217
0.40282
0.402881
0.402866
0.402877
0.4028
0.402758
0.402769
0.402791
0.40275
0.402719
0.402604
0.402618
0.402646
0.402594
0.402561
0.402601
0.402642
0.402597
0.402529
0.402391
0.402435
0.402542
0.402487
0.402278
0.402346
0.402472
0.402437
0.402331
0.402345
0.40236
0.402326
0.402314
0.40208
0.402136
0.402164
0.402043
0.402067
0.402018
0.401838
0.40184
0.401986
0.401916
0.402032
0.402089
0.402066
0.402006
0.402003
0.402397
0.402739
0.402817
0.402835
0.402845
0.402805
0.402767
0.402772
0.402745
0.402717
0.402649
0.402616
0.402607
0.402611
0.402496
0.402513
0.402546
0.402486
0.402537
0.402559
0.40252
0.402411
0.402367
0.402333
0.402277
0.40231
0.402263
0.402076
0.402085
0.402165
0.401979
0.402076
0.402205
0.402104
0.40209
0.401944
0.402037
0.402101
0.401865
0.382832
0.394568
0.400194
0.402217
0.402812
0.402961
0.402993
0.403004
0.402967
0.402933
0.402949
0.402922
0.40285
0.402811
0.402812
0.402789
0.402781
0.402672
0.402713
0.402738
0.402715
0.402654
0.402678
0.402709
0.402651
0.402521
0.402472
0.402491
0.402314
0.402404
0.402476
0.402237
0.402322
0.402456
0.402218
0.402267
0.402411
0.402257
0.40225
0.402385
0.402397
0.402333
0.402329
0.402217
0.402267
0.402282
0.402263
0.402261
0.40218
0.402009
0.402009
0.402446
0.402749
0.402816
0.402834
0.402841
0.402848
0.402806
0.402771
0.402777
0.402732
0.402697
0.402691
0.402723
0.402638
0.402645
0.402673
0.402653
0.402673
0.402643
0.402588
0.402547
0.402478
0.402479
0.402412
0.402392
0.402376
0.402404
0.402347
0.402327
0.402305
0.402113
0.402158
0.402237
0.401998
0.402074
0.402223
0.402201
0.40218
0.401924
0.382811
0.394601
0.40028
0.401904
0.401972
0.402123
0.402256
0.402006
0.402073
0.402201
0.402134
0.402038
0.402038
0.402577
0.402768
0.402653
0.4027
0.402815
0.402795
0.40275
0.402618
0.402679
0.402721
0.402472
0.402539
0.402627
0.402503
0.402481
0.402448
0.402434
0.402229
0.402284
0.402369
0.40209
0.402131
0.402262
0.402138
0.402044
0.4022
0.402332
0.40227
0.402279
0.402217
0.402201
0.40219
0.402203
0.402191
0.402157
0.402173
0.402179
0.401995
0.40204
0.402061
0.401938
0.401892
0.402133
0.402341
0.402235
0.402224
0.402203
0.402208
0.402147
0.402232
0.402311
0.402239
0.402242
0.402183
0.402243
0.402291
0.402284
0.402277
0.402104
0.402008
0.402131
0.40223
0.402202
0.402115
0.402222
0.4023
0.402059
0.402131
0.402213
0.40198
0.402053
0.402113
0.402075
0.401963
0.401972
0.40209
0.401867
0.382832
0.394569
0.400188
0.402252
0.402651
0.40258
0.402633
0.402675
0.402648
0.40269
0.402653
0.402614
0.402566
0.40248
0.402489
0.402495
0.40236
0.402426
0.402481
0.402437
0.402299
0.402322
0.402466
0.402466
0.402441
0.402494
0.402554
0.402268
0.402311
0.402426
0.402391
0.402276
0.40229
0.402306
0.402263
0.402243
0.401938
0.401937
0.402064
0.40186
0.401934
0.402052
0.401802
0.401869
0.402005
0.401758
0.401771
0.40194
0.401799
0.401881
0.402002
0.401996
0.401995
0.401785
0.401849
0.402033
0.402026
0.40199
0.402033
0.402093
0.402055
0.402001
0.401931
0.401947
0.401789
0.401868
0.402058
0.401832
0.401905
0.402059
0.402034
0.401958
0.401979
0.402103
0.40199
0.401997
0.401994
0.401991
0.401826
0.401873
0.402137
0.402162
0.402104
0.401867
0.401931
0.40208
0.401838
0.401907
0.402071
0.401831
0.382832
0.394568
0.400194
0.402217
0.402812
0.402965
0.402952
0.402918
0.40293
0.4029
0.402824
0.402783
0.402783
0.402757
0.402738
0.402715
0.402705
0.402697
0.40263
0.402675
0.402768
0.402748
0.402766
0.402702
0.402416
0.402391
0.402471
0.402255
0.402325
0.402437
0.402165
0.402216
0.402313
0.402076
0.402008
0.402193
0.402257
0.402192
0.401967
0.40198
0.402081
0.40206
0.402051
0.401816
0.401869
0.402077
0.401922
0.402029
0.402129
0.402085
0.401939
0.401948
0.402015
0.401773
0.401782
0.401952
0.401834
0.401947
0.402045
0.401822
0.401827
0.402096
0.402131
0.402078
0.401889
0.401915
0.402053
0.401838
0.401907
0.402063
0.401826
0.401861
0.402106
0.402116
0.402075
0.401869
0.40193
0.402075
0.401852
0.401918
0.402095
0.401904
0.402
0.402095
0.40206
0.401953
0.401952
0.402068
0.402068
0.402017
0.382832
0.394568
0.400194
0.402217
0.402811
0.402961
0.402992
0.403002
0.403012
0.402976
0.402944
0.402963
0.402939
0.402868
0.402829
0.402831
0.402811
0.402804
0.402697
0.402739
0.402773
0.402609
0.402696
0.402756
0.402753
0.402751
0.402595
0.402511
0.402543
0.402559
0.402499
0.402315
0.402374
0.402473
0.402226
0.4023
0.402388
0.402324
0.40231
0.402122
0.402125
0.402271
0.402271
0.402227
0.402043
0.402088
0.402121
0.402054
0.402052
0.401943
0.402137
0.40264
0.402788
0.402824
0.402834
0.40284
0.402848
0.402806
0.40278
0.402785
0.402782
0.402742
0.402706
0.402657
0.402544
0.402581
0.402611
0.402556
0.402576
0.402586
0.402578
0.402534
0.402514
0.402527
0.402468
0.402267
0.402293
0.402318
0.402274
0.402146
0.402165
0.402218
0.402179
0.402168
0.402136
0.402129
0.4019
0.401949
0.402102
0.401865
0.382832
0.394568
0.400194
0.402217
0.402812
0.402962
0.402993
0.403006
0.402968
0.402933
0.402951
0.402923
0.402851
0.402812
0.402813
0.402791
0.40278
0.402672
0.402714
0.402743
0.40267
0.402614
0.40265
0.402685
0.402628
0.402446
0.402478
0.402568
0.402309
0.402368
0.402505
0.402259
0.402329
0.402457
0.402218
0.402268
0.402411
0.402257
0.402253
0.402391
0.402398
0.402333
0.40233
0.402217
0.402266
0.402282
0.402263
0.402261
0.402181
0.40201
0.402009
0.402445
0.402752
0.402779
0.402753
0.402714
0.402679
0.402683
0.402679
0.402644
0.402592
0.402604
0.402615
0.402565
0.402543
0.402527
0.402457
0.402431
0.402445
0.402322
0.402381
0.402403
0.402345
0.402164
0.402173
0.402243
0.402033
0.402111
0.402267
0.402146
0.402174
0.40219
0.402148
0.40215
0.402151
0.402133
0.401962
0.402023
0.402114
0.40186
0.382832
0.394568
0.400194
0.402216
0.402819
0.402882
0.402867
0.402879
0.402801
0.40276
0.40277
0.402791
0.402749
0.402723
0.402683
0.40265
0.402584
0.402611
0.402632
0.402582
0.40259
0.402562
0.402332
0.402299
0.402429
0.402441
0.40242
0.402506
0.402564
0.402521
0.402518
0.402425
0.402409
0.402413
0.402381
0.402089
0.402106
0.402186
0.402036
0.4021
0.402125
0.402064
0.401866
0.401838
0.401983
0.4019
0.402017
0.40209
0.402076
0.402034
0.402013
0.402394
0.402742
0.402777
0.402755
0.402716
0.402681
0.402678
0.402638
0.402618
0.402535
0.402568
0.402603
0.402594
0.402593
0.40239
0.402429
0.402476
0.402312
0.402395
0.402431
0.402411
0.402406
0.402187
0.402245
0.402343
0.402302
0.402297
0.402173
0.402172
0.402162
0.402026
0.402103
0.402203
0.401963
0.402046
0.402169
0.402174
0.402173
0.401896
0.382822
0.394584
0.400244
0.401963
0.40215
0.402118
0.402064
0.401972
0.402121
0.40229
0.402245
0.402123
0.402065
0.402212
0.402317
0.402294
0.402314
0.402206
0.402196
0.402423
0.402346
0.402489
0.402628
0.402429
0.402531
0.40261
0.402376
0.402444
0.402561
0.402523
0.402509
0.40228
0.402356
0.402468
0.402225
0.402234
0.402393
0.402426
0.402426
0.402386
0.402391
0.402404
0.402353
0.402317
0.402285
0.402278
0.402268
0.402141
0.402089
0.402002
0.401954
0.401906
0.401895
0.401756
0.401846
0.402018
0.401825
0.40179
0.402001
0.402122
0.402067
0.401919
0.401854
0.402102
0.402193
0.402181
0.402179
0.402083
0.402
0.402121
0.402265
0.402391
0.402391
0.402274
0.402299
0.402246
0.402222
0.402215
0.402066
0.402056
0.402152
0.402024
0.402046
0.402275
0.402295
0.402239
0.402043
0.402082
0.402129
0.401865
0.382859
0.394508
0.40025
0.4021
0.40229
0.402189
0.402302
0.40239
0.402253
0.402247
0.402236
0.402091
0.402144
0.402329
0.402348
0.402305
0.402061
0.402133
0.402369
0.402278
0.402388
0.402453
0.402386
0.402378
0.402272
0.402368
0.402494
0.402233
0.402279
0.402438
0.402211
0.402239
0.402438
0.402435
0.40239
0.40221
0.402284
0.402333
0.402269
0.402117
0.402036
0.402063
0.402118
0.402076
0.401982
0.402007
0.401961
0.401839
0.401913
0.402126
0.401947
0.402048
0.402177
0.402068
0.402006
0.402185
0.402406
0.402311
0.402383
0.402407
0.402368
0.402263
0.402316
0.402342
0.402264
0.40226
0.402272
0.402297
0.402191
0.402154
0.402168
0.40216
0.402043
0.401958
0.402105
0.40221
0.402151
0.401983
0.401938
0.40202
0.401903
0.402002
0.402061
0.401991
0.401982
0.401886
0.401976
0.40207
0.402021
0.40186
0.382859
0.394511
0.400239
0.402133
0.402324
0.402194
0.402299
0.402394
0.402256
0.402269
0.402257
0.402095
0.402132
0.402349
0.40236
0.402303
0.402069
0.402081
0.402413
0.402468
0.402418
0.402234
0.402292
0.402434
0.40219
0.402254
0.402439
0.402209
0.402269
0.402438
0.402213
0.402292
0.402394
0.402374
0.402363
0.402108
0.402157
0.40226
0.402216
0.402145
0.402042
0.402002
0.401828
0.401909
0.402041
0.402037
0.402035
0.401842
0.401905
0.402437
0.402533
0.402395
0.40246
0.402545
0.402487
0.402483
0.402356
0.402412
0.40247
0.402444
0.402442
0.40238
0.402381
0.402292
0.402346
0.402366
0.402344
0.402363
0.402333
0.402282
0.402086
0.402139
0.402205
0.402167
0.402156
0.402126
0.40212
0.401891
0.4019
0.402051
0.40197
0.401982
0.401973
0.401976
0.401833
0.40192
0.402087
0.402089
0.402088
0.401826
0.382832
0.394568
0.400193
0.402217
0.40281
0.402959
0.402993
0.403002
0.402998
0.402963
0.402938
0.402958
0.402931
0.402857
0.402818
0.402819
0.402798
0.402731
0.402694
0.402639
0.402694
0.402723
0.402622
0.402618
0.402599
0.40241
0.402447
0.402535
0.402275
0.402342
0.402493
0.402298
0.402252
0.402348
0.402364
0.402269
0.402367
0.402458
0.402239
0.402317
0.402443
0.402319
0.402386
0.402467
0.402447
0.40247
0.402433
0.402354
0.402307
0.402246
0.402136
0.401976
0.402122
0.402411
0.402286
0.402388
0.402441
0.402337
0.402329
0.402317
0.402324
0.402266
0.402266
0.402264
0.402147
0.402205
0.402236
0.402074
0.402148
0.402243
0.402233
0.402227
0.402055
0.401957
0.402103
0.40221
0.402167
0.402094
0.401942
0.402087
0.402249
0.402158
0.402165
0.402168
0.402167
0.402
0.402056
0.402176
0.402127
0.40195
0.382851
0.394544
0.400153
0.40219
0.4028
0.402956
0.402992
0.402999
0.40301
0.402973
0.40294
0.402957
0.402929
0.402855
0.402815
0.402816
0.402792
0.402774
0.40275
0.40273
0.402719
0.402654
0.402693
0.40278
0.402755
0.40276
0.402709
0.40267
0.40259
0.40233
0.402367
0.402482
0.402353
0.402255
0.402382
0.402493
0.402486
0.402481
0.402262
0.40233
0.402433
0.402278
0.402262
0.402288
0.402328
0.402305
0.402207
0.402254
0.40229
0.40228
0.402278
0.402144
0.402052
0.402141
0.402216
0.402326
0.402355
0.402193
0.402159
0.402384
0.402503
0.4024
0.402456
0.402537
0.402515
0.402513
0.402444
0.402327
0.402307
0.402324
0.402253
0.402305
0.40233
0.402303
0.402297
0.402071
0.402117
0.402184
0.402186
0.402186
0.401942
0.402024
0.402164
0.401939
0.402027
0.402154
0.401914
0.401984
0.402128
0.401874
0.382851
0.394545
0.400145
0.402253
0.402525
0.402519
0.402516
0.402315
0.402402
0.402486
0.4023
0.402372
0.402405
0.402222
0.402303
0.40235
0.402194
0.40214
0.402323
0.40246
0.402413
0.402238
0.40225
0.402365
0.402148
0.402217
0.402407
0.402184
0.402262
0.402392
0.40237
0.402384
0.402286
0.402355
0.402383
0.402318
0.40207
0.402083
0.402171
0.401923
0.401972
0.402133
0.40193
0.402018
0.402101
0.402077
0.402009
0.402025
0.402129
0.402116
0.402112
0.40195
0.401914
0.402227
0.402432
0.402296
0.402377
0.402475
0.402431
0.402285
0.402288
0.402375
0.402291
0.402375
0.402477
0.402427
0.402437
0.402424
0.402211
0.402245
0.402335
0.40221
0.402222
0.402218
0.402194
0.402201
0.402203
0.402028
0.402117
0.402211
0.402165
0.402083
0.4021
0.40214
0.401921
0.402015
0.402211
0.402178
0.402136
0.401891
0.382832
0.394568
0.400194
0.402216
0.402808
0.402957
0.40299
0.402999
0.402997
0.402962
0.402937
0.402952
0.402924
0.402849
0.402809
0.402811
0.40274
0.402736
0.402762
0.40276
0.402778
0.402756
0.402685
0.402438
0.402467
0.402546
0.402319
0.402401
0.40249
0.40244
0.402333
0.402289
0.402295
0.402075
0.402131
0.40228
0.402046
0.402119
0.402272
0.402041
0.402124
0.402275
0.402055
0.402144
0.402273
0.402094
0.402175
0.402288
0.402186
0.402243
0.402258
0.402204
0.402082
0.402031
0.402181
0.402291
0.402247
0.402092
0.402169
0.402317
0.402285
0.402174
0.402215
0.402291
0.402087
0.402178
0.40225
0.402081
0.402187
0.402273
0.402259
0.402254
0.402089
0.401984
0.40208
0.402197
0.40214
0.401982
0.401904
0.402089
0.402161
0.402106
0.401914
0.401906
0.40204
0.401978
0.402068
0.402116
0.40206
0.401872
0.382803
0.394633
0.400247
0.401902
0.402007
0.401978
0.401887
0.401949
0.402104
0.402087
0.402085
0.401919
0.401925
0.402333
0.40264
0.402637
0.402651
0.402575
0.402644
0.402664
0.402552
0.402614
0.40265
0.402638
0.402633
0.402361
0.40236
0.402442
0.402229
0.402305
0.402468
0.402318
0.402254
0.402315
0.402321
0.402443
0.402518
0.402298
0.402384
0.402464
0.402336
0.402323
0.402239
0.402319
0.402359
0.402298
0.402096
0.402101
0.402147
0.401919
0.401982
0.402132
0.401992
0.402063
0.402089
0.402047
0.401926
0.401971
0.402075
0.402035