/*--------------------------------*- C++ -*----------------------------------*\
  =========                 |
  \\      /  F ield         | OpenFOAM: The Open Source CFD Toolbox
   \\    /   O peration     | Website:  https://openfoam.org
    \\  /    A nd           | Version:  11
     \\/     M anipulation  |
\*---------------------------------------------------------------------------*/
FoamFile
{
    format      ascii;
    class       volScalarField;
    location    "0.032";
    object      nut;
}
// * * * * * * * * * * * * * * * * * * * * * * * * * * * * * * * * * * * * * //

dimensions      [0 2 -1 0 0 0 0];

internalField   nonuniform List<scalar> 
287084
(
0.000839376
0.000866288
0.000879868
0.000884383
0.000884992
0.000885075
0.000884924
0.000884828
0.000885203
0.000885495
0.000885409
0.000885249
0.000884833
0.000884715
0.000885026
0.000884843
0.000885066
0.000885356
0.000884971
0.000885126
0.000885189
0.000884947
0.000884979
0.000884853
0.000884581
0.00088441
0.000884659
0.000884901
0.00088478
0.000884333
0.000884495
0.000884853
0.000884393
0.0008846
0.000885037
0.000885104
0.000885131
0.000885137
0.00088532
0.000885096
0.000885416
0.000885742
0.00088528
0.000885507
0.000885916
0.000885434
0.000885535
0.000886135
0.000886212
0.000886174
0.000886264
0.000886232
0.000886005
0.000885919
0.000885686
0.000885929
0.00088614
0.000886094
0.000885949
0.000885978
0.000886252
0.000885793
0.000885958
0.000886264
0.000886136
0.000886116
0.000885726
0.000885968
0.000886208
0.000886126
0.000886043
0.000885891
0.000886089
0.000886134
0.000886217
0.000886238
0.000886132
0.000885829
0.000886001
0.000886167
0.000886175
0.000886148
0.00088566
0.000885605
0.000885736
0.000885453
0.00088569
0.000885996
0.000885934
0.000885714
0.00118631
0.00122299
0.00124126
0.00124712
0.00124767
0.00124768
0.00124762
0.00124759
0.00124776
0.00124767
0.00124746
0.0012469
0.001247
0.00124724
0.00124636
0.00124642
0.00124687
0.00124667
0.00124631
0.00124653
0.00124735
0.00124709
0.00124707
0.00124725
0.00124721
0.00124661
0.0012469
0.00124713
0.00124648
0.00124678
0.00124703
0.00124634
0.00124666
0.00124727
0.00124664
0.00124682
0.00124747
0.0012474
0.00124786
0.00124816
0.00124812
0.00124784
0.00124781
0.00124846
0.00124868
0.00124859
0.00124796
0.0012481
0.00124851
0.00124781
0.00124783
0.00124857
0.00124887
0.00124875
0.00124824
0.00124855
0.00124899
0.00124836
0.00124867
0.00124901
0.00124892
0.00124867
0.0012487
0.00124897
0.00124846
0.00124872
0.00124904
0.00124889
0.00124848
0.00124866
0.00124918
0.00124916
0.00124914
0.00124844
0.00124865
0.00124913
0.00124867
0.00124884
0.00124889
0.00124879
0.00124882
0.00124868
0.00124821
0.0012483
0.00124841
0.00124827
0.00124791
0.0012481
0.00124863
0.00124785
0.00118638
0.00122313
0.00124142
0.00124712
0.00124742
0.00124785
0.00124819
0.0012476
0.00124781
0.0012483
0.00124814
0.00124794
0.00124769
0.00124718
0.00124711
0.00124736
0.00124731
0.00124723
0.00124647
0.00124642
0.00124688
0.00124671
0.00124697
0.00124719
0.00124711
0.00124709
0.00124661
0.00124683
0.00124712
0.00124648
0.00124685
0.00124742
0.00124682
0.00124722
0.00124786
0.00124733
0.0012478
0.00124842
0.00124807
0.00124818
0.00124834
0.00124838
0.00124855
0.00124878
0.00124882
0.00124862
0.00124885
0.00124907
0.00124906
0.00124909
0.00124851
0.00124868
0.00124889
0.00124843
0.00124878
0.00124912
0.00124834
0.00124856
0.00124897
0.00124892
0.0012489
0.00124872
0.00124895
0.00124869
0.00124904
0.00124923
0.0012491
0.00124875
0.00124887
0.0012491
0.00124865
0.00124859
0.00124823
0.00124853
0.00124878
0.00124811
0.00124838
0.00124905
0.00124872
0.00124876
0.00124861
0.00124884
0.00124891
0.0012483
0.00124855
0.00124882
0.00124807
0.00124832
0.00124856
0.00124779
0.00118639
0.00122334
0.00124141
0.00124752
0.00124818
0.00124861
0.00124868
0.00124836
0.00124826
0.00124826
0.00124823
0.00124802
0.00124776
0.00124744
0.0012477
0.00124771
0.00124743
0.00124671
0.00124673
0.00124715
0.00124675
0.00124664
0.00124643
0.00124641
0.00124635
0.00124636
0.00124592
0.00124615
0.00124698
0.00124709
0.00124712
0.00124643
0.00124667
0.00124725
0.00124669
0.00124696
0.00124764
0.00124733
0.00124778
0.00124838
0.00124816
0.0012482
0.00124832
0.00124841
0.00124853
0.00124863
0.00124814
0.00124816
0.00124852
0.00124861
0.00124866
0.00124851
0.00124851
0.00124818
0.0012486
0.0012491
0.00124846
0.00124876
0.0012491
0.00124889
0.00124886
0.00124853
0.00124902
0.0012494
0.00124933
0.00124923
0.00124919
0.00124925
0.0012492
0.00124917
0.00124861
0.00124882
0.00124905
0.00124852
0.00124879
0.0012494
0.00124937
0.00124938
0.00124926
0.00124904
0.00124833
0.00124854
0.00124887
0.00124885
0.00124884
0.00124813
0.00124838
0.00124864
0.00124852
0.00124814
0.0011864
0.00122338
0.00124149
0.00124769
0.00124849
0.00124837
0.001248
0.00124815
0.00124837
0.00124774
0.00124791
0.00124793
0.00124765
0.00124753
0.00124724
0.00124724
0.001247
0.00124658
0.00124633
0.00124639
0.0012463
0.00124678
0.00124719
0.00124669
0.00124665
0.00124663
0.00124624
0.00124652
0.00124698
0.00124629
0.00124632
0.00124686
0.00124678
0.00124732
0.00124793
0.00124758
0.00124802
0.00124832
0.00124844
0.00124859
0.00124798
0.00124826
0.00124861
0.0012487
0.00124879
0.00124821
0.00124855
0.00124885
0.00124831
0.00124868
0.00124907
0.0012483
0.00124842
0.00124894
0.00124845
0.00124874
0.00124924
0.00124886
0.00124886
0.00124885
0.00124845
0.0012487
0.00124919
0.00124845
0.00124869
0.00124907
0.00124833
0.00124847
0.00124899
0.00124841
0.00124866
0.00124914
0.00124903
0.00124901
0.00124848
0.00124878
0.00124906
0.00124866
0.0012487
0.00124855
0.00124814
0.00124846
0.00124893
0.00124834
0.00124866
0.00124891
0.0012483
0.00124862
0.00124889
0.00124802
0.00118637
0.00122354
0.00124149
0.00124695
0.00124737
0.00124685
0.00124711
0.00124765
0.00124758
0.00124751
0.00124672
0.00124685
0.00124754
0.00124698
0.00124723
0.00124751
0.00124703
0.00124702
0.00124674
0.00124654
0.00124644
0.00124598
0.00124618
0.00124655
0.00124576
0.00124579
0.00124647
0.00124656
0.0012466
0.00124624
0.00124664
0.00124737
0.00124723
0.00124737
0.0012474
0.00124705
0.0012474
0.00124789
0.00124725
0.00124759
0.00124826
0.00124772
0.0012481
0.00124877
0.00124819
0.00124855
0.00124916
0.00124878
0.00124882
0.00124886
0.00124851
0.00124875
0.0012492
0.00124923
0.00124923
0.00124861
0.0012484
0.00124885
0.00124904
0.00124885
0.0012484
0.00124819
0.00124881
0.0012492
0.00124914
0.00124912
0.00124886
0.00124858
0.00124864
0.0012486
0.00124908
0.00124937
0.0012488
0.00124906
0.00124921
0.0012485
0.00124876
0.0012491
0.0012484
0.00124862
0.00124901
0.00124852
0.00124883
0.00124903
0.00124897
0.0012489
0.00124891
0.00124899
0.0012488
0.00124813
0.00118629
0.00122371
0.00124149
0.0012472
0.0012477
0.00124708
0.00124734
0.00124756
0.00124717
0.0012469
0.00124713
0.00124893
0.00124902
0.00124857
0.0012485
0.00124858
0.00124844
0.00124826
0.00124814
0.00124785
0.00124768
0.00124757
0.00124707
0.00124714
0.00124721
0.00124705
0.00124657
0.00124658
0.0012469
0.00124698
0.0012469
0.00124715
0.00124754
0.00124696
0.00124738
0.00124804
0.00124755
0.00124799
0.0012486
0.00124865
0.00124879
0.00124839
0.00124883
0.00124923
0.00124907
0.00124921
0.0012491
0.00124911
0.00124902
0.00124906
0.00124882
0.00124906
0.0012492
0.00124842
0.00124849
0.00124914
0.00124917
0.00124904
0.00124831
0.00124827
0.00124866
0.00124823
0.00124857
0.0012489
0.00124884
0.00124883
0.00124843
0.00124836
0.00124808
0.00124846
0.00124876
0.00124806
0.0012482
0.00124884
0.00124882
0.00124879
0.00124815
0.00124839
0.00124898
0.00124854
0.00124882
0.00124894
0.00124836
0.00124861
0.00124893
0.00124888
0.00124887
0.00124872
0.00124866
0.00124796
0.0011864
0.00122349
0.00124142
0.00124793
0.00124979
0.00125021
0.00125026
0.00125006
0.00124987
0.00124978
0.00124957
0.00124937
0.00124927
0.00124906
0.00124884
0.00124858
0.00124836
0.00124819
0.001248
0.00124772
0.00124753
0.00124742
0.00124695
0.00124703
0.00124713
0.00124695
0.0012466
0.00124651
0.00124665
0.00124623
0.00124668
0.00124733
0.00124678
0.00124723
0.0012479
0.00124755
0.00124763
0.00124857
0.00124905
0.00124915
0.0012493
0.00124894
0.00124935
0.0012497
0.00124948
0.00124945
0.00124967
0.00124999
0.00125001
0.00125013
0.00125008
0.00125004
0.0012499
0.00124974
0.00124943
0.00124919
0.00124909
0.00124907
0.00124891
0.00124862
0.00124911
0.00124945
0.0012492
0.00124924
0.00124921
0.00124862
0.00124882
0.00124911
0.00124866
0.00124873
0.00124856
0.00124842
0.00124798
0.001248
0.00124895
0.0012491
0.00124894
0.00124869
0.00124818
0.00124862
0.00124912
0.00124883
0.00124886
0.00124886
0.00124885
0.00124832
0.00124848
0.00124884
0.00124868
0.00124811
0.00118634
0.00122365
0.00124155
0.00124724
0.00124791
0.00124774
0.00124767
0.00124757
0.00124712
0.0012472
0.00124886
0.00124906
0.00124873
0.00124858
0.0012485
0.00124845
0.00124824
0.00124806
0.00124786
0.00124763
0.00124735
0.00124716
0.00124704
0.00124698
0.00124687
0.00124682
0.00124628
0.00124637
0.00124672
0.00124621
0.00124665
0.0012473
0.00124676
0.00124722
0.00124791
0.00124757
0.00124765
0.00124856
0.00124917
0.00124922
0.00124935
0.00124941
0.00124957
0.00124965
0.00124975
0.00124973
0.00124957
0.00124881
0.00124894
0.00124916
0.00124841
0.00124866
0.00124897
0.00124822
0.00124819
0.00124901
0.00124919
0.001249
0.0012485
0.00124829
0.00124886
0.00124909
0.00124894
0.00124872
0.00124832
0.00124878
0.00124925
0.00124893
0.0012491
0.00124916
0.00124898
0.00124839
0.00124841
0.00124903
0.001249
0.00124901
0.00124917
0.00124921
0.00124908
0.00124907
0.0012486
0.00124881
0.00124918
0.00124896
0.00124906
0.00124891
0.00124826
0.00124823
0.00124844
0.00124782
0.00118626
0.00122378
0.00124164
0.00124666
0.00124781
0.00124768
0.0012471
0.0012469
0.00124764
0.00124789
0.00124763
0.00124719
0.00124674
0.00124723
0.00124742
0.0012471
0.0012465
0.00124619
0.00124632
0.00124598
0.00124625
0.00124639
0.00124568
0.00124557
0.00124623
0.00124635
0.00124597
0.00124638
0.0012468
0.00124613
0.0012465
0.0012472
0.00124734
0.00124746
0.00124751
0.00124763
0.00124784
0.00124774
0.00124805
0.00124836
0.00124769
0.00124801
0.00124861
0.001248
0.00124833
0.00124882
0.00124813
0.0012483
0.00124888
0.00124857
0.00124858
0.00124857
0.00124857
0.00124816
0.00124843
0.00124893
0.00124817
0.00124827
0.00124889
0.00124906
0.00124892
0.00124811
0.00124819
0.00124874
0.00124872
0.00124853
0.00124868
0.00124891
0.00124847
0.00124847
0.00124843
0.00124801
0.00124823
0.00124868
0.00124791
0.00124796
0.00124869
0.00124875
0.0012486
0.00124792
0.00124803
0.00124866
0.0012488
0.00124866
0.00124841
0.00124811
0.00124835
0.0012489
0.00124877
0.00124827
0.00118634
0.00122359
0.00124169
0.00124739
0.00124812
0.00124793
0.00124743
0.00124714
0.0012477
0.00124787
0.00124768
0.00124741
0.00124763
0.00124783
0.00124712
0.0012472
0.00124757
0.00124748
0.0012472
0.00124681
0.00124629
0.00124623
0.0012465
0.0012463
0.00124583
0.00124568
0.00124597
0.00124612
0.00124624
0.00124592
0.00124646
0.00124723
0.00124722
0.00124744
0.00124755
0.00124725
0.00124762
0.0012481
0.00124751
0.00124788
0.00124856
0.00124804
0.00124843
0.00124909
0.00124851
0.00124882
0.00124951
0.00124954
0.00124952
0.00124879
0.00124899
0.00124929
0.00124854
0.0012487
0.00124918
0.00124906
0.00124905
0.00124864
0.0012488
0.0012489
0.00124871
0.00124819
0.0012483
0.00124883
0.00124882
0.00124879
0.00124807
0.00124812
0.00124886
0.00124876
0.00124875
0.00124868
0.00124907
0.00124926
0.00124863
0.00124891
0.00124926
0.0012488
0.00124904
0.00124918
0.00124874
0.00124904
0.00124916
0.00124834
0.00124852
0.00124889
0.00124842
0.00124842
0.00124838
0.0012479
0.00118632
0.00122366
0.00124155
0.00124755
0.00124824
0.0012481
0.00124801
0.00124792
0.00124748
0.00124732
0.00124859
0.00124908
0.00124866
0.00124872
0.00124864
0.00124839
0.00124827
0.00124796
0.00124734
0.00124733
0.00124727
0.0012467
0.0012469
0.00124702
0.0012468
0.00124641
0.00124611
0.00124609
0.00124569
0.00124613
0.00124666
0.00124609
0.00124653
0.00124725
0.00124675
0.00124721
0.00124797
0.00124752
0.00124799
0.00124872
0.00124821
0.00124864
0.00124928
0.00124894
0.00124902
0.00124909
0.00124875
0.00124904
0.00124934
0.00124937
0.00124938
0.0012492
0.00124881
0.00124885
0.00124914
0.0012487
0.00124889
0.00124893
0.00124839
0.00124849
0.00124922
0.00124923
0.00124912
0.00124903
0.00124893
0.00124875
0.00124828
0.00124852
0.00124919
0.00124908
0.00124893
0.00124819
0.00124835
0.00124878
0.00124871
0.00124868
0.00124797
0.00124824
0.00124894
0.00124875
0.00124872
0.00124827
0.00124857
0.00124876
0.00124857
0.00124854
0.00124815
0.00124853
0.00124877
0.00124795
0.0011864
0.00122351
0.00124145
0.00124796
0.00124984
0.00125012
0.00125001
0.00124997
0.00124955
0.00124942
0.00124936
0.00124905
0.00124891
0.00124876
0.00124864
0.00124833
0.00124807
0.00124797
0.00124771
0.0012475
0.00124728
0.00124683
0.00124661
0.0012467
0.00124669
0.00124662
0.00124598
0.00124612
0.00124652
0.00124598
0.00124648
0.00124716
0.00124705
0.00124713
0.0012479
0.00124852
0.00124881
0.00124908
0.00124866
0.0012491
0.0012496
0.00124958
0.0012497
0.00124942
0.00124979
0.00125004
0.0012499
0.00124993
0.00124975
0.00124972
0.00124963
0.00124956
0.001249
0.00124916
0.00124955
0.00124948
0.00124944
0.00124876
0.00124906
0.00124955
0.00124946
0.00124941
0.00124875
0.00124904
0.0012494
0.00124866
0.00124889
0.00124918
0.00124873
0.00124878
0.0012486
0.00124845
0.00124801
0.00124802
0.00124897
0.00124912
0.00124892
0.00124851
0.00124821
0.00124866
0.00124885
0.00124871
0.00124853
0.00124814
0.00124859
0.00124911
0.00124883
0.00124889
0.00124881
0.00124809
0.00118628
0.00122372
0.00124172
0.00124692
0.00124728
0.00124694
0.00124729
0.00124786
0.00124739
0.00124732
0.00124717
0.00124661
0.00124661
0.00124699
0.00124666
0.00124666
0.00124654
0.00124601
0.00124582
0.00124624
0.00124588
0.00124612
0.00124651
0.00124603
0.00124619
0.00124626
0.00124609
0.00124618
0.00124628
0.00124597
0.00124641
0.00124712
0.00124704
0.00124712
0.00124789
0.00124857
0.00124868
0.00124891
0.00124921
0.00124954
0.00124957
0.00124961
0.00124978
0.00125
0.00125
0.00125011
0.00125001
0.00124962
0.0012492
0.00124909
0.00124891
0.00124932
0.00124959
0.00124953
0.00124949
0.00124881
0.00124897
0.00124933
0.00124925
0.0012492
0.00124855
0.00124875
0.00124927
0.00124882
0.00124875
0.00124848
0.0012488
0.00124901
0.00124883
0.00124878
0.00124823
0.00124842
0.00124908
0.0012486
0.00124888
0.00124938
0.00124895
0.00124922
0.00124935
0.00124915
0.00124912
0.00124905
0.00124901
0.00124843
0.0012486
0.00124908
0.00124905
0.00124904
0.00124884
0.00124822
0.0011864
0.00122351
0.00124145
0.00124796
0.00124983
0.00125024
0.00125027
0.00125005
0.00124985
0.00124975
0.00124947
0.00124922
0.00124907
0.00124883
0.0012484
0.00124807
0.0012479
0.00124751
0.0012474
0.00124728
0.0012469
0.00124665
0.00124666
0.00124665
0.00124641
0.00124583
0.00124574
0.00124593
0.00124584
0.0012461
0.00124633
0.00124616
0.00124668
0.00124733
0.00124685
0.00124734
0.00124814
0.00124772
0.00124823
0.00124897
0.00124847
0.00124892
0.00124955
0.00124948
0.00124954
0.00124908
0.00124938
0.00124982
0.00124959
0.00124957
0.00124965
0.00124962
0.00124964
0.00124971
0.00124954
0.00124935
0.00124881
0.00124934
0.00124994
0.00124958
0.00124977
0.00125003
0.00124981
0.00124979
0.00124968
0.0012489
0.00124898
0.0012492
0.00124873
0.00124879
0.00124861
0.00124846
0.00124802
0.00124803
0.00124897
0.00124912
0.00124892
0.00124852
0.00124821
0.00124866
0.00124885
0.00124867
0.00124807
0.00124803
0.00124845
0.00124825
0.00124852
0.00124867
0.00124848
0.00124787
0.00118649
0.00122333
0.00124159
0.00124771
0.00124832
0.00124788
0.00124814
0.00124831
0.00124781
0.0012478
0.00124784
0.00124757
0.00124687
0.00124692
0.0012471
0.00124674
0.00124615
0.00124575
0.0012458
0.00124563
0.00124552
0.00124531
0.0012456
0.00124569
0.00124508
0.00124535
0.00124581
0.00124514
0.0012453
0.00124624
0.00124661
0.00124661
0.00124723
0.00124775
0.00124763
0.00124804
0.00124815
0.00124835
0.00124857
0.00124826
0.00124862
0.00124912
0.00124847
0.00124862
0.00124922
0.00124882
0.00124907
0.00124991
0.00124989
0.00124978
0.00124982
0.00124964
0.00124907
0.00124932
0.00125073
0.00125087
0.00125079
0.00125086
0.00125072
0.00125055
0.00125032
0.00125012
0.00125024
0.00125026
0.00125001
0.00124997
0.00124985
0.00124913
0.00124918
0.00124934
0.00124854
0.00124875
0.00124907
0.00124894
0.00124891
0.00124851
0.0012487
0.00124875
0.00124823
0.00124846
0.00124906
0.00124907
0.00124905
0.00124835
0.00124859
0.00124892
0.00124859
0.00124863
0.00124858
0.00124802
0.00118646
0.00122343
0.00124132
0.00124788
0.00124978
0.00125022
0.00125024
0.00125018
0.00124992
0.00124967
0.00124957
0.00124932
0.0012489
0.00124859
0.00124838
0.00124809
0.00124783
0.00124727
0.00124716
0.00124703
0.00124615
0.00124618
0.00124626
0.00124609
0.00124588
0.00124588
0.00124598
0.00124527
0.00124562
0.00124621
0.00124652
0.00124686
0.00124635
0.00124688
0.00124749
0.00124787
0.00124822
0.00124767
0.00124809
0.00124879
0.00124827
0.00124863
0.00124931
0.00124943
0.00124951
0.00124881
0.00124901
0.00124961
0.00124958
0.00124956
0.00124956
0.00124954
0.001249
0.00124953
0.00125042
0.00125006
0.00125032
0.00125042
0.00124998
0.00125019
0.00125023
0.00124981
0.00124986
0.00124984
0.0012497
0.00124967
0.00124946
0.00124883
0.00124896
0.00124913
0.00124882
0.00124886
0.00124879
0.00124861
0.00124798
0.00124799
0.00124866
0.00124876
0.00124877
0.00124869
0.00124828
0.00124845
0.00124896
0.00124857
0.0012488
0.00124889
0.0012485
0.00124881
0.00124895
0.00124806
0.0011864
0.00122351
0.00124144
0.00124796
0.00124982
0.00125023
0.00125024
0.00125016
0.00125004
0.00124979
0.00124954
0.00124942
0.00124915
0.00124872
0.00124838
0.00124816
0.00124787
0.00124743
0.00124709
0.0012467
0.00124667
0.00124658
0.00124613
0.00124601
0.0012459
0.00124531
0.00124539
0.00124577
0.00124536
0.0012459
0.00124645
0.00124602
0.00124662
0.00124736
0.00124694
0.00124749
0.00124832
0.00124793
0.00124846
0.00124922
0.00124873
0.00124913
0.00124984
0.00124958
0.00124962
0.00124965
0.00124976
0.00124976
0.00124975
0.00124961
0.00124962
0.0012494
0.00124983
0.00125057
0.00125016
0.00125041
0.0012505
0.00125031
0.0012502
0.00125019
0.00125017
0.00124986
0.00124992
0.00124974
0.0012492
0.00124934
0.00124942
0.00124887
0.00124906
0.00124932
0.00124926
0.00124922
0.00124866
0.00124834
0.00124877
0.00124909
0.00124888
0.00124835
0.0012482
0.00124845
0.00124831
0.0012487
0.00124887
0.00124872
0.00124855
0.00124805
0.00124846
0.00124887
0.0012487
0.00124812
0.00118646
0.00122343
0.00124132
0.00124787
0.00124978
0.00125021
0.00125023
0.00125001
0.00124977
0.00124967
0.00124941
0.00124899
0.00124867
0.00124847
0.00124817
0.0012479
0.0012473
0.00124718
0.00124702
0.00124611
0.00124612
0.00124618
0.00124561
0.00124556
0.00124537
0.00124488
0.00124519
0.00124568
0.0012451
0.00124556
0.00124641
0.00124609
0.00124668
0.00124748
0.00124792
0.00124834
0.00124859
0.00124878
0.00124886
0.00124895
0.00124857
0.00124903
0.00124952
0.00124882
0.00124909
0.00124954
0.00124881
0.00124902
0.00124955
0.00124951
0.00124946
0.00124887
0.00124868
0.00124955
0.00125059
0.00125024
0.00125041
0.00125063
0.00125054
0.0012505
0.00125037
0.00125026
0.00125014
0.00125006
0.00124992
0.00124937
0.00124952
0.00124957
0.00124928
0.00124919
0.00124906
0.00124904
0.00124894
0.00124881
0.00124876
0.00124835
0.00124849
0.00124906
0.00124904
0.00124897
0.0012482
0.00124839
0.00124876
0.00124818
0.00124846
0.00124863
0.00124798
0.00124824
0.00124869
0.00124788
0.00118646
0.00122343
0.00124129
0.00124807
0.00124892
0.00124877
0.00124866
0.00124843
0.0012482
0.00124821
0.0012481
0.00124734
0.001247
0.00124712
0.00124723
0.00124689
0.00124649
0.00124594
0.00124565
0.0012452
0.0012453
0.0012462
0.00124598
0.00124573
0.00124497
0.00124503
0.0012454
0.00124483
0.00124529
0.00124596
0.00124552
0.00124613
0.00124698
0.00124663
0.00124724
0.00124812
0.00124811
0.0012485
0.00124878
0.00124855
0.00124896
0.00124946
0.00124924
0.00124927
0.00124928
0.00124947
0.00124946
0.00124934
0.00124914
0.00124978
0.00125141
0.00125186
0.00125194
0.00125194
0.00125175
0.00125158
0.00125139
0.00125122
0.00125117
0.00125088
0.00125091
0.00125091
0.00125057
0.00125055
0.00125043
0.00125015
0.00125001
0.00124997
0.00124986
0.00124982
0.00124965
0.00124915
0.00124935
0.00124945
0.0012493
0.00124888
0.00124892
0.00124908
0.00124874
0.00124869
0.00124831
0.00124846
0.00124857
0.00124805
0.00124829
0.00124875
0.00124838
0.00124838
0.00124836
0.0012479
0.00118637
0.00122356
0.0012416
0.00124719
0.00124762
0.00124745
0.00124699
0.00124713
0.00124745
0.00124655
0.00124644
0.00124684
0.00124621
0.00124633
0.00124653
0.00124616
0.0012459
0.00124549
0.00124569
0.00124549
0.0012458
0.00124608
0.00124555
0.00124551
0.00124532
0.00124484
0.00124518
0.00124571
0.00124515
0.00124563
0.00124647
0.0012462
0.00124689
0.00124779
0.00124754
0.00124825
0.00124897
0.0012492
0.00124949
0.00124918
0.00124968
0.00125005
0.00124985
0.0012499
0.00124985
0.00124993
0.00124997
0.00124983
0.00124932
0.00124944
0.00124953
0.00124887
0.00124903
0.00124949
0.00124921
0.00124914
0.001249
0.00124891
0.00124833
0.00124857
0.00124906
0.00124828
0.00124846
0.00124892
0.0012485
0.00124825
0.00124821
0.00124815
0.00124866
0.00124916
0.00124876
0.00124866
0.00124872
0.00124872
0.00124809
0.00124805
0.00124894
0.00124911
0.0012489
0.00124835
0.00124819
0.00124843
0.00124815
0.00124846
0.0012486
0.00124796
0.00124816
0.00124867
0.0012486
0.00124833
0.0011864
0.00122351
0.00124144
0.00124795
0.00124984
0.00124996
0.00124982
0.00124973
0.00124935
0.00124907
0.00124892
0.0012488
0.00124846
0.00124813
0.00124754
0.00124733
0.00124716
0.00124673
0.00124637
0.00124624
0.00124613
0.00124579
0.00124541
0.00124488
0.00124496
0.00124533
0.00124526
0.00124481
0.00124529
0.00124603
0.00124633
0.00124646
0.00124698
0.00124753
0.00124791
0.00124834
0.00124805
0.00124861
0.00124904
0.00124896
0.00124927
0.00124932
0.0012489
0.00124902
0.00124955
0.00124938
0.00124975
0.00124993
0.00124984
0.00124962
0.00124956
0.00125074
0.00125174
0.00125193
0.00125192
0.00125189
0.0012517
0.00125152
0.00125148
0.00125134
0.0012512
0.00125093
0.00125078
0.0012507
0.00125067
0.00125027
0.00125029
0.00125036
0.00125013
0.00125026
0.0012503
0.00125015
0.00124979
0.00124963
0.0012495
0.00124931
0.00124939
0.00124923
0.00124863
0.00124864
0.00124888
0.00124829
0.00124858
0.00124898
0.00124865
0.0012486
0.00124814
0.00124843
0.00124862
0.00124786
0.0011864
0.00122351
0.00124144
0.00124795
0.00124981
0.00125021
0.0012502
0.00125012
0.00124986
0.0012496
0.00124947
0.00124919
0.00124875
0.0012484
0.00124815
0.00124783
0.00124753
0.00124693
0.00124679
0.00124661
0.0012463
0.0012459
0.00124581
0.0012458
0.00124558
0.00124521
0.00124516
0.00124542
0.00124515
0.00124579
0.00124643
0.00124616
0.00124691
0.00124784
0.0012476
0.00124822
0.00124911
0.00124903
0.00124935
0.00125007
0.00125035
0.00125034
0.00125048
0.00125024
0.00125047
0.00125056
0.00125052
0.0012505
0.00125023
0.00124966
0.00124961
0.00125092
0.0012518
0.00125195
0.00125194
0.0012519
0.00125185
0.00125166
0.00125149
0.00125145
0.00125126
0.00125109
0.00125102
0.00125107
0.00125076
0.00125074
0.00125079
0.00125069
0.00125072
0.0012506
0.00125039
0.00125024
0.00125
0.00124998
0.00124975
0.00124967
0.0012496
0.00124967
0.00124948
0.0012494
0.00124932
0.00124871
0.00124884
0.00124907
0.00124833
0.00124855
0.00124901
0.00124894
0.00124886
0.00124804
0.00118634
0.00122361
0.00124171
0.00124698
0.0012472
0.00124761
0.00124792
0.00124702
0.00124709
0.00124732
0.00124693
0.00124643
0.00124621
0.00124765
0.001248
0.00124738
0.00124726
0.00124735
0.00124701
0.00124661
0.00124596
0.00124594
0.0012459
0.00124501
0.00124518
0.00124549
0.00124521
0.00124534
0.00124553
0.00124586
0.00124565
0.0012463
0.00124706
0.00124671
0.00124734
0.00124823
0.00124829
0.00124839
0.00124923
0.00124993
0.00124999
0.00125021
0.00125017
0.00125023
0.00125026
0.00125034
0.00125032
0.00125021
0.00125023
0.00125021
0.00124959
0.00124968
0.00124968
0.00124923
0.00124902
0.00124971
0.00125029
0.0012499
0.0012498
0.00124967
0.00124963
0.00124939
0.0012496
0.0012498
0.00124953
0.0012495
0.00124927
0.00124942
0.00124954
0.00124948
0.00124943
0.00124886
0.00124854
0.0012489
0.00124918
0.00124908
0.00124879
0.0012491
0.00124933
0.00124856
0.00124878
0.00124902
0.00124829
0.0012485
0.00124868
0.00124855
0.00124819
0.00124822
0.00124858
0.00124786
0.0011864
0.00122351
0.00124142
0.00124806
0.00124931
0.00124902
0.00124909
0.00124909
0.00124887
0.00124883
0.00124854
0.00124821
0.00124785
0.00124735
0.00124713
0.00124688
0.0012462
0.00124612
0.00124602
0.00124562
0.00124495
0.00124481
0.00124509
0.00124497
0.00124485
0.00124506
0.00124535
0.00124467
0.0012451
0.00124583
0.00124615
0.00124627
0.00124682
0.00124738
0.00124776
0.00124818
0.00124768
0.00124807
0.00124882
0.00124848
0.00124896
0.00124952
0.00124889
0.00124921
0.0012497
0.00124897
0.00124903
0.00124954
0.00124908
0.0012493
0.00124962
0.00124955
0.00124948
0.00124877
0.0012489
0.00124941
0.00124932
0.00124914
0.00124921
0.00124934
0.00124916
0.00124894
0.00124867
0.00124867
0.00124813
0.00124834
0.00124889
0.00124815
0.00124834
0.00124878
0.00124868
0.00124841
0.00124845
0.00124881
0.00124844
0.00124844
0.00124841
0.00124838
0.00124786
0.00124799
0.0012488
0.00124886
0.00124867
0.00124793
0.00124812
0.00124857
0.00124781
0.00124802
0.00124853
0.00124775
0.0011864
0.00122351
0.00124144
0.00124795
0.00124981
0.00125021
0.00125007
0.00124984
0.00124974
0.00124948
0.00124907
0.00124874
0.00124852
0.00124821
0.0012479
0.00124757
0.00124726
0.00124696
0.00124648
0.00124636
0.0012464
0.00124613
0.00124602
0.00124571
0.00124477
0.00124474
0.00124509
0.00124463
0.00124514
0.00124586
0.00124545
0.00124608
0.00124689
0.00124667
0.00124696
0.00124802
0.00124867
0.00124887
0.00124852
0.00124885
0.00124941
0.00124954
0.00124967
0.00124904
0.00124928
0.00124996
0.0012495
0.00124982
0.00125011
0.00124993
0.00124943
0.0012494
0.00124955
0.00124873
0.00124869
0.00124915
0.00124872
0.00124901
0.00124925
0.00124849
0.00124845
0.00124923
0.00124929
0.00124908
0.00124844
0.00124848
0.00124887
0.00124816
0.00124834
0.0012488
0.00124803
0.00124811
0.00124884
0.00124885
0.0012487
0.00124804
0.00124821
0.00124865
0.00124794
0.00124813
0.00124866
0.00124806
0.00124835
0.00124864
0.00124852
0.00124818
0.00124817
0.00124853
0.00124852
0.00124833
0.0011864
0.00122351
0.00124144
0.00124795
0.0012498
0.0012502
0.0012502
0.00125011
0.00125
0.00124972
0.00124944
0.0012493
0.00124901
0.00124856
0.00124819
0.00124794
0.0012476
0.00124731
0.00124671
0.00124658
0.00124644
0.00124572
0.00124582
0.00124589
0.00124584
0.00124587
0.0012455
0.00124544
0.00124583
0.00124625
0.00124649
0.00124639
0.00124708
0.0012479
0.00124763
0.00124835
0.00124906
0.00124926
0.00124957
0.00124928
0.00124954
0.00125018
0.00125034
0.00125031
0.0012498
0.00124999
0.0012501
0.00124989
0.00124986
0.00124948
0.00125003
0.00125154
0.00125194
0.00125199
0.00125196
0.0012519
0.00125186
0.00125167
0.00125153
0.00125148
0.00125142
0.00125124
0.00125107
0.00125087
0.00125048
0.00125055
0.0012506
0.0012504
0.00125042
0.00125042
0.00125036
0.0012502
0.00125011
0.00125013
0.00124992
0.00124928
0.00124934
0.0012494
0.00124925
0.00124884
0.00124888
0.00124904
0.0012489
0.00124886
0.00124875
0.00124873
0.00124801
0.00124816
0.00124862
0.00124786
0.0011864
0.00122351
0.00124144
0.00124795
0.00124981
0.00125021
0.0012502
0.00125013
0.00124987
0.0012496
0.00124947
0.00124919
0.00124876
0.0012484
0.00124816
0.00124783
0.00124754
0.00124693
0.00124679
0.00124662
0.00124616
0.00124578
0.00124572
0.00124572
0.0012455
0.00124497
0.00124518
0.00124565
0.00124514
0.00124567
0.00124652
0.00124622
0.00124694
0.00124784
0.0012476
0.00124822
0.00124911
0.00124903
0.00124936
0.00125009
0.00125035
0.00125034
0.00125048
0.00125024
0.00125047
0.00125056
0.00125052
0.0012505
0.00125023
0.00124966
0.00124962
0.00125092
0.00125181
0.00125183
0.00125169
0.0012515
0.00125133
0.00125128
0.00125121
0.00125104
0.00125082
0.0012508
0.00125079
0.00125058
0.00125047
0.00125038
0.00125012
0.00125
0.00125001
0.0012496
0.00124975
0.00124979
0.00124959
0.001249
0.00124901
0.0012492
0.00124853
0.00124876
0.00124923
0.00124884
0.00124891
0.00124895
0.00124881
0.0012488
0.0012488
0.00124874
0.00124819
0.00124838
0.00124866
0.00124784
0.0011864
0.00122351
0.00124144
0.00124795
0.00124983
0.00124997
0.00124982
0.00124974
0.00124936
0.00124907
0.00124893
0.0012488
0.00124845
0.00124815
0.00124778
0.00124743
0.00124696
0.00124678
0.00124659
0.00124618
0.00124597
0.00124568
0.0012448
0.00124459
0.00124495
0.00124501
0.00124505
0.00124551
0.00124597
0.00124618
0.00124658
0.00124675
0.00124719
0.00124769
0.00124808
0.00124764
0.00124813
0.00124876
0.00124864
0.00124914
0.00124945
0.00124946
0.00124899
0.00124902
0.00124954
0.00124933
0.00124971
0.00124993
0.00124987
0.0012497
0.0012496
0.00125073
0.00125175
0.0012518
0.00125167
0.00125149
0.00125132
0.00125125
0.00125107
0.00125094
0.00125063
0.00125068
0.00125074
0.00125067
0.00125062
0.00124995
0.00125003
0.00125014
0.00124959
0.00124982
0.0012499
0.00124981
0.00124977
0.00124907
0.00124923
0.00124951
0.00124936
0.00124933
0.00124893
0.00124892
0.00124887
0.00124844
0.00124867
0.00124897
0.00124821
0.00124846
0.00124884
0.00124885
0.00124884
0.00124795
0.00118637
0.00122356
0.0012416
0.00124717
0.00124776
0.0012476
0.00124733
0.00124693
0.00124726
0.00124763
0.00124731
0.00124674
0.00124636
0.0012466
0.00124669
0.00124637
0.00124618
0.00124559
0.0012453
0.00124576
0.00124529
0.00124553
0.0012458
0.00124508
0.00124535
0.00124562
0.00124499
0.00124539
0.00124601
0.00124623
0.00124658
0.00124631
0.00124702
0.00124785
0.00124757
0.00124805
0.00124897
0.00124946
0.0012498
0.00124996
0.00125022
0.00125045
0.00125044
0.00125044
0.00125042
0.00125044
0.00125043
0.00125004
0.00124986
0.00124956
0.00124937
0.00124917
0.00124909
0.0012486
0.00124882
0.0012493
0.00124863
0.00124847
0.00124907
0.00124939
0.00124916
0.00124865
0.0012484
0.00124912
0.00124937
0.00124929
0.00124924
0.00124891
0.00124862
0.00124896
0.00124938
0.00124975
0.00124972
0.00124934
0.00124939
0.00124921