/*--------------------------------*- C++ -*----------------------------------*\
  =========                 |
  \\      /  F ield         | OpenFOAM: The Open Source CFD Toolbox
   \\    /   O peration     | Website:  https://openfoam.org
    \\  /    A nd           | Version:  11
     \\/     M anipulation  |
\*---------------------------------------------------------------------------*/
FoamFile
{
    format      ascii;
    class       volScalarField;
    location    "0.032";
    object      omega;
}
// * * * * * * * * * * * * * * * * * * * * * * * * * * * * * * * * * * * * * //

dimensions      [0 0 -1 0 0 0 0];

internalField   nonuniform List<scalar> 
287084
(
55.111
55.9145
56.2711
56.3664
56.3709
56.3673
56.3563
56.3551
56.3699
56.3747
56.3753
56.3721
56.3601
56.3606
56.3741
56.3685
56.377
56.3871
56.3777
56.3839
56.3866
56.3793
56.3788
56.3782
56.3689
56.365
56.3751
56.3821
56.378
56.3616
56.3648
56.3729
56.3546
56.359
56.3696
56.3678
56.3618
56.3607
56.3668
56.3546
56.3614
56.3679
56.3505
56.3557
56.3658
56.3483
56.3513
56.3671
56.3674
56.3647
56.3634
56.361
56.3569
56.3572
56.3495
56.3578
56.3639
56.3622
56.3575
56.3601
56.3698
56.3544
56.36
56.3697
56.3646
56.364
56.3539
56.3618
56.3681
56.3661
56.3601
56.3579
56.3657
56.3659
56.3693
56.3708
56.368
56.3578
56.3645
56.3689
56.3683
56.3681
56.35
56.35
56.3587
56.3477
56.3549
56.3638
56.3618
56.3557
55.1126
55.9056
56.2692
56.369
56.3744
56.3724
56.3706
56.371
56.3722
56.3733
56.3703
56.3591
56.3634
56.3705
56.3525
56.3571
56.3693
56.3642
56.3583
56.3679
56.3875
56.384
56.3844
56.3864
56.3866
56.3742
56.3804
56.3844
56.3691
56.3739
56.3769
56.3593
56.3644
56.3746
56.3574
56.3594
56.3718
56.3656
56.3715
56.3738
56.3698
56.3568
56.3564
56.3706
56.3716
56.3682
56.351
56.3539
56.3617
56.3441
56.3453
56.3603
56.3652
56.3623
56.3499
56.3584
56.3672
56.3536
56.3608
56.3676
56.3647
56.3594
56.3619
56.3682
56.3576
56.3629
56.3695
56.3666
56.3574
56.3628
56.3744
56.3729
56.3725
56.3581
56.3637
56.3739
56.3649
56.3675
56.3681
56.3661
56.3659
56.3645
56.3547
56.3559
56.3581
56.3552
56.3469
56.3525
56.364
56.3466
55.1126
55.905
56.2686
56.3659
56.3661
56.3765
56.3834
56.3711
56.3767
56.3849
56.385
56.3849
56.3773
56.3679
56.3706
56.3788
56.3783
56.3782
56.3642
56.3663
56.3794
56.3762
56.3818
56.387
56.385
56.382
56.3734
56.3784
56.3831
56.3674
56.3745
56.3842
56.368
56.3745
56.3851
56.37
56.3773
56.387
56.3766
56.3769
56.3764
56.3738
56.3746
56.377
56.3743
56.3676
56.3715
56.3744
56.3723
56.3716
56.3588
56.3614
56.365
56.3556
56.3629
56.3692
56.3518
56.3573
56.3659
56.3644
56.3606
56.3594
56.369
56.3618
56.3689
56.3723
56.3696
56.3619
56.3653
56.3704
56.3587
56.358
56.3526
56.3595
56.3645
56.3503
56.3574
56.3722
56.3658
56.3679
56.3643
56.3676
56.3687
56.3563
56.3619
56.3676
56.3512
56.3569
56.3619
56.3452
55.1122
55.9061
56.264
56.3722
56.3782
56.3875
56.3922
56.385
56.3846
56.3864
56.3869
56.3841
56.3767
56.3746
56.3842
56.3856
56.3813
56.3668
56.3712
56.3828
56.3726
56.3725
56.3717
56.3729
56.3687
56.3661
56.3587
56.3652
56.3828
56.3814
56.3783
56.3614
56.3654
56.3753
56.3587
56.3622
56.3747
56.3628
56.3693
56.3786
56.3682
56.3672
56.3703
56.3696
56.3701
56.3699
56.3553
56.3555
56.3633
56.3605
56.3604
56.3555
56.3552
56.3495
56.3586
56.3685
56.3544
56.3613
56.3681
56.3621
56.3618
56.3567
56.3684
56.3757
56.3734
56.3717
56.3723
56.3742
56.3717
56.3714
56.3606
56.3652
56.3702
56.3595
56.3661
56.3794
56.3779
56.375
56.3744
56.3707
56.3551
56.3612
56.3683
56.3674
56.3671
56.3521
56.3582
56.3635
56.3608
56.3527
55.1123
55.9058
56.2641
56.3745
56.3861
56.3838
56.3762
56.3814
56.387
56.3753
56.3803
56.382
56.3801
56.3802
56.3721
56.3716
56.3715
56.3634
56.3609
56.3681
56.3674
56.3793
56.3883
56.3788
56.3799
56.3792
56.3686
56.3737
56.3822
56.3647
56.3649
56.3758
56.3694
56.3774
56.3865
56.3756
56.3812
56.3833
56.3821
56.3816
56.3653
56.3686
56.3731
56.3719
56.3716
56.3576
56.3633
56.3678
56.3552
56.3626
56.3696
56.3517
56.355
56.3667
56.3545
56.3607
56.3711
56.3638
56.3648
56.3642
56.3544
56.3602
56.3706
56.3544
56.3604
56.3686
56.3525
56.3569
56.3688
56.3556
56.3618
56.3722
56.369
56.3686
56.3585
56.3656
56.3713
56.3607
56.3597
56.3596
56.3525
56.36
56.3696
56.3571
56.3644
56.3694
56.3565
56.364
56.3694
56.3503
55.1115
55.9088
56.2612
56.3543
56.3586
56.3488
56.3561
56.369
56.369
56.3689
56.3534
56.3598
56.3778
56.3666
56.3747
56.3823
56.3723
56.3719
56.371
56.3719
56.3713
56.3618
56.3674
56.3761
56.3587
56.3613
56.3776
56.3774
56.3745
56.3642
56.3724
56.3849
56.3766
56.3766
56.3754
56.3629
56.3664
56.3731
56.355
56.3598
56.3714
56.3555
56.3617
56.3733
56.3579
56.3647
56.3759
56.3667
56.3675
56.3668
56.357
56.3614
56.3706
56.3702
56.3697
56.3532
56.3505
56.3626
56.3656
56.3618
56.3481
56.3463
56.3636
56.3707
56.3689
56.3688
56.3622
56.3568
56.3622
56.3614
56.3715
56.3769
56.3653
56.3712
56.3739
56.3589
56.3653
56.3724
56.3572
56.3629
56.3711
56.3612
56.3681
56.3718
56.3698
56.3686
56.3695
56.3715
56.3669
56.3519
55.1097
55.9122
56.2607
56.3595
56.3656
56.3531
56.3603
56.3661
56.3572
56.354
56.3656
56.4075
56.4096
56.4038
56.4047
56.4091
56.4085
56.4036
56.4009
56.3999
56.4015
56.3993
56.3887
56.3909
56.3929
56.3892
56.3778
56.379
56.3849
56.3838
56.3786
56.3809
56.3858
56.3686
56.3747
56.3847
56.3694
56.3755
56.3845
56.3809
56.3802
56.3694
56.3765
56.3821
56.3748
56.373
56.372
56.374
56.3704
56.3708
56.3635
56.3671
56.369
56.3515
56.3545
56.3668
56.3677
56.3672
56.3491
56.3501
56.3602
56.349
56.3567
56.3637
56.3617
56.3605
56.3544
56.3552
56.3485
56.3567
56.3628
56.3477
56.3524
56.3675
56.3675
56.3664
56.351
56.3575
56.3704
56.3615
56.3671
56.3691
56.3575
56.3631
56.3698
56.3683
56.365
56.3646
56.3665
56.3492
55.112
55.9068
56.26
56.379
56.412
56.4198
56.4215
56.422
56.4216
56.419
56.4171
56.4181
56.4159
56.4103
56.4073
56.4071
56.4047
56.4009
56.399
56.3985
56.3995
56.3989
56.3888
56.3906
56.3931
56.3893
56.3774
56.377
56.3818
56.3681
56.3753
56.3854
56.3692
56.3756
56.3857
56.3704
56.3694
56.389
56.3935
56.3908
56.3904
56.3805
56.3866
56.3909
56.382
56.3801
56.3847
56.39
56.3889
56.3872
56.3851
56.3835
56.3835
56.3797
56.3693
56.3669
56.3679
56.366
56.3587
56.3545
56.3685
56.3749
56.3717
56.3738
56.3726
56.3581
56.3631
56.3694
56.358
56.3577
56.3573
56.3574
56.3468
56.3487
56.37
56.3715
56.3671
56.3581
56.3504
56.3635
56.3736
56.3688
56.3706
56.3676
56.3633
56.3547
56.3603
56.3681
56.3644
56.3517
55.1107
55.9106
56.2612
56.3598
56.3693
56.3683
56.3687
56.3655
56.3568
56.3645
56.4049
56.4087
56.403
56.4028
56.4043
56.4061
56.4047
56.4004
56.3974
56.3946
56.3944
56.3951
56.3912
56.3912
56.3925
56.3896
56.3759
56.3777
56.3837
56.3688
56.376
56.3858
56.3694
56.3758
56.3857
56.3703
56.369
56.3877
56.3949
56.3907
56.3902
56.3902
56.3908
56.3875
56.384
56.381
56.377
56.3607
56.3633
56.3673
56.3501
56.3556
56.3618
56.3451
56.3462
56.3646
56.3667
56.3629
56.3481
56.3466
56.3623
56.3662
56.3627
56.3543
56.3489
56.3625
56.3723
56.3669
56.3697
56.3708
56.3677
56.3542
56.357
56.3725
56.3719
56.372
56.3731
56.3745
56.3711
56.3676
56.3605
56.3672
56.3752
56.3693
56.3688
56.3685
56.3556
56.3563
56.3618
56.3465
55.109
55.9136
56.2621
56.3459
56.3676
56.366
56.3502
56.3495
56.3717
56.3774
56.3732
56.3623
56.3581
56.3752
56.3806
56.3765
56.3624
56.3613
56.3716
56.3654
56.3732
56.3774
56.364
56.3645
56.3793
56.3804
56.3727
56.38
56.3863
56.3684
56.3738
56.385
56.3835
56.3777
56.3754
56.3759
56.3747
56.3665
56.3678
56.37
56.3512
56.3556
56.3657
56.3488
56.3543
56.3629
56.3459
56.3496
56.3622
56.354
56.3547
56.3541
56.3542
56.3435
56.3495
56.3601
56.3433
56.3471
56.3592
56.3606
56.3607
56.3437
56.3475
56.3609
56.3602
56.3562
56.3591
56.3643
56.3561
56.358
56.3548
56.3451
56.3518
56.3617
56.3447
56.3477
56.3627
56.3638
56.3628
56.3463
56.3501
56.3621
56.3626
56.3627
56.3562
56.3501
56.3579
56.3696
56.3666
56.3555
55.1106
55.9092
56.2644
56.3628
56.3737
56.3702
56.3568
56.3549
56.3726
56.3769
56.3745
56.3713
56.3812
56.3878
56.3757
56.3811
56.389
56.3893
56.3893
56.3825
56.3741
56.3773
56.3855
56.3817
56.3679
56.3675
56.3774
56.3755
56.3753
56.3666
56.375
56.3866
56.3794
56.3793
56.3779
56.3646
56.3671
56.3724
56.354
56.3586
56.3697
56.3537
56.3599
56.3714
56.356
56.362
56.3759
56.3736
56.3706
56.3552
56.3603
56.3664
56.3498
56.3542
56.3652
56.3642
56.3645
56.3545
56.3573
56.3595
56.3558
56.3443
56.3491
56.3616
56.36
56.3596
56.3451
56.3483
56.367
56.364
56.3645
56.363
56.3709
56.3743
56.3613
56.3681
56.3756
56.3665
56.3715
56.374
56.3661
56.3722
56.3742
56.3563
56.3609
56.369
56.3594
56.3609
56.3576
56.347
55.1102
55.9106
56.2614
56.3668
56.3764
56.3761
56.3761
56.3723
56.3648
56.3669
56.4006
56.4111
56.4063
56.4093
56.4103
56.4078
56.4053
56.4043
56.3961
56.3984
56.3998
56.3912
56.3973
56.4007
56.3959
56.3835
56.3789
56.38
56.3669
56.3729
56.3798
56.3616
56.3665
56.3762
56.3585
56.3633
56.3743
56.3579
56.3638
56.3747
56.359
56.3654
56.376
56.3666
56.3673
56.3665
56.3564
56.3614
56.3668
56.3666
56.3666
56.3612
56.353
56.3559
56.3628
56.354
56.3576
56.3584
56.348
56.3519
56.3665
56.3674
56.365
56.3604
56.3586
56.358
56.3499
56.3564
56.3679
56.3681
56.368
56.3496
56.3542
56.364
56.3616
56.361
56.3464
56.3539
56.3692
56.3634
56.3627
56.3548
56.3617
56.3653
56.3603
56.3601
56.3538
56.3618
56.3665
56.3487
55.112
55.9068
56.2599
56.3788
56.4118
56.4198
56.4185
56.416
56.4122
56.413
56.4149
56.4128
56.4135
56.4106
56.4079
56.4078
56.4058
56.4042
56.4019
56.4006
56.3985
56.3947
56.395
56.3996
56.3982
56.3937
56.3794
56.3818
56.3877
56.3715
56.3782
56.3872
56.3761
56.3723
56.3854
56.3914
56.3909
56.3906
56.3766
56.3816
56.3877
56.3822
56.3817
56.3746
56.3804
56.3834
56.3812
56.3816
56.3729
56.3725
56.3733
56.3697
56.3567
56.3616
56.3705
56.3685
56.368
56.3546
56.3627
56.3735
56.371
56.3706
56.3576
56.3653
56.3731
56.3572
56.3632
56.3698
56.3582
56.3577
56.3572
56.3572
56.3467
56.3485
56.3698
56.3714
56.3667
56.3543
56.3509
56.3636
56.3667
56.3632
56.3555
56.3502
56.3635
56.3741
56.3693
56.3717
56.3681
56.3512
55.1093
55.9122
56.264
56.3504
56.3538
56.349
56.3589
56.373
56.3657
56.3683
56.3651
56.3555
56.3605
56.3726
56.3703
56.3723
56.3729
56.367
56.3676
56.3824
56.3759
56.3838
56.3941
56.3862
56.3894
56.3903
56.3877
56.3882
56.3846
56.3725
56.3781
56.3874
56.3764
56.372
56.3845
56.3914
56.3857
56.385
56.3862
56.3883
56.3833
56.3807
56.3818
56.384
56.3813
56.379
56.3774
56.3665
56.3584
56.3592
56.3548
56.3637
56.3689
56.3672
56.3669
56.3534
56.3577
56.3663
56.3642
56.3638
56.3512
56.3569
56.3688
56.3601
56.3604
56.3542
56.3612
56.3653
56.361
56.3605
56.3501
56.3558
56.3712
56.3603
56.367
56.3778
56.3696
56.3752
56.3775
56.3755
56.3757
56.3709
56.369
56.3581
56.363
56.3738
56.3718
56.3718
56.3675
56.3539
55.1121
55.9067
56.2599
56.3789
56.4118
56.4197
56.4214
56.4219
56.4213
56.4188
56.4173
56.4184
56.4163
56.4109
56.408
56.4081
56.4064
56.4017
56.4031
56.4044
56.3985
56.3968
56.4005
56.4016
56.398
56.3807
56.3802
56.3857
56.3789
56.3807
56.3772
56.3661
56.3712
56.3776
56.3589
56.3633
56.3738
56.3572
56.3629
56.3734
56.3576
56.3641
56.3744
56.3686
56.3678
56.3576
56.3635
56.3722
56.3684
56.3686
56.3675
56.3671
56.3684
56.3704
56.3665
56.359
56.3512
56.3677
56.3804
56.374
56.3783
56.3842
56.3822
56.3831
56.379
56.361
56.3641
56.3694
56.3579
56.3575
56.3571
56.3571
56.3466
56.3484
56.3698
56.3714
56.3666
56.3542
56.3509
56.3636
56.3666
56.3628
56.3491
56.3507
56.3612
56.3561
56.361
56.3636
56.3597
56.3461
55.1139
55.9027
56.263
56.3706
56.3781
56.3706
56.3779
56.3831
56.376
56.3773
56.3778
56.3784
56.3679
56.373
56.3807
56.3772
56.3646
56.3627
56.3726
56.3725
56.3741
56.3726
56.3804
56.3833
56.3717
56.3776
56.3857
56.3679
56.3693
56.3841
56.3845
56.3794
56.3841
56.3868
56.374
56.3727
56.3707
56.3713
56.3676
56.3544
56.3582
56.3651
56.3472
56.3495
56.362
56.35
56.3554
56.3707
56.3708
56.368
56.366
56.365
56.3547
56.3635
56.3945
56.3973
56.3963
56.3952
56.395
56.3936
56.387
56.3851
56.3894
56.3902
56.3876
56.3881
56.3833
56.367
56.3695
56.3735
56.3564
56.362
56.369
56.369
56.369
56.3591
56.3624
56.3633
56.3534
56.3591
56.3726
56.3717
56.3707
56.3563
56.3624
56.3692
56.3637
56.3657
56.3623
56.3497
55.1135
55.9048
56.257
56.3771
56.4112
56.4195
56.4214
56.4219
56.4221
56.4196
56.4177
56.4152
56.4133
56.4136
56.4121
56.4067
56.4037
56.399
56.4026
56.4037
56.3889
56.3933
56.3974
56.3949
56.3913
56.3916
56.3924
56.3735
56.3773
56.3844
56.3842
56.3837
56.3637
56.3673
56.3717
56.3713
56.3708
56.3513
56.3553
56.3651
56.3478
56.3527
56.3645
56.3632
56.3627
56.3464
56.3512
56.3646
56.3617
56.3615
56.362
56.3623
56.3522
56.3668
56.3862
56.3797
56.3855
56.3879
56.3808
56.3854
56.3866
56.3798
56.3799
56.3802
56.3776
56.3772
56.3737
56.3603
56.3646
56.3685
56.361
56.3597
56.3583
56.358
56.3456
56.3477
56.3617
56.3623
56.3659
56.3628
56.3536
56.3589
56.3701
56.3625
56.3667
56.3682
56.3613
56.3676
56.37
56.3508
55.1121
55.9067
56.2599
56.3789
56.412
56.4198
56.4216
56.422
56.4224
56.4231
56.4208
56.4187
56.4162
56.4144
56.4147
56.4134
56.4081
56.4051
56.4055
56.4012
56.403
56.4044
56.3994
56.3998
56.3962
56.3818
56.3832
56.389
56.3738
56.3798
56.3838
56.3659
56.3707
56.3774
56.3587
56.3629
56.3728
56.356
56.3616
56.372
56.356
56.3616
56.3738
56.3661
56.3663
56.3656
56.3677
56.3639
56.3639
56.3639
56.3615
56.3573
56.3709
56.3872
56.3799
56.3856
56.388
56.3839
56.3829
56.3841
56.3846
56.3777
56.3774
56.3768
56.3674
56.3708
56.3728
56.3624
56.3669
56.3728
56.3715
56.3705
56.3565
56.3516
56.3642
56.3704
56.3662
56.3507
56.3507
56.3607
56.3567
56.3646
56.3673
56.3634
56.3561
56.3484
56.3605
56.3686
56.3649
56.3519
55.1134
55.9048
56.257
56.3771
56.4112
56.4196
56.4214
56.4221
56.4195
56.4173
56.4146
56.4127
56.4129
56.4115
56.4061
56.4031
56.3983
56.402
56.4032
56.3886
56.3934
56.3983
56.387
56.3858
56.3856
56.3759
56.3807
56.3877
56.3694
56.3741
56.3851
56.3685
56.3724
56.38
56.3795
56.3794
56.3754
56.3686
56.3633
56.361
56.3496
56.3568
56.3636
56.3454
56.3502
56.3585
56.3417
56.3471
56.3588
56.3569
56.3565
56.342
56.3407
56.3663
56.3882
56.3821
56.386
56.3914
56.39
56.3898
56.3876
56.3834
56.3831
56.3819
56.3818
56.372
56.3753
56.3767
56.3697
56.3691
56.3698
56.3668
56.3652
56.3656
56.3638
56.3541
56.3588
56.372
56.3697
56.3668
56.3515
56.3572
56.3651
56.3529
56.3591
56.3624
56.3487
56.355
56.3646
56.3467
55.1135
55.9048
56.2568
56.3804
56.3926
56.3891
56.389
56.3894
56.3869
56.3885
56.3891
56.3741
56.3725
56.3819
56.3884
56.3852
56.3781
56.3708
56.3698
56.3683
56.3785
56.3989
56.3989
56.3981
56.3802
56.3821
56.3886
56.3709
56.376
56.3834
56.3652
56.3701
56.3788
56.3604
56.3648
56.3747
56.366
56.3678
56.3643
56.3523
56.3571
56.3636
56.3536
56.3528
56.3529
56.3533
56.3539
56.3503
56.3465
56.3664
56.3999
56.4088
56.411
56.4116
56.4118
56.409
56.4063
56.4067
56.4055
56.3996
56.4005
56.4016
56.3938
56.3917
56.3895
56.3876
56.3884
56.388
56.3829
56.3799
56.3772
56.3694
56.3752
56.3775
56.3743
56.3653
56.3671
56.371
56.362
56.3619
56.3556
56.3581
56.3604
56.3502
56.3556
56.3656
56.3586
56.3597
56.3589
56.3481
55.1114
55.9082
56.2622
56.3578
56.3625
56.3596
56.3514
56.3584
56.3682
56.3512
56.3542
56.3684
56.3572
56.3647
56.3736
56.3727
56.3729
56.3688
56.3808
56.3803
56.3918
56.4009
56.3906
56.3895
56.3894
56.3798
56.3851
56.3922
56.374
56.3781
56.3883
56.3719
56.3774
56.3866
56.3706
56.3768
56.3828
56.3785
56.3777
56.3658
56.3718
56.3753
56.3658
56.3655
56.3655
56.3638
56.3606
56.3579
56.3497
56.3537
56.3562
56.3432
56.3484
56.3597
56.3528
56.3526
56.3505
56.3503
56.3402
56.3472
56.3587
56.3422
56.3477
56.3585
56.3477
56.3442
56.3475
56.3467
56.3587
56.369
56.3584
56.3579
56.3603
56.3606
56.3479
56.349
56.3694
56.3714
56.3667
56.3511
56.3508
56.3606
56.3529
56.3591
56.3615
56.3481
56.3532
56.3644
56.3627
56.357
55.1121
55.9067
56.2599
56.379
56.4123
56.417
56.4157
56.4129
56.4106
56.4108
56.4089
56.4068
56.4035
56.4014
56.3965
56.3978
56.3995
56.3949
56.3929
56.3964
56.3987
56.3949
56.3862
56.3798
56.3845
56.3916
56.388
56.3728
56.3787
56.3872
56.3848
56.3775
56.3784
56.3796
56.377
56.3762
56.3612
56.3652
56.3668
56.3573
56.3566
56.3561
56.3453
56.3468
56.3581
56.3522
56.3593
56.3622
56.3606
56.3564
56.3587
56.3883
56.4066
56.4105
56.4114
56.4118
56.4123
56.4094
56.4067
56.4046
56.4023
56.4009
56.4018
56.3982
56.397
56.3914
56.3923
56.3946
56.3922
56.3938
56.3948
56.3947
56.383
56.3809
56.3816
56.3744
56.3736
56.3731
56.3616
56.363
56.369
56.355
56.362
56.3702
56.3613
56.3606
56.3524
56.3588
56.3625
56.3464
55.1121
55.9067
56.2599
56.379
56.412
56.4199
56.4215
56.422
56.4226
56.4201
56.4181
56.4156
56.4139
56.4142
56.413
56.4078
56.4049
56.4005
56.4043
56.4056
56.4038
56.3994
56.4012
56.4031
56.3991
56.3864
56.3859
56.3911
56.3768
56.383
56.3874
56.3714
56.378
56.387
56.3707
56.375
56.3851
56.3749
56.3755
56.3833
56.3836
56.3816
56.382
56.373
56.3751
56.3757
56.3741
56.3738
56.3666
56.3555
56.3592
56.3916
56.4071
56.4104
56.4113
56.4117
56.412
56.4123
56.4119
56.4092
56.407
56.4075
56.4043
56.4028
56.4
56.4011
56.403
56.4013
56.4005
56.3982
56.3932
56.3921
56.3871
56.3854
56.3839
56.3858
56.3817
56.3802
56.3794
56.3812
56.3775
56.3633
56.367
56.3722
56.3559
56.3617
56.3715
56.369
56.366
56.3497
55.1106
55.9096
56.2644
56.3523
56.3526
56.365
56.3732
56.3557
56.3608
56.3692
56.3626
56.3564
56.3598
56.3999
56.4092
56.4021
56.4041
56.4082
56.4095
56.4073
56.3976
56.4017
56.404
56.387
56.3919
56.3975
56.3871
56.3868
56.3876
56.3863
56.3705
56.3746
56.3804
56.361
56.365
56.3743
56.3629
56.3576
56.3714
56.3794
56.374
56.3737
56.3722
56.3729
56.3721
56.3733
56.3689
56.3666
56.3681
56.3684
56.3567
56.359
56.36
56.3498
56.3476
56.3682
56.3806
56.3742
56.3743
56.3727
56.3732
56.3683
56.3729
56.3777
56.3747
56.3756
56.3708
56.3732
56.376
56.3752
56.3742
56.36
56.3552
56.366
56.3718
56.3694
56.3633
56.3722
56.3767
56.3601
56.3654
56.3705
56.3546
56.3597
56.3633
56.3606
56.3527
56.3549
56.3638
56.3467
55.1121
55.9068
56.2597
56.3807
56.4023
56.3979
56.3999
56.4024
56.4002
56.3998
56.3995
56.3969
56.3906
56.3876
56.3886
56.3888
56.381
56.3845
56.3876
56.3844
56.3744
56.3776
56.3879
56.3875
56.3856
56.3884
56.3922
56.3724
56.3761
56.3841
56.3815
56.3735
56.3745
56.3758
56.3724
56.371
56.3505
56.3526
56.3625
56.3466
56.352
56.3598
56.3424
56.3477
56.3567
56.3394
56.3419
56.3546
56.3433
56.3486
56.3564
56.3553
56.3551
56.3415
56.3467
56.3594
56.3587
56.356
56.3585
56.3623
56.3597
56.3524
56.3501
56.3548
56.342
56.3478
56.3607
56.3444
56.3499
56.3601
56.3586
56.3531
56.3556
56.3647
56.3565
56.3581
56.3546
56.3516
56.3428
56.3484
56.3642
56.3666
56.3635
56.3459
56.3514
56.3614
56.3445
56.3499
56.3609
56.344
55.1121
55.9067
56.2599
56.379
56.4121
56.42
56.4217
56.4191
56.4168
56.4141
56.4122
56.4124
56.4109
56.4055
56.4025
56.4008
56.4
56.399
56.3976
56.4018
56.4078
56.4057
56.4033
56.4008
56.3821
56.3828
56.3893
56.3721
56.3772
56.3847
56.3657
56.3698
56.3764
56.3568
56.3545
56.3703
56.3732
56.3689
56.3527
56.3553
56.3627
56.3595
56.3586
56.3433
56.3485
56.3633
56.3519
56.3592
56.3653
56.362
56.3516
56.3533
56.3581
56.3403
56.3425
56.3555
56.3457
56.3532
56.3591
56.3438
56.3459
56.3638
56.3648
56.3617
56.3478
56.351
56.3609
56.3449
56.35
56.3604
56.3438
56.3477
56.3627
56.3634
56.363
56.3469
56.3515
56.3613
56.3457
56.351
56.3631
56.3496
56.3564
56.3622
56.3597
56.3521
56.3538
56.3627
56.3621
56.3581
55.1121
55.9068
56.2599
56.379
56.412
56.4199
56.4215
56.422
56.4225
56.4233
56.4209
56.419
56.4167
56.4151
56.4154
56.4142
56.4092
56.4064
56.4022
56.406
56.4079
56.3976
56.4031
56.4065
56.4059
56.4057
56.3929
56.3886
56.3918
56.3928
56.3888
56.376
56.3814
56.3881
56.3712
56.3769
56.3826
56.3773
56.3763
56.365
56.3665
56.3745
56.3748
56.374
56.3599
56.3625
56.3644
56.362
56.3625
56.3537
56.3696
56.4008
56.4089
56.4108
56.4113
56.4117
56.412
56.4123
56.4114
56.4087
56.4072
56.4042
56.4015
56.4015
56.3958
56.3969
56.3987
56.3972
56.3993
56.3967
56.3924
56.3924
56.391
56.3889
56.3853
56.3739
56.3762
56.3777
56.3746
56.3655
56.3673
56.3708
56.3673
56.3669
56.3675
56.3671
56.3489
56.3531
56.3638
56.3464
55.1121
55.9067
56.2599
56.379
56.4121
56.42
56.4215
56.4221
56.4227
56.4202
56.4181
56.4157
56.414
56.4143
56.4129
56.4078
56.4049
56.4005
56.4044
56.4059
56.3995
56.396
56.3993
56.4014
56.3974
56.3843
56.3874
56.3935
56.3757
56.3805
56.3898
56.3728
56.3784
56.387
56.3708
56.375
56.3851
56.3749
56.3756
56.3836
56.3836
56.3816
56.382
56.3731
56.3751
56.3757
56.3741
56.3738
56.3667
56.3556
56.3592
56.3915
56.4071
56.4108
56.4084
56.4058
56.4059
56.4065
56.4046
56.3985
56.397
56.4014
56.4004
56.3965
56.3967
56.392
56.3872
56.3875
56.3887
56.38
56.3828
56.3838
56.3797
56.3667
56.3686
56.3736
56.3586
56.3644
56.3747
56.3674
56.3679
56.3688
56.3683
56.3688
56.3687
56.3648
56.3524
56.3577
56.3635
56.3458
55.1121
55.9067
56.2599
56.3789
56.4122
56.4171
56.4157
56.413
56.4107
56.4109
56.409
56.4067
56.4034
56.4015
56.4014
56.4004
56.3962
56.3971
56.3982
56.3972
56.3981
56.3932
56.3761
56.3766
56.3871
56.3871
56.3854
56.3898
56.3933
56.3897
56.3893
56.3855
56.3859
56.3832
56.3789
56.3604
56.363
56.3688
56.3594
56.3631
56.3643
56.3602
56.3461
56.3467
56.3584
56.351
56.3583
56.3623
56.361
56.3582
56.3594
56.3884
56.4066
56.4107
56.4085
56.406
56.4064
56.4042
56.3979
56.3953
56.3929
56.396
56.3981
56.3973
56.3971
56.3841
56.3862
56.3891
56.379
56.3841
56.3859
56.384
56.3836
56.3693
56.3734
56.3798
56.376
56.3755
56.369
56.3704
56.3671
56.3571
56.3635
56.3699
56.3534
56.3597
56.3675
56.3673
56.3671
56.3482
55.1114
55.9082
56.2622
56.3575
56.3658
56.3625
56.3552
56.352
56.3652
56.3757
56.3724
56.36
56.3585
56.3709
56.3769
56.3744
56.3723
56.3677
56.3698
56.3875
56.3801
56.3896
56.3979
56.3845
56.3917
56.3964
56.3805
56.3856
56.3933
56.3898
56.3888
56.3743
56.3803
56.3877
56.3711
56.3734
56.3857
56.3854
56.3853
56.3853
56.3831
56.3818
56.3779
56.3779
56.3786
56.3752
56.3707
56.3615
56.3579
56.3518
56.3514
56.3478
56.3454
56.3384
56.3463
56.3576
56.341
56.3404
56.358
56.3646
56.3607
56.3464
56.3446
56.3653
56.3693
56.3679
56.3677
56.3596
56.3548
56.3655
56.3719
56.3801
56.3828
56.3735
56.3733
56.3726
56.3737
56.3727
56.3611
56.3617
56.3693
56.3587
56.361
56.3754
56.376
56.3728
56.3584
56.3614
56.3644
56.3461
55.1139
55.9026
56.2636
56.3679
56.3758
56.37
56.3772
56.3824
56.3742
56.375
56.3719
56.3611
56.3657
56.375
56.3751
56.3752
56.3589
56.3653
56.3817
56.3754
56.382
56.3854
56.3796
56.3795
56.3743
56.3804
56.3884
56.3703
56.3746
56.386
56.3695
56.3727
56.3844
56.3848
56.3845
56.3707
56.3758
56.3787
56.3742
56.36
56.3574
56.3604
56.3605
56.3607
56.3535
56.3526
56.3525
56.3461
56.3517
56.3666
56.3533
56.3605
56.3687
56.359
56.3556
56.3713
56.3852
56.3797
56.3833
56.3843
56.3823
56.3747
56.3783
56.3796
56.3764
56.3768
56.3747
56.3725
56.3682
56.3683
56.3698
56.3693
56.3564
56.3517
56.3644
56.3705
56.3662
56.3507
56.3505
56.3604
56.3502
56.3564
56.3596
56.3537
56.3536
56.3491
56.3546
56.3604
56.3569
56.3453
55.1139
55.9027
56.263
56.3705
56.3782
56.3701
56.377
56.3828
56.3744
56.3767
56.3735
56.3613
56.3655
56.3779
56.3795
56.3765
56.3589
56.3622
56.3847
56.3867
56.3839
56.3702
56.3749
56.3844
56.3673
56.3727
56.3855
56.3689
56.3739
56.3857
56.3697
56.3756
56.3822
56.3803
56.3795
56.3628
56.3667
56.3737
56.37
56.3616
56.3577
56.3583
56.3447
56.3504
56.3591
56.3581
56.3579
56.3457
56.3523
56.39
56.3937
56.3854
56.3891
56.3945
56.3926
56.3927
56.3826
56.3853
56.3889
56.3865
56.3863
56.3814
56.3805
56.377
56.3804
56.3813
56.3794
56.3775
56.375
56.3745
56.3624
56.3658
56.3699
56.3665
56.3661
56.3669
56.3665
56.3483
56.3504
56.3618
56.3553
56.357
56.3531
56.3506
56.3433
56.351
56.3619
56.3614
56.3611
56.3433
55.1121
55.9067
56.2599
56.379
56.4119
56.4198
56.4215
56.422
56.4223
56.4231
56.4206
56.4187
56.4162
56.4144
56.4147
56.4134
56.4081
56.4051
56.4055
56.4013
56.4031
56.4045
56.3994
56.3999
56.3963
56.3823
56.3854
56.3914
56.3735
56.3789
56.3891
56.3727
56.3715
56.3797
56.3801
56.3758
56.382
56.3877
56.373
56.3789
56.3872
56.3798
56.3837
56.3889
56.387
56.3854
56.3823
56.3766
56.3759
56.3713
56.3608
56.353
56.3669
56.386
56.3777
56.3841
56.3868
56.3814
56.3818
56.3777
56.3775
56.3761
56.3772
56.3767
56.3674
56.3704
56.3721
56.3621
56.3668
56.3728
56.3715
56.3706
56.3566
56.3516
56.3643
56.3705
56.3665
56.3576
56.3502
56.3634
56.3734
56.3686
56.3699
56.367
56.3631
56.3545
56.3601
56.3681
56.3644
56.3517
55.1135
55.9047
56.257
56.3772
56.4113
56.4196
56.4214
56.4219
56.4224
56.4231
56.4206
56.4185
56.416
56.4142
56.4145
56.4131
56.4078
56.4049
56.4031
56.4027
56.4015
56.3992
56.403
56.4087
56.4062
56.4032
56.3994
56.3975
56.3924
56.3762
56.3803
56.3884
56.3771
56.3716
56.383
56.3898
56.389
56.3886
56.3745
56.3796
56.3863
56.3766
56.3769
56.3762
56.3754
56.374
56.3702
56.3741
56.3762
56.3761
56.376
56.3639
56.3587
56.3666
56.3692
56.3771
56.3807
56.3673
56.3664
56.3852
56.3915
56.3858
56.3885
56.3936
56.3923
56.3888
56.3824
56.3778
56.3782
56.3797
56.3755
56.3774
56.3786
56.3763
56.3757
56.361
56.3641
56.3684
56.3683
56.3682
56.3518
56.3582
56.3673
56.3518
56.3583
56.3665
56.3499
56.3552
56.3648
56.3469
55.1135
55.9047
56.2568
56.3804
56.3928
56.391
56.3907
56.3779
56.3841
56.3892
56.377
56.3814
56.383
56.3713
56.3764
56.3789
56.3659
56.3634
56.3789
56.3867
56.3831
56.3704
56.3728
56.3812
56.3648
56.3703
56.3835
56.3674
56.3732
56.3817
56.3796
56.3771
56.3736
56.3799
56.3814
56.3778
56.3596
56.3619
56.3684
56.3504
56.3549
56.3662
56.3516
56.3578
56.3629
56.3611
56.3565
56.3589
56.3664
56.3635
56.363
56.3499
56.3492
56.3755
56.387
56.3783
56.3833
56.3895
56.3863
56.3758
56.3775
56.384
56.3783
56.383
56.3895
56.3881
56.3893
56.3871
56.3707
56.3735
56.3795
56.372
56.3741
56.3704
56.3687
56.3694
56.3695
56.3586
56.3646
56.3704
56.3659
56.3605
56.3625
56.3651
56.3506
56.3579
56.3674
56.3675
56.3674
56.3481
55.1121
55.9067
56.2599
56.3789
56.4118
56.4197
56.4214
56.4218
56.4221
56.4229
56.4205
56.4183
56.4157
56.4139
56.4141
56.4127
56.4073
56.4077
56.4096
56.4075
56.4051
56.4032
56.3992
56.384
56.3869
56.3922
56.3768
56.3829
56.3885
56.385
56.3741
56.3739
56.378
56.3605
56.3651
56.3755
56.3588
56.3645
56.3748
56.3589
56.3653
56.3754
56.3602
56.3669
56.3753
56.3635
56.3691
56.3763
56.3708
56.3733
56.3737
56.3705
56.3584
56.3574
56.3701
56.3765
56.3738
56.3624
56.3687
56.3785
56.3761
56.3682
56.3712
56.3762
56.3626
56.369
56.3732
56.3625
56.3698
56.3749
56.3733
56.3728
56.3591
56.3535
56.3622
56.3696
56.3655
56.3505
56.3478
56.3634
56.3668
56.363
56.3491
56.3507
56.3611
56.3561
56.3609
56.3635
56.3596
56.3461
55.1101
55.9118
56.2619
56.3525
56.3553
56.3526
56.3464
56.3522
56.3625
56.3604
56.3602
56.3501
56.352
56.3824
56.4008
56.3991
56.3985
56.3958
56.4001
56.4007
56.3948
56.3977
56.3995
56.3983
56.3978
56.3794
56.3807
56.3871
56.3708
56.3766
56.3875
56.3745
56.3715
56.377
56.377
56.3872
56.3915
56.3769
56.3832
56.3882
56.3775
56.3772
56.3739
56.3787
56.3809
56.3765
56.3621
56.3634
56.3667
56.3507
56.3555
56.3656
56.3566
56.3606
56.3618
56.3588
56.3502
56.3542
56.3611
56.3582
56.349
56.3491
56.3601
56.3647
56.3618
56.3442
56.3484
56.3606
56.3599
56.3606
56.3581
56.3515
56.3543
56.3704
56.366
56.3673
56.3664
56.3671
56.3582
56.3648
56.371
56.3646
56.3665
56.362
56.3609
56.3606
56.3512
56.3554
56.3643
56.3466
55.1121
55.9067
56.2599
56.379
56.4119
56.4196
56.4216
56.4188
56.417
56.4177
56.4175
56.4154
56.4099
56.407
56.4077
56.4094
56.4065
56.4045
56.4013
56.399
56.3942
56.3958
56.3968
56.3954
56.3945
56.3763
56.3772
56.3864
56.3858
56.3835
56.3875
56.3897
56.3771
56.3729
56.378
56.3786
56.3849
56.3874
56.3843
56.3812
56.3857
56.3911
56.3832
56.387
56.3881
56.3839
56.3846
56.3851
56.3831
56.3797
56.3685
56.371
56.3724
56.3548
56.3589
56.3702
56.3561
56.3628
56.3705
56.3546
56.3565
56.3659
56.3584
56.3678
56.3751
56.3631
56.3669
56.3688
56.3612
56.3669
56.3693
56.3652
56.356
56.3521
56.3653
56.3708
56.3664
56.3541
56.3509
56.3636
56.3666
56.3629
56.3492
56.3508
56.3613
56.3562
56.361
56.3636
56.3598
56.3461
55.1102
55.9106
56.2614
56.3668
56.3763
56.3761
56.3761
56.3723
56.3648
56.367
56.4007
56.411
56.4061
56.4093
56.4103
56.4079
56.4058
56.4008
56.4017
56.4031
56.3943
56.3971
56.3987
56.3972
56.397
56.3893
56.3884
56.3856
56.38
56.3768
56.3661
56.3737
56.3848
56.3686
56.3716
56.3831
56.3729
56.3806
56.3884
56.3773
56.3821
56.3838
56.3723
56.3769
56.3795
56.3757
56.364
56.3643
56.3669
56.3668
56.3668
56.3613
56.353
56.3558
56.3627
56.3539
56.3575
56.3584
56.348
56.3532
56.3623
56.3599
56.3592
56.3566
56.3577
56.3575
56.3499
56.3564
56.3679
56.3681
56.368
56.3496
56.3542
56.3639
56.3615
56.361
56.3463
56.3531
56.3715
56.3722
56.3718
56.3543
56.353
56.3651
56.3668
56.3631
56.3697
56.3752
56.3714
56.3589
55.1093
55.9122
56.264
56.3504
56.3538
56.349
56.3498
56.3762
56.3959
56.3943
56.3936
56.3941
56.3949
56.3927
56.3903
56.3907
56.3915
56.3891
56.3868
56.3833
56.3818
56.3807
56.3698
56.368
56.375
56.3645
56.3715
56.3827
56.3721
56.371
56.3707
56.3625
56.3686
56.3777
56.3613
56.366
56.3749
56.3676
56.3669
56.3661
56.3563
56.3597
56.3659
56.3528
56.3595
56.3645
56.3507
56.3582
56.368
56.3514
56.3542
56.3704
56.3707
56.3675
56.3534
56.3495
56.3607
56.3646
56.3609
56.3473
56.3491
56.3596
56.3515
56.3577
56.3601
56.3469
56.3533
56.3634
56.361
56.3605
56.3459
56.3505
56.3688
56.3597
56.3681
56.3761
56.3699
56.3741
56.3748
56.371
56.359
56.365
56.3735
56.3571
56.3632
56.3707
56.3609
56.3621
56.3588
56.348
55.112
55.9078
56.2594
56.3619
56.3727
56.3641
56.367
56.3687
56.3633
56.3658
56.3661
56.3785
56.3868
56.3788
56.3789
56.3748
56.3799
56.383
56.3799
56.3753
56.3686
56.3798
56.386
56.382
56.3676
56.3696
56.3795
56.3637
56.3695
56.3785
56.3751
56.3753
56.3692
56.3725
56.373
56.3627
56.3683
56.3733
56.3545
56.3588
56.3701
56.3542
56.3603
56.3719
56.3566
56.3626
56.3763
56.3739
56.3708
56.3554
56.3606
56.3667
56.3501
56.3546
56.3655
56.3645
56.3649
56.3549
56.3568
56.3637
56.3626
56.3623
56.3511
56.3505
56.3683
56.3661
56.376
56.3817
56.3799
56.3797
56.3734
56.373
56.3692
56.3703
56.374
56.3685
56.3719
56.3778
56.3748
56.3623
56.3655
56.3689
56.3681
56.3678
56.3497
56.3544
56.3631
56.362
56.3616
56.3437
55.112
55.9071
56.2618
56.3584
56.3682
56.3694
56.3667
56.3676
56.3609
56.3657
56.4021
56.411
56.406
56.409
56.4099
56.4074
56.4049
56.4015
56.3996
56.399
56.4005
56.3996
56.3881
56.3896
56.3917
56.3881