/*--------------------------------*- C++ -*----------------------------------*\
  =========                 |
  \\      /  F ield         | OpenFOAM: The Open Source CFD Toolbox
   \\    /   O peration     | Website:  https://openfoam.org
    \\  /    A nd           | Version:  11
     \\/     M anipulation  |
\*---------------------------------------------------------------------------*/
FoamFile
{
    format      ascii;
    class       volScalarField;
    location    "0.032";
    object      p;
}
// * * * * * * * * * * * * * * * * * * * * * * * * * * * * * * * * * * * * * //

dimensions      [0 2 -2 0 0 0 0];

internalField   nonuniform List<scalar> 
287084
(
1.74941
1.47702
1.40656
1.33904
1.27266
1.22201
1.1747
1.12908
1.08628
1.04613
1.005
0.962358
0.919387
0.875935
0.832023
0.787545
0.742594
0.697264
0.651683
0.606142
0.5608
0.515928
0.471895
0.428738
0.38671
0.346375
0.308941
0.276401
0.247877
0.221329
0.196018
0.171701
0.150883
0.133737
0.1199
0.108994
0.100855
0.0951798
0.0916985
0.0901666
0.0902936
0.0918073
0.0944624
0.0980316
0.102241
0.106922
0.111901
0.116972
0.121951
0.126729
0.131102
0.13476
0.138612
0.142653
0.145856
0.147547
0.150036
0.154328
0.157249
0.159524
0.158436
0.154499
0.152174
0.149945
0.147866
0.147034
0.147883
0.145993
0.139368
0.135542
0.133465
0.128872
0.12311
0.115207
0.105576
0.0992421
0.0964099
0.0909248
0.0863177
0.0811223
0.0704271
0.0633693
0.0584844
0.0473434
0.040237
0.0350011
0.0246567
0.0159217
0.00842286
0.00263523
1.61751
1.43277
1.37737
1.32261
1.2631
1.21582
1.17062
1.12691
1.08487
1.04379
1.00217
0.959964
0.917204
0.873868
0.829883
0.785269
0.740174
0.694606
0.648848
0.603055
0.557466
0.512402
0.46816
0.424964
0.383102
0.342992
0.305587
0.273533
0.243867
0.214846
0.188266
0.165199
0.145396
0.12876
0.115243
0.104644
0.09674
0.0913695
0.088139
0.0868831
0.08727
0.08904
0.0919436
0.0957497
0.100182
0.105073
0.11025
0.115513
0.120706
0.125703
0.130438
0.134645
0.138587
0.141946
0.144485
0.147998
0.151377
0.154039
0.15714
0.158158
0.156326
0.154326
0.152689
0.151127
0.150716
0.149597
0.146319
0.143743
0.140815
0.136745
0.132714
0.127713
0.121451
0.114507
0.107945
0.102151
0.0973391
0.0919612
0.0846752
0.0787007
0.0718862
0.0632409
0.0566984
0.049514
0.041138
0.0340652
0.0260662
0.0174657
0.00902084
0.00263279
1.59018
1.42352
1.37015
1.31473
1.2578
1.21104
1.16631
1.12318
1.08135
1.04005
0.998482
0.95627
0.913461
0.86994
0.825723
0.78081
0.735302
0.68935
0.643105
0.596862
0.55081
0.505251
0.460588
0.417027
0.375057
0.335043
0.297438
0.263539
0.232332
0.203718
0.177894
0.155086
0.135531
0.119267
0.106116
0.0959547
0.0885568
0.0836232
0.0809404
0.0802032
0.0811258
0.083421
0.0868343
0.0911073
0.0960063
0.10133
0.106897
0.112528
0.118074
0.123419
0.12846
0.133074
0.137364
0.14129
0.144305
0.14671
0.149333
0.152852
0.15618
0.15647
0.15554
0.154737
0.153777
0.152905
0.151156
0.149308
0.147352
0.144228
0.140179
0.136012
0.131835
0.126848
0.121237
0.115372
0.109309
0.103265
0.097407
0.0912853
0.0848806
0.0783483
0.0711116
0.0636663
0.0565347
0.0488573
0.0410382
0.0334595
0.0253506
0.0169266
0.00831944
0.00215602
1.54546
1.39248
1.34506
1.29492
1.24386
1.2004
1.15803
1.11648
1.07548
1.03449
0.992984
0.950853
0.907897
0.864134
0.819555
0.774135
0.728119
0.681522
0.634613
0.587638
0.540804
0.494543
0.449139
0.404965
0.36247
0.321995
0.284024
0.249066
0.217298
0.188276
0.162412
0.139858
0.120767
0.105
0.0924519
0.0829785
0.0762626
0.0721521
0.0702481
0.0703148
0.0720192
0.075094
0.079246
0.0842301
0.089803
0.0957582
0.101911
0.108098
0.114169
0.120013
0.125542
0.130664
0.135365
0.139513
0.143027
0.146276
0.14932
0.151875
0.153872
0.154705
0.154827
0.154433
0.153645
0.15243
0.150786
0.148872
0.146359
0.143274
0.139745
0.135738
0.13131
0.126457
0.121242
0.11557
0.109667
0.103677
0.0976586
0.0914222
0.0847995
0.0780878
0.0710911
0.0637618
0.0564551
0.0489287
0.0412131
0.033449
0.0253548
0.0169138
0.00830366
0.00227291
1.52185
1.37601
1.33129
1.28256
1.23369
1.19138
1.14994
1.10913
1.06859
1.02773
0.986278
0.943995
0.900774
0.856608
0.811456
0.765414
0.718611
0.671144
0.623361
0.575358
0.527589
0.480296
0.433882
0.388786
0.345379
0.304175
0.265497
0.229838
0.197395
0.168168
0.142401
0.120128
0.101456
0.0862915
0.0744884
0.0658499
0.0600991
0.056948
0.0560848
0.0572036
0.0599674
0.0640745
0.0692268
0.0751588
0.0816248
0.0884187
0.0953494
0.102252
0.108987
0.115451
0.121532
0.127171
0.132318
0.136937
0.141012
0.14461
0.147694
0.150268
0.152242
0.153368
0.153767
0.153627
0.152983
0.151879
0.150316
0.148268
0.145732
0.142723
0.139213
0.13525
0.130892
0.126124
0.120987
0.115487
0.109744
0.103798
0.0977047
0.0913602
0.0847702
0.0780109
0.0710024
0.0637606
0.0564294
0.0489182
0.0412426
0.033412
0.025285
0.0168527
0.00824434
0.00222913
1.49916
1.35615
1.31367
1.2671
1.22081
1.18027
1.1402
1.10031
1.06027
1.01967
0.978196
0.935713
0.892129
0.847375
0.801581
0.754662
0.706944
0.658416
0.609443
0.560253
0.51116
0.462592
0.414942
0.36863
0.324142
0.28189
0.242379
0.205902
0.17291
0.143388
0.117655
0.0956735
0.0775388
0.0631326
0.0522384
0.0446941
0.040117
0.0382475
0.0386928
0.0411227
0.0451796
0.050553
0.0569238
0.0640206
0.0715873
0.0794142
0.0872954
0.095073
0.102619
0.109813
0.11658
0.122841
0.128555
0.133687
0.138214
0.142146
0.145497
0.148251
0.150356
0.151727
0.152412
0.152506
0.152049
0.151061
0.149567
0.147581
0.145087
0.142117
0.138681
0.134793
0.130493
0.1258
0.120751
0.115363
0.109692
0.103782
0.0976524
0.0912932
0.0847025
0.077923
0.0709306
0.0637392
0.0564159
0.0489101
0.0412623
0.0334545
0.0253804
0.0169596
0.00826513
0.00221792
1.48128
1.34019
1.29922
1.25379
1.20893
1.16946
1.13022
1.0909
1.05118
1.01064
0.969071
0.926226
0.882124
0.836685
0.789984
0.742063
0.693171
0.643318
0.59301
0.542279
0.491729
0.441607
0.392395
0.344649
0.298752
0.255335
0.214725
0.177483
0.143867
0.114091
0.0884182
0.0667947
0.0493179
0.0357805
0.0260116
0.0197374
0.0165618
0.0161931
0.0181704
0.022164
0.0277747
0.0346526
0.0424784
0.0509493
0.0598043
0.068837
0.0778415
0.0866542
0.0951401
0.103198
0.110738
0.117709
0.12405
0.129745
0.134779
0.139147
0.142846
0.145877
0.148217
0.149859
0.150812
0.15114
0.150874
0.150034
0.148659
0.146757
0.144349
0.141453
0.138089
0.134283
0.130052
0.125436
0.120464
0.115153
0.109542
0.103662
0.0975521
0.0911954
0.0846155
0.0778312
0.0708476
0.063671
0.0563529
0.0488703
0.0412245
0.0333919
0.0252958
0.0168552
0.0082336
0.00227598
1.46552
1.32527
1.28522
1.24083
1.19702
1.15833
1.11977
1.08095
1.04137
1.0008
0.958904
0.91563
0.870851
0.824549
0.776866
0.727714
0.677479
0.626146
0.57417
0.521778
0.46938
0.417465
0.36649
0.317036
0.269573
0.224702
0.182944
0.144725
0.110465
0.0804264
0.0548066
0.033627
0.0168945
0.00442977
-0.00402763
-0.00880762
-0.0103157
-0.00895231
-0.00517459
0.000615375
0.00799696
0.0166057
0.0260827
0.0361222
0.0464578
0.0568659
0.0671345
0.0771127
0.086668
0.0956905
0.104109
0.111862
0.118912
0.125236
0.130826
0.135672
0.139789
0.143175
0.145829
0.147766
0.148996
0.149561
0.149501
0.148839
0.147604
0.145829
0.143527
0.140725
0.137449
0.133722
0.129574
0.12503
0.120126
0.114884
0.109326
0.103492
0.097397
0.0910612
0.0845069
0.0777427
0.0707857
0.0636486
0.0563399
0.0488597
0.0412472
0.033423
0.0253226
0.0168937
0.00826259
0.00229999
1.45157
1.31182
1.27239
1.22862
1.1855
1.14741
1.10926
1.07057
1.03105
0.990286
0.948057
0.904134
0.858561
0.811272
0.762323
0.711835
0.659995
0.606954
0.553141
0.498762
0.444386
0.390429
0.337402
0.286017
0.236732
0.190281
0.147156
0.107919
0.0730083
0.0426577
0.0172051
-0.00347649
-0.0192865
-0.0305572
-0.0375502
-0.0406322
-0.0402861
-0.0369519
-0.0311479
-0.0233253
-0.0139373
-0.00339404
0.00793743
0.019735
0.0317089
0.043641
0.0553163
0.0665811
0.0773129
0.0874047
0.0967851
0.105408
0.11323
0.120242
0.126444
0.131824
0.1364
0.140188
0.143198
0.145459
0.146982
0.147809
0.147972
0.147502
0.146442
0.144804
0.142628
0.139933
0.136758
0.133119
0.129051
0.124586
0.119751
0.11457
0.109066
0.103275
0.0972123
0.0909061
0.0843612
0.0776142
0.0706687
0.0635218
0.056251
0.048775
0.041154
0.0334087
0.0253758
0.0169797
0.00823488
0.00217086
1.43895
1.29946
1.26044
1.2171
1.17439
1.13661
1.09864
1.06003
1.02038
0.979307
0.936477
0.891852
0.845333
0.796873
0.746619
0.694544
0.640988
0.586049
0.530144
0.473636
0.416949
0.360714
0.305455
0.25189
0.200651
0.152396
0.107828
0.0674675
0.0317981
0.0012117
-0.0241319
-0.0441678
-0.0589988
-0.0688899
-0.074165
-0.0753484
-0.0729052
-0.0673911
-0.0593448
-0.0492934
-0.0377087
-0.025037
-0.0116823
0.00202025
0.0157887
0.0293688
0.0425662
0.0552342
0.067231
0.0784709
0.0888918
0.0984391
0.107094
0.114844
0.121699
0.127651
0.132735
0.136972
0.140377
0.142981
0.144811
0.145911
0.14632
0.146061
0.145172
0.143695
0.141655
0.139084
0.136011
0.132472
0.128493
0.124104
0.11934
0.114219
0.108767
0.103029
0.0970041
0.0907265
0.0842172
0.0774942
0.0705805
0.0634823
0.0562026
0.0487473
0.0411723
0.0333894
0.0252645
0.0168508
0.00826703
0.00231645
1.42744
1.28811
1.24927
1.2062
1.16371
1.12603
1.08812
1.04946
1.00955
0.967974
0.924519
0.879026
0.8314
0.78169
0.729877
0.676113
0.620625
0.563575
0.505451
0.446513
0.387425
0.328699
0.270964
0.21508
0.161595
0.111492
0.0652636
0.0237409
-0.0126698
-0.0435317
-0.0686048
-0.0879561
-0.101605
-0.109983
-0.113447
-0.112525
-0.107815
-0.09991
-0.089436
-0.0769443
-0.0629893
-0.0480383
-0.0325028
-0.0167522
-0.00108399
0.0142657
0.029083
0.0432206
0.0565604
0.0690183
0.0805363
0.091069
0.100603
0.109136
0.116678
0.123243
0.128861
0.133569
0.137388
0.140364
0.142522
0.14391
0.144571
0.144528
0.143837
0.142521
0.14063
0.138191
0.135237
0.131793
0.127905
0.123599
0.118901
0.113845
0.108451
0.102756
0.09677
0.0905284
0.0840483
0.0773486
0.0704472
0.0633605
0.0561047
0.0486949
0.0411131
0.0333134
0.0252407
0.0168472
0.00824608
0.00230198
1.41685
1.27758
1.23889
1.19592
1.1535
1.11571
1.07772
1.03901
0.998652
0.956463
0.912226
0.865713
0.816945
0.765785
0.712371
0.656773
0.599219
0.539935
0.479361
0.417908
0.356115
0.294741
0.234362
0.175939
0.120187
0.0679752
0.020141
-0.0226711
-0.0598484
-0.0909318
-0.115771
-0.134279
-0.146711
-0.153384
-0.154796
-0.151608
-0.144437
-0.133993
-0.12092
-0.10587
-0.0894058
-0.0720334
-0.0542173
-0.0363163
-0.0186423
-0.00145127
0.0150595
0.0307479
0.0454892
0.0592112
0.0718658
0.0834137
0.0938665
0.103206
0.111465
0.118663
0.124846
0.130041
0.134296
0.137652
0.140147
0.141831
0.142747
0.142935
0.142444
0.141305
0.139569
0.137264
0.134422
0.13109
0.127291
0.123066
0.118448
0.113453
0.108114
0.102464
0.096523
0.0903225
0.0838725
0.0771986
0.070315
0.0632563
0.0559739
0.0485538
0.0411304
0.0333827
0.0252505
0.0168571
0.00823281
0.00228522
1.40709
1.26784
1.22916
1.18627
1.14382
1.10587
1.0677
1.02861
0.987789
0.944899
0.899777
0.852253
0.802138
0.749506
0.694323
0.636748
0.577004
0.515352
0.452215
0.388039
0.323525
0.259275
0.196174
0.135081
0.0768621
0.0225645
-0.0270784
-0.0711384
-0.109082
-0.140379
-0.164807
-0.182448
-0.193443
-0.198339
-0.19763
-0.192029
-0.182289
-0.169151
-0.153367
-0.135621
-0.116539
-0.0966696
-0.0764754
-0.0563498
-0.0366153
-0.0175225
0.000730355
0.0179947
0.0341708
0.0491863
0.0630067
0.0755997
0.0869789
0.0971533
0.106143
0.113991
0.120741
0.126445
0.131142
0.134889
0.137727
0.139711
0.140894
0.141317
0.141027
0.140065
0.138487
0.136315
0.133597
0.130371
0.126668
0.122528
0.117975
0.113052
0.107772
0.102167
0.096268
0.090098
0.0836895
0.0770478
0.0701969
0.0631585
0.0559476
0.0485745
0.0410448
0.0332613
0.0252144
0.0168623
0.00820962
0.00227166
1.39807
1.25881
1.2201
1.17718
1.13458
1.09643
1.05797
1.01855
0.977062
0.933429
0.887384
0.838653
0.787232
0.732989
0.676012
0.6164
0.554415
0.490236
0.424475
0.357494
0.290022
0.222921
0.156875
0.093073
0.0323579
-0.0241426
-0.0755421
-0.120916
-0.159581
-0.191029
-0.215051
-0.231698
-0.241255
-0.244208
-0.241225
-0.233115
-0.220686
-0.204782
-0.186207
-0.165711
-0.143959
-0.121533
-0.0989261
-0.0765432
-0.0547191
-0.0336974
-0.0136887
0.00517875
0.0228065
0.0391255
0.0541147
0.0677618
0.0800717
0.0910738
0.100801
0.109302
0.116628
0.122836
0.127973
0.13211
0.135293
0.137587
0.139033
0.139686
0.139602
0.138825
0.137401
0.135368
0.132771
0.129651
0.126043
0.121988
0.11751
0.112642
0.107419
0.101865
0.0960087
0.0898824
0.0835003
0.0768831
0.0700615
0.0630348
0.0558424
0.048467
0.0409522
0.0332289
0.0251663
0.0168109
0.00822108
0.00229436
1.38975
1.25048
1.21171
1.16868
1.12596
1.08747
1.04865
1.00872
0.96666
0.922196
0.875174
0.82527
0.772426
0.716543
0.6577
0.595987
0.531634
0.464994
0.396452
0.326637
0.256265
0.186106
0.117222
0.0505885
-0.0126534
-0.071356
-0.124526
-0.17116
-0.210511
-0.242046
-0.265559
-0.281156
-0.289117
-0.290122
-0.284827
-0.274145
-0.258997
-0.240289
-0.218892
-0.19563
-0.171196
-0.146208
-0.121191
-0.0965568
-0.0726464
-0.0497113
-0.0279466
-0.00749167
0.0115618
0.0291743
0.0453198
0.0600002
0.0732377
0.0850635
0.0955212
0.104668
0.112565
0.119276
0.124855
0.129377
0.132902
0.135488
0.137196
0.13808
0.138197
0.137593
0.136327
0.134429
0.131952
0.12894
0.125424
0.121446
0.117039
0.112241
0.107073
0.101565
0.0957513
0.0896558
0.083314
0.07673
0.0699325
0.0629412
0.0557738
0.0484379
0.0409323
0.0332012
0.0251855
0.0168481
0.00818685
0.00223534
1.38214
1.24281
1.20395
1.16082
1.11786
1.07926
1.03993
0.999276
0.95656
0.91134
0.863301
0.812197
0.757931
0.700413
0.639704
0.575892
0.509233
0.440011
0.368781
0.29609
0.222714
0.149656
0.0777769
0.00843693
-0.057329
-0.118203
-0.173106
-0.220927
-0.260896
-0.292466
-0.315422
-0.329924
-0.33631
-0.335282
-0.327652
-0.314408
-0.296539
-0.275046
-0.250864
-0.224863
-0.197785
-0.170288
-0.142901
-0.116057
-0.0901055
-0.065298
-0.041824
-0.0198194
0.000639895
0.0195087
0.0367809
0.0524685
0.0666082
0.0792341
0.0904018
0.100172
0.108617
0.11581
0.121818
0.126715
0.13057
0.133448
0.135416
0.136522
0.136834
0.136408
0.135285
0.133524
0.131165
0.12825
0.124824
0.120928
0.116587
0.111844
0.106727
0.101268
0.0954992
0.0894422
0.0831248
0.0765696
0.0697937
0.0628088
0.0556529
0.0483205
0.0408372
0.0331305
0.0251851
0.0168683
0.00815514
0.00221759
1.3752
1.23585
1.19686
1.15359
1.11038
1.07144
1.03167
0.990511
0.947125
0.901054
0.852019
0.799683
0.74403
0.684863
0.622309
0.556405
0.487438
0.415756
0.341811
0.266335
0.190082
0.114061
0.0393968
-0.0326779
-0.100862
-0.163805
-0.22035
-0.269282
-0.309799
-0.341319
-0.363689
-0.377029
-0.381792
-0.378782
-0.368844
-0.353092
-0.332583
-0.30839
-0.281513
-0.252873
-0.223256
-0.193329
-0.163671
-0.134708
-0.106799
-0.080195
-0.0550818
-0.0315917
-0.0097992
0.010276
0.0286272
0.0452746
0.0602705
0.0736658
0.0855025
0.0958809
0.104853
0.112511
0.118929
0.124186
0.128355
0.131508
0.133714
0.135038
0.135537
0.135271
0.134293
0.132657
0.13041
0.127594
0.12425
0.120425
0.116153
0.111468
0.106402
0.100994
0.0952599
0.0892362
0.0829515
0.0764194
0.069679
0.0627359
0.0556109
0.0483
0.0408033
0.0331226
0.0251717
0.0168562
0.00814105
0.00217304
1.36898
1.22954
1.19046
1.14701
1.10354
1.06429
1.02411
0.982399
0.938335
0.891454
0.841404
0.787941
0.730895
0.670198
0.605829
0.537986
0.466776
0.392692
0.316193
0.237981
0.158971
0.0801732
0.00275658
-0.0718137
-0.142365
-0.207226
-0.265298
-0.315226
-0.356185
-0.387628
-0.409318
-0.42157
-0.424757
-0.419824
-0.407689
-0.38953
-0.366506
-0.339747
-0.310316
-0.279181
-0.247159
-0.214954
-0.183149
-0.152196
-0.122443
-0.0941522
-0.0675046
-0.0426232
-0.0195628
0.00163824
0.0209995
0.0385536
0.0543521
0.0684544
0.0809269
0.0918606
0.101331
0.109422
0.116221
0.121815
0.126277
0.12969
0.132127
0.133647
0.134323
0.134216
0.13337
0.131853
0.129707
0.12698
0.123716
0.119959
0.115745
0.111115
0.106099
0.100723
0.0950279
0.0890344
0.0827766
0.076267
0.0695362
0.0625763
0.0554475
0.0481976
0.0407419
0.0330553
0.0250914
0.0168486
0.00816457
0.00215957
1.36347
1.22397
1.18472
1.14115
1.09744
1.05778
1.01726
0.975118
0.930358
0.882708
0.831716
0.777139
0.718817
0.656614
0.590599
0.520834
0.447576
0.371258
0.292319
0.211627
0.130001
0.0485774
-0.031303
-0.108305
-0.180893
-0.247612
-0.306981
-0.357781
-0.399128
-0.430391
-0.451493
-0.462587
-0.464294
-0.457525
-0.443338
-0.422958
-0.397612
-0.368492
-0.336718
-0.303289
-0.269061
-0.234765
-0.200993
-0.16821
-0.136764
-0.106928
-0.0788734
-0.0527081
-0.0285054
-0.00626728
0.0140171
0.0323939
0.0489279
0.0636871
0.0767349
0.0881861
0.0981079
0.106599
0.113751
0.119648
0.124386
0.12803
0.130676
0.13238
0.133214
0.133244
0.132525
0.131112
0.129063
0.126416
0.123226
0.119531
0.115377
0.110793
0.105818
0.100486
0.0948245
0.0888629
0.0826281
0.0761417
0.0694441
0.0625392
0.055444
0.0481617
0.0406745
0.0330094
0.0249883
0.0166829
0.00816074
0.00227051
1.35868
1.21914
1.17978
1.13606
1.09207
1.05214
1.01123
0.968635
0.923287
0.874881
0.823048
0.767463
0.707983
0.64446
0.576905
0.505452
0.430307
0.351895
0.270806
0.187771
0.103833
0.0200521
-0.0621114
-0.14121
-0.215757
-0.283949
-0.344562
-0.396078
-0.437694
-0.468784
-0.489223
-0.499316
-0.499664
-0.491254
-0.475201
-0.452817
-0.425383
-0.394139
-0.360267
-0.324785
-0.288586
-0.25242
-0.216897
-0.182475
-0.149527
-0.118312
-0.0889994
-0.0617006
-0.036461
-0.0132966
0.00781491
0.0269234
0.0441059
0.059439
0.0730105
0.0849092
0.0952407
0.104086
0.111548
0.117723
0.122696
0.126555
0.129384
0.131249
0.132228
0.132383
0.131771
0.130457
0.128486
0.125917
0.122789
0.119152
0.115045
0.110504
0.105566
0.100263
0.0946369
0.0886932
0.0824801
0.0760192
0.0693233
0.0624191
0.0553238
0.0480443
0.040601
0.0329413
0.0249296
0.0166647
0.00814863
0.00228034
1.35467
1.21506
1.17561
1.13172
1.08757
1.04737
1.00612
0.963041
0.91717
0.868191
0.815576
0.759127
0.698599
0.633864
0.564999
0.492015
0.415221
0.335062
0.252032
0.167023
0.0810003
-0.00483681
-0.0889305
-0.169938
-0.246031
-0.315619
-0.377156
-0.42925
-0.471088
-0.501957
-0.521859
-0.531018
-0.530128
-0.520278
-0.502612
-0.478498
-0.449267
-0.416206
-0.380523
-0.343276
-0.305383
-0.267616
-0.230573
-0.194754
-0.16051
-0.128104
-0.0977108
-0.0694314
-0.0433156
-0.01936
0.00245982
0.0222066
0.0399548
0.0557885
0.0698012
0.0820972
0.0927696
0.101923
0.109655
0.116066
0.12125
0.125284
0.128279
0.130282
0.131378
0.131643
0.131127
0.129894
0.128001
0.125488
0.122414
0.118825
0.114761
0.110256
0.105354
0.100086
0.094477
0.0885624
0.0823661
0.07592
0.069255
0.0623705
0.0553005
0.0480431
0.0405848
0.0329389
0.0249202
0.0166375
0.00813871
0.00228272
1.35142
1.21178
1.17223
1.12825
1.08392
1.04352
1.00193
0.958439
0.912185
0.862633
0.809444
0.752224
0.690861
0.625173
0.555161
0.480958
0.402797
0.321065
0.236476
0.14976
0.0620465
-0.0255003
-0.11122
-0.193728
-0.271184
-0.341775
-0.40408
-0.456649
-0.498599
-0.529298
-0.548674
-0.55706
-0.555198
-0.544134
-0.525139
-0.499591
-0.468876
-0.434312
-0.397145
-0.358456
-0.319172
-0.280081
-0.241806
-0.204826
-0.169518
-0.136143
-0.10486
-0.0757813
-0.048937
-0.024332
-0.00191921
0.018345
0.0365523
0.0527946
0.0671773
0.0797897
0.0907485
0.100152
0.108102
0.114706
0.120054
0.124246
0.127362
0.129483
0.130682
0.131033
0.130592
0.129427
0.127587
0.125131
0.122105
0.118553
0.114526
0.110051
0.105175
0.0999249
0.0943428
0.088441
0.0822623
0.0758362
0.0691656
0.0622897
0.0552219
0.0479513
0.0405155
0.0328638
0.0248704
0.0166143
0.00811488
0.00228694
1.34897
1.20929
1.16966
1.12562
1.08112
1.04061
0.99879
0.954974
0.908367
0.85846
0.80471
0.746973
0.684897
0.61842
0.54757
0.472373
0.393132
0.310328
0.224449
0.136497
0.0474448
-0.0414323
-0.12838
-0.212113
-0.290632
-0.361935
-0.424734
-0.47761
-0.519707
-0.550238
-0.56925
-0.577024
-0.574327
-0.562369
-0.542345
-0.51571
-0.483864
-0.448161
-0.409855
-0.370057
-0.329714
-0.289621
-0.250392
-0.212539
-0.176417
-0.142291
-0.110331
-0.0806349
-0.0532372
-0.0281317
-0.00527795
0.0153891
0.0339444
0.0505022
0.0651587
0.0780225
0.0891932
0.0987941
0.106911
0.113663
0.119147
0.123447
0.126669
0.128873
0.13015
0.130567
0.130189
0.129071
0.127281
0.124862
0.121867
0.11835
0.114343
0.109898
0.105039
0.0998089
0.0942378
0.0883591
0.0821933
0.0757733
0.0691237
0.0622538
0.0552071
0.0479538
0.0405233
0.032887
0.0248795
0.0166086
0.00811273
0.00228635
1.34734
1.20761
1.16794
1.12382
1.07926
1.03852
0.996582
0.952725
0.905836
0.855574
0.801556
0.743367
0.680892
0.613905
0.542439
0.466601
0.386633
0.302976
0.216272
0.127423
0.0374496
-0.0522828
-0.140137
-0.224639
-0.30405
-0.375572
-0.438534
-0.491764
-0.533988
-0.564418
-0.583127
-0.590492
-0.587298
-0.574692
-0.553979
-0.526597
-0.493987
-0.457507
-0.418439
-0.377898
-0.336837
-0.29606
-0.256196
-0.217746
-0.181074
-0.146448
-0.114031
-0.083918
-0.0561451
-0.030707
-0.00755493
0.013378
0.0321773
0.0489505
0.0638032
0.0768322
0.088155
0.0978784
0.106114
0.11296
0.118532
0.122912
0.126195
0.128463
0.129789
0.130252
0.12991
0.128829
0.127067
0.124676
0.121707
0.118207
0.114227
0.109792
0.104946
0.0997307
0.0941694
0.0883
0.0821353
0.075727
0.0690737
0.0622129
0.0551534
0.0478968
0.0404785
0.0328286
0.0248653
0.0166554
0.00810405
0.00220853
1.34652
1.20677
1.16708
1.12292
1.07828
1.03745
0.995533
0.951627
0.904569
0.854175
0.799922
0.741575
0.678819
0.611561
0.539812
0.463618
0.383302
0.299278
0.212146
0.122862
0.0324303
-0.057774
-0.146115
-0.231097
-0.311075
-0.382858
-0.445359
-0.498561
-0.541102
-0.571508
-0.590128
-0.597288
-0.593803
-0.580892
-0.559836
-0.532081
-0.499084
-0.462218
-0.422767
-0.381847
-0.340424
-0.299309
-0.259122
-0.220372
-0.183426
-0.148548
-0.115906
-0.0855819
-0.0575988
-0.0319818
-0.00869255
0.0123737
0.0312881
0.0481668
0.0631121
0.0762228
0.0876185
0.0974126
0.105704
0.112603
0.118218
0.122635
0.125956
0.12825
0.129606
0.130091
0.129772
0.128705
0.126964
0.124585
0.121625
0.11814
0.114159
0.109736
0.104896
0.0996846
0.0941307
0.0882646
0.0821147
0.0757099
0.0690682
0.062207
0.0551599
0.0479104
0.0404852
0.0328502
0.0248405
0.016583
0.00811791
0.00228448
1.34651
1.20676
1.16708
1.1229
1.07828
1.03742
0.995517
0.951627
0.904575
0.854158
0.79993
0.741574
0.678813
0.611589
0.539811
0.463633
0.383314
0.299256
0.212134
0.122846
0.0324126
-0.0577856
-0.146116
-0.231079
-0.311036
-0.382816
-0.445387
-0.498582
-0.541112
-0.571509
-0.590107
-0.597271
-0.593794
-0.580881
-0.559825
-0.532067
-0.499075
-0.462213
-0.422765
-0.38184
-0.340419
-0.299302
-0.259116
-0.220371
-0.183418
-0.14854
-0.115894
-0.0855717
-0.0576112
-0.0320045
-0.00870316
0.0123671
0.031284
0.0481613
0.0631105
0.0762184
0.0876167
0.0974102
0.105701
0.112598
0.11822
0.122635
0.125951
0.128246
0.129598
0.130086
0.129762
0.1287
0.126954
0.124578
0.121621
0.118137
0.11416
0.109731
0.104894
0.0996813
0.0941306
0.0882619
0.0821088
0.0757052
0.069055
0.0621952
0.0551429
0.0478833
0.0404614
0.0328132
0.0248329
0.0165969
0.00810374
0.00227241
1.34734
1.20761
1.16793
1.12381
1.07923
1.0385
0.996586
0.952752
0.905848
0.855585
0.801547
0.743354
0.680882
0.613848
0.542422
0.466564
0.3866
0.302993
0.216278
0.127447
0.0374656
-0.0522662
-0.140121
-0.22464
-0.304043
-0.375604
-0.438514
-0.491764
-0.533953
-0.564385
-0.583112
-0.590467
-0.587269
-0.574663
-0.553951
-0.526568
-0.493955
-0.457486
-0.41842
-0.377877
-0.33682
-0.296044
-0.256187
-0.217739
-0.181071
-0.146446
-0.114027
-0.0839166
-0.0561441
-0.0307034
-0.00754841
0.0133842
0.0321754
0.0489439
0.0637906
0.0768152
0.0881394
0.0978659
0.106101
0.112948
0.118518
0.122899
0.12618
0.128447
0.129777
0.130237
0.129899
0.128814
0.127056
0.124666
0.121696
0.118202
0.114211
0.10978
0.104934
0.0997165
0.0941599
0.0882863
0.0821316
0.0757207
0.0690802
0.0622186
0.0551689
0.0479239
0.0404927
0.0328508
0.0248472
0.016559
0.00810922
0.00230005
1.34896
1.20928
1.16966
1.1256
1.0811
1.04058
0.998757
0.954999
0.908379
0.858441
0.80472
0.746962
0.684882
0.618445
0.54756
0.472369
0.393156
0.310284
0.224443
0.136478
0.0474169
-0.0414311
-0.128395
-0.212076
-0.290626
-0.361878
-0.424694
-0.477588
-0.519669
-0.550213
-0.569178
-0.576971
-0.574277
-0.562323
-0.542308
-0.515664
-0.483823
-0.448122
-0.409826
-0.370029
-0.329688
-0.289596
-0.250371
-0.212525
-0.176404
-0.142283
-0.110329
-0.0806334
-0.0532433
-0.0281378
-0.00528259
0.0153795
0.0339344
0.0504894
0.0651482
0.0780068
0.0891813
0.0987788
0.106899
0.113648
0.119132
0.123435
0.126651
0.128856
0.130131
0.130546
0.130165
0.12905
0.127258
0.124843
0.121853
0.118333
0.114328
0.109876
0.105024
0.0997915
0.0942232
0.0883448
0.0821811
0.075763
0.0691079
0.0622403
0.0551813
0.0479169
0.0404979
0.0328452
0.0249259
0.0166947
0.00805987
0.00218215
1.35142
1.21177
1.17222
1.12826
1.0839
1.04351
1.00193
0.958456
0.912213
0.862649
0.809452
0.752226
0.690871
0.625143
0.555152
0.480946
0.402764
0.321105
0.236471
0.149794
0.0620492
-0.0254787
-0.111197
-0.193715
-0.271137
-0.341762
-0.404023
-0.456625
-0.498551
-0.529255
-0.548619
-0.556999
-0.555139
-0.544068
-0.525077
-0.499528
-0.46881
-0.434261
-0.397096
-0.358409
-0.319135
-0.28005
-0.241782
-0.204805
-0.169505
-0.136133
-0.104852
-0.075779
-0.0489361
-0.0243364
-0.00193041
0.0183367
0.0365375
0.0527769
0.0671586
0.0797677
0.0907268
0.100131
0.10808
0.114682
0.120033
0.124224
0.127339
0.129459
0.130657
0.131004
0.130566
0.129396
0.127562
0.125108
0.122082
0.118533
0.1145
0.110029
0.105156
0.0999071
0.0943213
0.088425
0.0822519
0.0758214
0.0691625
0.0622868
0.0552304
0.0479693
0.0405337
0.0328977
0.0249148
0.0166542
0.0081042
0.00224439
1.35466
1.21506
1.17559
1.13173
1.08755
1.04733
1.00611
0.963092
0.917218
0.868177
0.815594
0.759123
0.698598
0.633886
0.565004
0.492025
0.415248
0.335046
0.252045
0.167018
0.0810158
-0.00481386
-0.0889149
-0.169879
-0.246004
-0.315544
-0.377091
-0.429212
-0.470997
-0.501908
-0.521751
-0.530931
-0.530039
-0.520199
-0.502547
-0.478425
-0.449196
-0.416142
-0.380464
-0.343225
-0.305338
-0.267578
-0.23054
-0.194728
-0.160492
-0.128092
-0.0977085
-0.0694341
-0.0433218
-0.0193732
0.00244748
0.0221879
0.0399297
0.055763
0.0697791
0.0820692
0.0927421
0.101898
0.10963
0.116038
0.121214
0.125259
0.128247
0.130253
0.131348
0.131605
0.131087
0.129854
0.12796
0.125455
0.122386
0.118797
0.114731
0.110225
0.105325
0.100051
0.0944463
0.0885333
0.0823459
0.0759078
0.0692283
0.0623497
0.0552744
0.048003
0.0405618
0.0328974
0.0249114
0.0166579
0.00810801
0.00223059
1.35869
1.21913
1.17977
1.13606
1.09207
1.05213
1.01123
0.968654
0.923321
0.874899
0.823068
0.767475
0.707996
0.644462
0.576895
0.505443
0.4303
0.351923
0.270817
0.187807
0.10384
0.0200728
-0.0620594
-0.1412
-0.215654
-0.283946
-0.344459
-0.396016
-0.437609
-0.468696
-0.489151
-0.499208
-0.499584
-0.491138
-0.475102
-0.452716
-0.42528
-0.394058
-0.36019
-0.32472
-0.28853
-0.252373
-0.216857
-0.182444
-0.149507
-0.118298
-0.0889924
-0.0617024
-0.0364709
-0.0133198
0.00778325
0.026898
0.0440755
0.0594055
0.0729821
0.0848823
0.0952077
0.104053
0.111511
0.117686
0.122656
0.126516
0.129345
0.13121
0.132187
0.132339
0.131728
0.130408
0.128445
0.125875
0.12275
0.119112
0.115004
0.110472
0.105537
0.100239
0.0946024
0.0886716
0.0824638
0.0760049
0.0693132
0.0624174
0.0553295
0.0480475
0.0405901
0.0329266
0.0249014
0.0166009
0.00813489
0.0023108
1.36348
1.22397
1.18471
1.14116
1.09741
1.05779
1.01729
0.975121
0.930416
0.882692
0.831732
0.777146
0.718819
0.656635
0.590624
0.520848
0.447621
0.371248
0.29237
0.211625
0.130029
0.0486277
-0.0312911
-0.108216
-0.180872
-0.247513
-0.306905
-0.357718
-0.399009
-0.430293
-0.451359
-0.46247
-0.46418
-0.457424
-0.44325
-0.422871
-0.397524
-0.368414
-0.336647
-0.303224
-0.269001
-0.234722
-0.20095
-0.168175
-0.136742
-0.106914
-0.0788697
-0.0527145
-0.028509
-0.00627778
0.0139994
0.0323685
0.0488947
0.0636451
0.0766945
0.088141
0.0980626
0.106554
0.113706
0.119605
0.124335
0.127989
0.13063
0.132334
0.133168
0.133193
0.13247
0.131063
0.129009
0.126366
0.123178
0.119487
0.115332
0.11075
0.105777
0.100442
0.0947841
0.088822
0.0826011
0.0761213
0.0694117
0.0625049
0.0554069
0.0481162
0.0406547
0.0329727
0.0249559
0.016662
0.00813738
0.00227844
1.36901
1.22954
1.19043
1.14704
1.10356
1.06429
1.02409
0.982444
0.938379
0.891467
0.841437
0.787933
0.730933
0.670202
0.605854
0.537969
0.466792
0.392698
0.316218
0.238003
0.159009
0.0801892
0.00282384
-0.0717855
-0.142257
-0.207189
-0.265175
-0.315142
-0.356095
-0.387517
-0.40924
-0.421437
-0.424658
-0.419687
-0.407563
-0.38941
-0.366383
-0.339643
-0.310227
-0.279098
-0.247089
-0.214897
-0.183107
-0.152155
-0.122419
-0.0941353
-0.067502
-0.042627
-0.0195787
0.00161338
0.0209645
0.0385163
0.0543111
0.0684099
0.0808812
0.0918137
0.101281
0.10937
0.116169
0.12176
0.126225
0.129633
0.132072
0.133589
0.134266
0.134153
0.133311
0.131788
0.129648
0.126922
0.123659
0.119903
0.11569
0.111069
0.106054
0.100685
0.0949904
0.0890054
0.0827527
0.0762532
0.0695236
0.0625934
0.0554712
0.0481687
0.040687
0.0330085
0.0250484
0.0167862
0.00812824
0.00217742
1.37522
1.23586
1.19685
1.15362
1.11037
1.07148
1.03173
0.990525
0.947147
0.901074
0.852005
0.799726
0.744011
0.684902
0.622332
0.556428
0.487495
0.415767
0.341858
0.26637
0.190102
0.114125
0.0394394
-0.0326101
-0.10078
-0.163749
-0.220251
-0.269196
-0.30968
-0.341201
-0.363545
-0.376889
-0.381677
-0.378654
-0.368736
-0.352986
-0.332483
-0.3083
-0.281434
-0.2528
-0.223188
-0.193284
-0.163625
-0.134675
-0.106773
-0.080182
-0.055085
-0.0316007
-0.00981443
0.0102551
0.0285942
0.0452382
0.0602282
0.0736134
0.0854505
0.0958249
0.104792
0.112447
0.118868
0.124123
0.12829
0.131445
0.133653
0.134972
0.135473
0.135203
0.134224
0.132591
0.130341
0.127525
0.124187
0.120362
0.116091
0.111412
0.106346
0.100942
0.0952143
0.0891965
0.0829171
0.0763915
0.0696433
0.0626979
0.0555675
0.0482458
0.0407594
0.0330555
0.0250082
0.0166993
0.00817433
0.00229212
1.38216
1.24284
1.20398
1.16083
1.1179
1.07914
1.0399
0.999405
0.956641
0.911378
0.863322
0.81222
0.757961
0.700442
0.639711
0.575914
0.509219
0.440046
0.368809
0.296102
0.222791
0.149654
0.0778662
0.0084697
-0.057227
-0.118148
-0.172973
-0.220837
-0.260788
-0.292342
-0.315327
-0.329789
-0.336187
-0.335147
-0.327528
-0.314291
-0.296423
-0.274939
-0.250772
-0.22478
-0.197714
-0.170228
-0.142855
-0.116019
-0.0900824
-0.0652833
-0.0418262
-0.019827
0.000620437
0.019478
0.036742
0.0524203
0.0665586
0.0791769
0.0903394
0.100108
0.108553
0.115742
0.121747
0.126644
0.1305
0.133375
0.13534
0.136448
0.13676
0.136328