/*--------------------------------*- C++ -*----------------------------------*\
  =========                 |
  \\      /  F ield         | OpenFOAM: The Open Source CFD Toolbox
   \\    /   O peration     | Website:  https://openfoam.org
    \\  /    A nd           | Version:  11
     \\/     M anipulation  |
\*---------------------------------------------------------------------------*/
FoamFile
{
    format      ascii;
    class       volScalarField;
    location    "0.098";
    object      k;
}
// * * * * * * * * * * * * * * * * * * * * * * * * * * * * * * * * * * * * * //

dimensions      [0 2 -2 0 0 0 0];

internalField   nonuniform List<scalar> 
287084
(
0.381744
0.393952
0.406316
0.419103
0.430771
0.439696
0.445164
0.447446
0.447851
0.447839
0.447804
0.447734
0.447679
0.447723
0.447732
0.447824
0.447957
0.447851
0.447928
0.447984
0.447969
0.447966
0.44782
0.447933
0.448232
0.448221
0.448195
0.448191
0.448119
0.448025
0.448072
0.448081
0.447952
0.447998
0.448034
0.447991
0.447981
0.447942
0.447909
0.447876
0.447873
0.447859
0.44779
0.447738
0.447655
0.447589
0.447548
0.447484
0.447444
0.44737
0.447212
0.446978
0.447014
0.447124
0.447115
0.447081
0.447106
0.447121
0.447078
0.446979
0.446939
0.447012
0.447065
0.447037
0.446941
0.44711
0.447298
0.447292
0.447284
0.447147
0.447199
0.44729
0.44726
0.447208
0.447099
0.447099
0.447069
0.44717
0.447407
0.447407
0.44738
0.447366
0.447222
0.447205
0.447353
0.447306
0.447397
0.447454
0.447402
0.447197
0.38174
0.393951
0.406189
0.418855
0.430501
0.439565
0.445317
0.447735
0.448191
0.448262
0.448415
0.448319
0.44837
0.448544
0.448517
0.448544
0.44855
0.448535
0.44856
0.448538
0.448479
0.448326
0.448277
0.448504
0.448552
0.448665
0.448792
0.448685
0.448737
0.448761
0.448735
0.448724
0.448687
0.448601
0.44835
0.448285
0.448318
0.448328
0.448294
0.44811
0.448076
0.448116
0.448126
0.448128
0.448136
0.448095
0.447986
0.44782
0.447848
0.447971
0.447954
0.447965
0.44792
0.447913
0.447917
0.447922
0.447893
0.447868
0.447854
0.447824
0.447757
0.447555
0.447513
0.447743
0.447811
0.447768
0.447614
0.447598
0.44776
0.447828
0.4478
0.447663
0.447714
0.447956
0.447993
0.447972
0.447922
0.447891
0.447869
0.447746
0.447705
0.447762
0.447826
0.447798
0.447734
0.447726
0.447638
0.447708
0.447739
0.447564
0.381739
0.393961
0.406139
0.41886
0.430504
0.439419
0.445194
0.447886
0.44855
0.448556
0.448512
0.448366
0.44838
0.448499
0.44849
0.448459
0.448289
0.448281
0.44859
0.448693
0.448691
0.44869
0.448504
0.448516
0.448712
0.44873
0.448703
0.448718
0.448726
0.448702
0.448688
0.448623
0.448636
0.448618
0.448581
0.448532
0.448525
0.44851
0.448516
0.448513
0.448476
0.448325
0.448073
0.447978
0.448004
0.448021
0.44799
0.447874
0.447812
0.447872
0.447948
0.447939
0.447909
0.44788
0.447882
0.447889
0.447797
0.447811
0.447817
0.447763
0.44765
0.447533
0.447614
0.447708
0.447669
0.447521
0.44752
0.447736
0.447702
0.44781
0.447906
0.447905
0.447893
0.447885
0.447894
0.447887
0.447883
0.447741
0.447646
0.447661
0.447681
0.447654
0.447618
0.447596
0.447533
0.44762
0.447896
0.447889
0.447849
0.447639
0.381738
0.393921
0.406166
0.418862
0.430433
0.439334
0.445108
0.447914
0.448586
0.448598
0.448525
0.448581
0.448724
0.448698
0.448666
0.448645
0.448634
0.448463
0.448434
0.448525
0.448515
0.44855
0.448517
0.448452
0.448432
0.448558
0.44861
0.448594
0.448587
0.4484
0.448416
0.448575
0.448462
0.448543
0.448624
0.448608
0.448625
0.448595
0.44856
0.448511
0.448497
0.44843
0.448421
0.448422
0.448396
0.448245
0.448134
0.448057
0.448024
0.447951
0.447746
0.447696
0.447752
0.447765
0.447715
0.447727
0.447751
0.447745
0.44774
0.447602
0.447692
0.447781
0.447758
0.447754
0.447725
0.447723
0.447742
0.447702
0.447563
0.447582
0.447771
0.447716
0.447809
0.447871
0.447859
0.447857
0.44773
0.447729
0.447696
0.447798
0.44797
0.447978
0.447978
0.447827
0.447825
0.447888
0.447845
0.447846
0.44784
0.447656
0.381739
0.393899
0.406211
0.418803
0.43036
0.439484
0.444979
0.447762
0.448622
0.448651
0.448601
0.44843
0.448437
0.448531
0.448452
0.448474
0.448441
0.448391
0.448337
0.448433
0.448527
0.448486
0.448376
0.448342
0.448466
0.448455
0.448515
0.448528
0.448407
0.448471
0.448601
0.44843
0.448485
0.448597
0.448568
0.448534
0.448512
0.448431
0.448338
0.448294
0.448183
0.448264
0.448317
0.448185
0.448231
0.448248
0.448134
0.448185
0.448202
0.44813
0.448124
0.448132
0.448136
0.448076
0.44806
0.448026
0.447956
0.44781
0.447525
0.447515
0.447617
0.447565
0.447612
0.447667
0.447646
0.447628
0.447517
0.447403
0.447532
0.447659
0.447625
0.447534
0.447481
0.447663
0.447697
0.4478
0.447969
0.447804
0.447851
0.447962
0.447813
0.44789
0.447969
0.447967
0.447964
0.447743
0.447752
0.447822
0.447796
0.447664
0.381736
0.393924
0.406163
0.418767
0.430479
0.439461
0.444961
0.447358
0.448432
0.448516
0.44836
0.448426
0.448498
0.448501
0.448501
0.448438
0.448324
0.448316
0.448542
0.448619
0.448619
0.448592
0.448574
0.448406
0.448425
0.448499
0.448443
0.448383
0.448485
0.448655
0.448507
0.448582
0.448655
0.448649
0.448648
0.448609
0.448586
0.448437
0.448348
0.448273
0.448052
0.448055
0.44813
0.448086
0.448093
0.448101
0.448104
0.448044
0.447942
0.447783
0.447791
0.447859
0.44784
0.447818
0.447721
0.447782
0.447852
0.447791
0.447811
0.447825
0.447798
0.447656
0.447687
0.447734
0.447716
0.447713
0.447573
0.447574
0.447575
0.447699
0.447936
0.4479
0.447928
0.447934
0.447897
0.447823
0.4477
0.447666
0.447636
0.447758
0.447926
0.447947
0.447915
0.447812
0.447797
0.44768
0.447752
0.447884
0.447849
0.447719
0.381735
0.393901
0.406185
0.41872
0.430554
0.439368
0.444892
0.447633
0.448423
0.448465
0.448446
0.448437
0.44826
0.448268
0.448413
0.448335
0.448399
0.448841
0.44894
0.448827
0.448914
0.449031
0.449017
0.449019
0.448997
0.448986
0.448806
0.448845
0.448885
0.448838
0.44885
0.448825
0.448798
0.448756
0.448684
0.448651
0.44861
0.448579
0.448512
0.448343
0.448305
0.448249
0.448215
0.44821
0.448198
0.448184
0.448133
0.448101
0.448048
0.448023
0.447993
0.447947
0.447849
0.447752
0.447726
0.447673
0.447647
0.447642
0.447543
0.447521
0.4476
0.447609
0.447689
0.447725
0.447689
0.447626
0.447541
0.447628
0.447736
0.447699
0.447559
0.447547
0.447646
0.447644
0.447652
0.447606
0.447619
0.447605
0.447709
0.44776
0.447736
0.447668
0.44768
0.447859
0.447866
0.447858
0.447696
0.447705
0.447793
0.447627
0.381763
0.393863
0.406165
0.418903
0.430361
0.439211
0.444925
0.447991
0.448983
0.449031
0.448987
0.448935
0.448939
0.449001
0.448977
0.448864
0.448951
0.449068
0.449045
0.449043
0.448996
0.448986
0.448832
0.448876
0.449029
0.448911
0.449
0.449083
0.44906
0.449057
0.448997
0.449004
0.448936
0.44892
0.448941
0.448933
0.448934
0.448884
0.448699
0.448574
0.448444
0.448389
0.448322
0.448295
0.448291
0.448252
0.448264
0.448242
0.448224
0.448181
0.448154
0.44808
0.447869
0.447814
0.44789
0.447963
0.447934
0.447846
0.447835
0.447733
0.447808
0.447959
0.447846
0.447917
0.448012
0.447987
0.447985
0.447955
0.447949
0.447874
0.44767
0.447698
0.447931
0.447937
0.447907
0.447848
0.447754
0.447838
0.447995
0.447923
0.447936
0.447939
0.447933
0.447799
0.447786
0.447869
0.447825
0.447842
0.447827
0.44766
0.38174
0.393916
0.406127
0.418833
0.430439
0.439326
0.44496
0.447698
0.448406
0.448418
0.448382
0.448254
0.44823
0.448433
0.44845
0.448573
0.448746
0.448664
0.448614
0.448726
0.448829
0.448923
0.449055
0.448979
0.448953
0.448923
0.448844
0.44893
0.449093
0.448938
0.449011
0.449094
0.449092
0.44909
0.449039
0.449027
0.448957
0.448941
0.448891
0.448814
0.448624
0.448494
0.448394
0.448174
0.448037
0.44799
0.44786
0.44788
0.447998
0.447948
0.447997
0.44801
0.447937
0.447998
0.448023
0.447997
0.447979
0.447821
0.447738
0.447729
0.447694
0.447639
0.447594
0.447607
0.447581
0.447682
0.447746
0.447716
0.447711
0.447575
0.447674
0.447919
0.447873
0.447885
0.447899
0.447906
0.44788
0.447794
0.447769
0.447732
0.447819
0.448069
0.448036
0.448053
0.448095
0.448092
0.4481
0.448087
0.448011
0.447738
0.381801
0.393851
0.406106
0.418855
0.430443
0.439337
0.444992
0.447565
0.448079
0.447997
0.448036
0.448403
0.448508
0.448484
0.44846
0.448346
0.4484
0.448675
0.448697
0.448695
0.448667
0.448671
0.448657
0.44849
0.448545
0.448711
0.448704
0.448703
0.448609
0.44862
0.448567
0.448662
0.448723
0.448681
0.448693
0.44866
0.448625
0.448588
0.448568
0.448491
0.448294
0.448239
0.44818
0.44819
0.448192
0.448163
0.448157
0.448078
0.448066
0.448012
0.447904
0.447771
0.447645
0.447605
0.447546
0.447352
0.447381
0.447438
0.447394
0.447311
0.447356
0.447625
0.44756
0.447653
0.447722
0.447722
0.447722
0.447599
0.447536
0.447623
0.44774
0.447732
0.44774
0.447723
0.447688
0.447657
0.447619
0.447497
0.447578
0.44787
0.447877
0.447847
0.447736
0.447684
0.447739
0.447727
0.447846
0.447953
0.447911
0.447753
0.381759
0.393892
0.406154
0.418813
0.430396
0.439345
0.445061
0.447605
0.448129
0.448211
0.44835
0.44834
0.44833
0.448215
0.448272
0.448358
0.448228
0.448278
0.44852
0.448523
0.44871
0.449072
0.449075
0.449051
0.449052
0.449007
0.448901
0.448764
0.448831
0.448895
0.448877
0.448872
0.448797
0.448762
0.448557
0.448583
0.448643
0.448445
0.448477
0.448545
0.448545
0.448543
0.448489
0.448483
0.448447
0.448393
0.448205
0.447883
0.447781
0.447719
0.447527
0.447538
0.447647
0.447572
0.447639
0.447661
0.447595
0.447591
0.447586
0.447453
0.447451
0.44765
0.447708
0.447668
0.447522
0.447566
0.447723
0.447721
0.447708
0.447528
0.447569
0.447659
0.447545
0.447499
0.447653
0.447846
0.447831
0.4478
0.447692
0.447639
0.447646
0.447652
0.447637
0.44778
0.447959
0.447865
0.447933
0.447967
0.447915
0.447736
0.381731
0.393912
0.406159
0.418795
0.430455
0.439309
0.444924
0.447765
0.448604
0.448657
0.448641
0.448633
0.448476
0.448523
0.448752
0.448655
0.448748
0.448863
0.448807
0.448803
0.448737
0.448893
0.449077
0.449073
0.449073
0.448937
0.449029
0.449159
0.449053
0.449108
0.44917
0.44913
0.449154
0.449153
0.449113
0.449065
0.44902
0.448968
0.448924
0.448885
0.448832
0.44872
0.448641
0.448483
0.448273
0.448078
0.44799
0.447944
0.447911
0.447875
0.447793
0.447565
0.447494
0.447608
0.447768
0.447736
0.44759
0.447632
0.447756
0.447662
0.447713
0.447741
0.4477
0.447622
0.447509
0.447641
0.447788
0.447796
0.447797
0.447638
0.447699
0.44789
0.447877
0.447847
0.447692
0.447751
0.447849
0.447852
0.447851
0.447669
0.447708
0.447838
0.447828
0.447807
0.447731
0.447806
0.447871
0.447849
0.447835
0.44768
0.381778
0.393833
0.406193
0.41889
0.430338
0.439184
0.445056
0.447902
0.448502
0.448473
0.448609
0.448818
0.448804
0.448788
0.448768
0.448678
0.448687
0.449026
0.449172
0.449141
0.449015
0.449003
0.449111
0.449002
0.449004
0.449144
0.449086
0.449169
0.44931
0.449131
0.44918
0.449239
0.449227
0.449224
0.449183
0.449162
0.449054
0.448977
0.448903
0.448839
0.448711
0.448608
0.448535
0.448481
0.448425
0.448308
0.448214
0.448013
0.447807
0.44782
0.44788
0.447818
0.447844
0.447869
0.447848
0.447837
0.447834
0.447795
0.447767
0.447733
0.447694
0.447684
0.447551
0.447614
0.447789
0.447773
0.447778
0.447796
0.447807
0.447769
0.447646
0.447663
0.447859
0.447872
0.447841
0.447725
0.447662
0.447823
0.447936
0.447935
0.447934
0.447775
0.447771
0.447853
0.447817
0.447883
0.447914
0.447905
0.447892
0.44768
0.38175
0.393918
0.406132
0.418734
0.430554
0.439347
0.444935
0.447529
0.448098
0.44814
0.448107
0.447986
0.448002
0.44823
0.448289
0.448267
0.448201
0.448256
0.448597
0.448737
0.448709
0.448708
0.448608
0.448606
0.44891
0.449184
0.449087
0.449022
0.448995
0.448929
0.449013
0.449103
0.449012
0.448998
0.448995
0.448997
0.448949
0.448853
0.448713
0.448618
0.44846
0.448286
0.448215
0.448084
0.448033
0.448
0.447957
0.447851
0.447814
0.447944
0.447981
0.447931
0.447926
0.447935
0.447935
0.447856
0.447821
0.447755
0.447537
0.447554
0.44771
0.447717
0.447707
0.44754
0.447537
0.447607
0.447565
0.447562
0.447562
0.447547
0.447512
0.447672
0.447856
0.447799
0.447848
0.447904
0.447892
0.447855
0.447832
0.447808
0.447641
0.447635
0.447917
0.447948
0.44798
0.447987
0.447925
0.44792
0.44791
0.447762
0.381761
0.393872
0.40615
0.418912
0.430369
0.439134
0.445027
0.447959
0.448722
0.448908
0.448893
0.448822
0.448819
0.448823
0.448762
0.448835
0.448936
0.448826
0.44892
0.44899
0.448934
0.448914
0.449066
0.449239
0.449122
0.449224
0.449413
0.449229
0.449279
0.449349
0.449139
0.44918
0.449205
0.449121
0.449068
0.448986
0.448952
0.448967
0.448965
0.448904
0.448855
0.448752
0.448529
0.448294
0.448085
0.447968
0.447917
0.447854
0.447757
0.447689
0.447618
0.447597
0.447561
0.447512
0.447503
0.447403
0.447454
0.447697
0.447752
0.447725
0.447686
0.447576
0.44759
0.447735
0.447736
0.447677
0.447682
0.447897
0.447937
0.447893
0.44779
0.447725
0.44781
0.447865
0.447817
0.447676
0.447632
0.447852
0.447948
0.447885
0.447882
0.447871
0.447733
0.447705
0.447881
0.447935
0.447888
0.447887
0.447856
0.447633
0.381725
0.393927
0.406222
0.418711
0.430492
0.439295
0.444904
0.447738
0.448554
0.448578
0.448548
0.448463
0.448486
0.448504
0.448469
0.448442
0.44855
0.44876
0.448748
0.448693
0.448742
0.448824
0.448692
0.448792
0.449024
0.448897
0.448869
0.449058
0.449166
0.449151
0.449147
0.449092
0.448985
0.448927
0.448867
0.44874
0.448684
0.448647
0.448592
0.44854
0.448498
0.448447
0.448409
0.448357
0.448303
0.448271
0.448234
0.448166
0.448144
0.448048
0.447811
0.447556
0.447566
0.447602
0.447564
0.447445
0.447443
0.447502
0.447456
0.447738
0.448132
0.448158
0.448135
0.448129
0.448081
0.447912
0.447839
0.447882
0.447848
0.447957
0.44805
0.447939
0.447997
0.448071
0.448063
0.448054
0.447931
0.447771
0.447777
0.447843
0.447811
0.447682
0.447732
0.44792
0.447909
0.447914
0.447897
0.447902
0.447854
0.4477
0.381749
0.39389
0.406145
0.418914
0.430413
0.439099
0.444877
0.448064
0.449062
0.449114
0.449091
0.449062
0.449032
0.449003
0.448983
0.449124
0.449253
0.44923
0.44923
0.449124
0.44911
0.449238
0.449342
0.449311
0.449189
0.449215
0.449391
0.449408
0.44936
0.449207
0.449254
0.449279
0.449179
0.449173
0.44914
0.449137
0.449098
0.449061
0.449019
0.448975
0.448903
0.448812
0.448625
0.448413
0.448226
0.448109
0.448031
0.447991
0.447947
0.447857
0.447649
0.447389
0.447349
0.447418
0.447416
0.447301
0.447338
0.447615
0.44761
0.44772
0.447791
0.447755
0.447631
0.447645
0.447752
0.447723
0.447682
0.447763
0.447864
0.447824
0.447833
0.44783
0.447788
0.447714
0.447864
0.447965
0.447915
0.447915
0.447888
0.447867
0.447737
0.447797
0.447951
0.447898
0.447894
0.447852
0.447911
0.447937
0.447879
0.447677
0.381745
0.39391
0.406105
0.41894
0.430403
0.439078
0.444982
0.448053
0.448915
0.44914
0.449248
0.449258
0.449222
0.449182
0.449126
0.449055
0.449034
0.448953
0.449047
0.449239
0.449098
0.449132
0.449337
0.449348
0.449333
0.449482
0.449624
0.449526
0.449574
0.449624
0.449603
0.449597
0.449536
0.449514
0.449466
0.449407
0.449339
0.449269
0.44915
0.448958
0.448787
0.448664
0.448507
0.448365
0.448254
0.448189
0.44809
0.447879
0.447531
0.447451
0.447544
0.447534
0.447535
0.447535
0.447484
0.447447
0.44755
0.447646
0.447632
0.447636
0.447601
0.447543
0.447736
0.44794
0.44784
0.447909
0.448007
0.447984
0.447986
0.447942
0.447756
0.44773
0.447902
0.44791
0.447912
0.447875
0.447982
0.448057
0.447912
0.447962
0.44799
0.447951
0.447881
0.44778
0.44787
0.447953
0.44789
0.447883
0.447865
0.447653
0.381761
0.393863
0.406173
0.418913
0.430356
0.439179
0.444907
0.448005
0.448873
0.448902
0.448922
0.448886
0.448871
0.448841
0.448976
0.44908
0.449047
0.449047
0.448927
0.448988
0.449341
0.449435
0.449415
0.449386
0.449386
0.449375
0.449336
0.449207
0.449275
0.449313
0.44921
0.449176
0.449176
0.449171
0.449134
0.449091
0.448917
0.448665
0.448509
0.448369
0.448297
0.448249
0.448159
0.448091
0.448136
0.448152
0.448135
0.44813
0.448039
0.447815
0.447506
0.447437
0.447495
0.447554
0.447525
0.44734
0.447339
0.44756
0.44764
0.447615
0.447585
0.447556
0.447528
0.447722
0.447989
0.448014
0.447982
0.447915
0.447908
0.447851
0.44771
0.447721
0.447751
0.447632
0.447712
0.447974
0.447966
0.447917
0.447742
0.447739
0.447879
0.447808
0.447897
0.447953
0.447887
0.447924
0.447982
0.447962
0.447893
0.447642
0.381703
0.393926
0.406191
0.418855
0.43036
0.439246
0.44501
0.447873
0.448557
0.448548
0.448597
0.448604
0.448509
0.448566
0.448679
0.448664
0.44865
0.448572
0.448749
0.448941
0.448929
0.448918
0.448885
0.44914
0.449536
0.449424
0.449515
0.44961
0.449499
0.449497
0.4495
0.449517
0.449496
0.449453
0.449414
0.449363
0.449265
0.449178
0.449048
0.448949
0.448799
0.448656
0.448548
0.448389
0.448294
0.448113
0.447944
0.447782
0.447703
0.447653
0.447561
0.447263
0.447232
0.44764
0.447786
0.447717
0.447794
0.448154
0.448225
0.448211
0.448224
0.448193
0.448171
0.448124
0.447964
0.447955
0.448023
0.447976
0.447977
0.447976
0.447853
0.44789
0.448029
0.448012
0.448012
0.44797
0.447979
0.447977
0.447993
0.447979
0.447834
0.447855
0.4479
0.44772
0.447772
0.44782
0.447796
0.447794
0.447741
0.447569
0.381748
0.393906
0.40616
0.418801
0.430398
0.439411
0.445053
0.44745
0.447982
0.448049
0.448299
0.448434
0.44841
0.448372
0.448264
0.448277
0.448461
0.448466
0.448477
0.448479
0.448574
0.44911
0.449395
0.449526
0.449641
0.44952
0.44951
0.449595
0.449611
0.449585
0.449597
0.44957
0.449541
0.449495
0.449446
0.449346
0.449127
0.44891
0.448752
0.448635
0.44854
0.448464
0.448395
0.448349
0.448274
0.448112
0.44795
0.447851
0.447651
0.44748
0.447433
0.44731
0.44737
0.447476
0.447461
0.447462
0.447432
0.447349
0.447353
0.447368
0.447202
0.447223
0.447426
0.44746
0.447415
0.447251
0.447278
0.447427
0.447393
0.447402
0.447365
0.447463
0.447882
0.447956
0.447943
0.447922
0.447924
0.447942
0.447912
0.447872
0.447754
0.447806
0.447894
0.44789
0.44791
0.447889
0.44788
0.447844
0.447777
0.447555
0.381783
0.393823
0.406204
0.418886
0.430337
0.439208
0.445015
0.447969
0.448824
0.448855
0.448829
0.448821
0.448725
0.448837
0.449011
0.448886
0.448981
0.449103
0.449057
0.449057
0.448984
0.449093
0.449484
0.449684
0.449675
0.449666
0.449624
0.44944
0.4495
0.449539
0.449513
0.449507
0.449458
0.449431
0.449328
0.449273
0.449135
0.449003
0.448873
0.44878
0.448672
0.448582
0.448488
0.448398
0.448337
0.448284
0.448203
0.448044
0.447753
0.44759
0.447542
0.447487
0.447369
0.447239
0.447439
0.44775
0.447745
0.447723
0.447775
0.447886
0.447991
0.44804
0.447939
0.447893
0.448023
0.448119
0.448004
0.44809
0.448151
0.44813
0.448129
0.448084
0.448084
0.448034
0.447869
0.447853
0.448031
0.44803
0.448003
0.448078
0.448181
0.448276
0.448273
0.448171
0.448216
0.44827
0.448248
0.448249
0.448171
0.447817
0.381755
0.393888
0.406125
0.41895
0.430338
0.439158
0.445059
0.447864
0.44901
0.449125
0.448938
0.448886
0.448952
0.449003
0.448976
0.448865
0.448957
0.449189
0.449067
0.44906
0.449338
0.449524
0.449401
0.449439
0.449627
0.449552
0.449644
0.449768
0.449746
0.449738
0.449653
0.449635
0.449597
0.44958
0.449539
0.449462
0.449303
0.449132
0.448993
0.448714
0.448408
0.448259
0.448104
0.448
0.447941
0.447905
0.447835
0.447686
0.447476
0.447498
0.447558
0.447547
0.447545
0.447395
0.447441
0.447891
0.44798
0.447885
0.447924
0.4482
0.448245
0.448207
0.448211
0.448172
0.448009
0.448041
0.448094
0.448008
0.448012
0.448011
0.447966
0.447911
0.447983
0.448012
0.447968
0.448098
0.448244
0.448213
0.448214
0.448194
0.448162
0.447977
0.447913
0.448104
0.44817
0.448102
0.448101
0.448101
0.448074
0.447809
0.381744
0.393951
0.406067
0.418858
0.430446
0.439332
0.444974
0.447663
0.448252
0.448151
0.448182
0.44829
0.448251
0.448254
0.448207
0.448302
0.448732
0.448787
0.448859
0.449357
0.449583
0.44957
0.449505
0.449557
0.449608
0.449576
0.449531
0.449429
0.449407
0.449399
0.44941
0.449385
0.449356
0.449325
0.449295
0.449227
0.449205
0.449129
0.448994
0.448731
0.448577
0.448325
0.448085
0.447949
0.447894
0.447804
0.447575
0.447489
0.447438
0.447289
0.447349
0.447405
0.447233
0.447294
0.447381
0.447278
0.447274
0.447274
0.447194
0.44724
0.447419
0.447432
0.447435
0.447334
0.447406
0.447823
0.447902
0.447849
0.447855
0.447855
0.447818
0.447721
0.447776
0.447891
0.447929
0.447914
0.447942
0.447908
0.44771
0.447689
0.447788
0.447788
0.447842
0.447852
0.447824
0.447748
0.447837
0.447928
0.447885
0.447725
0.381734
0.39388
0.406221
0.418805
0.430404
0.439255
0.444996
0.447892
0.44865
0.448654
0.448682
0.44868
0.448594
0.448659
0.448863
0.448829
0.448831
0.44873
0.448743
0.448968
0.44906
0.449052
0.449015
0.449126
0.449392
0.44933
0.449271
0.449419
0.449609
0.449613
0.44961
0.449567
0.449552
0.449481
0.449399
0.449264
0.449134
0.449007
0.448883
0.448799
0.448674
0.448533
0.448405
0.448328
0.448222
0.448082
0.447906
0.447772
0.447721
0.447653
0.447523
0.447222
0.447231
0.447403
0.447316
0.447401
0.447463
0.447451
0.447446
0.447331
0.447251
0.447413
0.447515
0.447463
0.447386
0.447441
0.447721
0.447738
0.447749
0.447746
0.44772
0.447663
0.44753
0.447441
0.447557
0.447608
0.447596
0.44757
0.447634
0.447774
0.447742
0.447612
0.447633
0.447699
0.447569
0.447673
0.447921
0.447919
0.447902
0.447681
0.381773
0.393843
0.406182
0.418903
0.430337
0.43919
0.445076
0.44791
0.448649
0.448712
0.448859
0.44888
0.448739
0.448819
0.449062
0.448949
0.449009
0.449233
0.449137
0.449202
0.449446
0.44945
0.449375
0.449415
0.449603
0.449738
0.449761
0.449575
0.449621
0.449695
0.449683
0.449678
0.449629
0.449612
0.449547
0.449454
0.449222
0.449024
0.448844
0.448683
0.448557
0.448446
0.448362
0.4483
0.448253
0.448216
0.448166
0.44807
0.447865
0.44756
0.44745
0.447384
0.447344
0.447226
0.447229
0.447444
0.447464
0.447428
0.447359
0.447285
0.447319
0.447363
0.447419
0.447423
0.447291
0.447334
0.447544
0.447533
0.447537
0.447497
0.447577
0.447612
0.447585
0.44751
0.447544
0.447763
0.447763
0.447771
0.447694
0.447782
0.447857
0.447856
0.447855
0.447662
0.447643
0.447724
0.447713
0.447718
0.447707
0.447581
0.381745
0.39391
0.406102
0.418947
0.43039
0.439116
0.444935
0.448094
0.449054
0.449114
0.449101
0.449125
0.44909
0.448959
0.449028
0.449141
0.449022
0.449103
0.44931
0.449186
0.449239
0.449499
0.449515
0.449451
0.449512
0.449613
0.44971
0.449733
0.449547
0.449587
0.449617
0.449543
0.449546
0.449505
0.449472
0.449424
0.449345
0.449168
0.448984
0.448835
0.448708
0.44862
0.44852
0.448453
0.448385
0.448236
0.448167
0.44803
0.447919
0.447871
0.447833
0.447751
0.44754
0.44741
0.447591
0.448135
0.448183
0.448043
0.448128
0.448212
0.448189
0.448163
0.448048
0.448018
0.447948
0.448031
0.448143
0.448044
0.448109
0.448191
0.448186
0.448179
0.448015
0.447986
0.44795
0.447865
0.447865
0.447864
0.447781
0.447776
0.447994
0.448047
0.448021
0.44801
0.447868
0.447908
0.448003
0.447984
0.447978
0.447773
0.381755
0.393888
0.406124
0.418951
0.430337
0.439156
0.445059
0.447867
0.449014
0.449129
0.449048
0.448933
0.448969
0.449095
0.449071
0.448976
0.44897
0.449117
0.449123
0.449133
0.449089
0.449151
0.449374
0.449351
0.449352
0.449595
0.449823
0.449814
0.44983
0.449763
0.449724
0.449727
0.449722
0.449647
0.449599
0.449451
0.449274
0.44912
0.448984
0.448701
0.448452
0.448205
0.448079
0.447978
0.447921
0.447887
0.447827
0.447703
0.447495
0.447498
0.447578
0.447556
0.447501
0.447381
0.447534
0.447697
0.44761
0.447743
0.448028
0.447969
0.448053
0.448143
0.448139
0.448137
0.448048
0.447907
0.447928
0.448035
0.448007
0.448001
0.448004
0.448007
0.447963
0.447815
0.447843
0.448019
0.447889
0.447959
0.448061
0.448049
0.448038
0.448043
0.448048
0.448001
0.447984
0.447828
0.447719
0.447792
0.447831
0.44768
0.381785
0.39382
0.406205
0.418891
0.430314
0.439261
0.444965
0.447961
0.448762
0.44869
0.448759
0.4489
0.448877
0.448875
0.448782
0.448889
0.449032
0.449147
0.449203
0.449169
0.449144
0.449238
0.449521
0.449439
0.449528
0.449631
0.449624
0.449616
0.449443
0.449414
0.449385
0.449353
0.449311
0.449255
0.449239
0.449187
0.449162
0.449114
0.449066
0.448978
0.448793
0.448606
0.448459
0.448335
0.448257
0.448204
0.448104
0.447886
0.447585
0.447388
0.447399
0.447407
0.447345
0.447297
0.447505
0.44784
0.447833
0.447781
0.447775
0.448026
0.448169
0.44814
0.448075
0.447988
0.447988
0.448044
0.448014
0.448086
0.448148
0.448129
0.448121
0.448002
0.447984
0.447943
0.448019
0.448155
0.44813
0.448099
0.448033
0.44794
0.447913
0.447902
0.448015
0.44821
0.448204
0.448209
0.448198
0.448166
0.448093
0.447806
0.381754
0.393902
0.40615
0.418812
0.430425
0.439344
0.445008
0.447631
0.448181
0.448094
0.448108
0.448259
0.448258
0.448396
0.448512
0.448508
0.4485
0.44854
0.448729
0.44874
0.448736
0.448841
0.449331
0.44936
0.449285
0.449362
0.449488
0.449389
0.449282
0.449263
0.449315
0.449303
0.449266
0.449232
0.449194
0.449148
0.449076
0.449029
0.44895
0.448795
0.448566
0.4484
0.448304
0.448114
0.447995
0.447894
0.447665
0.447495
0.447504
0.447514
0.447408
0.447404
0.447527
0.447549
0.447471
0.447543
0.447638
0.447639
0.44764
0.447564
0.447449
0.447507
0.447661
0.447653
0.447645
0.447501
0.447518
0.447522
0.447624
0.447853
0.447854
0.447858
0.447823
0.447762
0.447731
0.447642
0.447686
0.447862
0.447864
0.447815
0.447843
0.44802
0.448002
0.448004
0.448002
0.447903
0.447945
0.448025
0.44798
0.447817
0.38173
0.393929
0.406212
0.418711
0.430501
0.439308
0.444893
0.447752
0.44847
0.4484
0.448499
0.448607
0.448594
0.448593
0.448424
0.448463
0.448715
0.448921
0.448906
0.448834
0.448839
0.448803
0.448902
0.449446
0.449561
0.449489
0.44949
0.449448
0.449338
0.449335
0.449311
0.449272
0.449229
0.449183
0.449137
0.449078
0.449024
0.448917
0.448815
0.448718
0.448597
0.448492
0.4484
0.448318
0.44827
0.448203
0.448053
0.447981
0.447828
0.447771
0.447629
0.447602
0.447605
0.447564
0.447555
0.447537
0.447529
0.447356
0.44737
0.447716
0.447786
0.447764
0.447738
0.447673
0.447734
0.447818
0.447782
0.447786
0.447797
0.447796
0.447719
0.447644
0.44781
0.447928
0.447922
0.44792
0.447767
0.447839
0.447938
0.447841
0.447847
0.447834
0.447731
0.447695
0.447781
0.44786
0.447845
0.447865
0.447823
0.447587
0.381725
0.393927
0.406221
0.418711
0.430496
0.439288
0.444936
0.447742
0.448386
0.448311
0.448385
0.448509
0.448494
0.448492
0.448337
0.448365
0.448782
0.44896
0.448938
0.448839
0.448842
0.449098
0.449147
0.449069
0.44911
0.449262
0.449198
0.449311
0.449389
0.449376
0.449371
0.449312
0.449297
0.449236
0.449126
0.448969
0.448833
0.44871
0.448615
0.448518
0.448444
0.448391
0.448343
0.448304
0.44825
0.448154
0.448022
0.447959
0.447894
0.447766
0.447557
0.447488
0.447405
0.447267
0.447421
0.447807
0.447744
0.447847
0.447931
0.447908
0.447886
0.447767
0.447734
0.447693
0.447807
0.447916
0.447919
0.447919
0.447739
0.447801
0.447931
0.447792
0.447858
0.447901
0.447821
0.447821
0.447815
0.447715
0.447771
0.447879
0.447869
0.447866
0.447693
0.447759
0.447847
0.447841
0.44784
0.447762
0.447735
0.44755
0.381752
0.393893
0.406124
0.418936
0.430371
0.439132
0.444965
0.448051
0.448879
0.448892
0.448917
0.448916
0.448848
0.448817
0.448995
0.449131
0.449102
0.449112
0.449114
0.449039
0.449137
0.449302
0.449147
0.449132
0.449273
0.449236
0.449321
0.44948
0.449293
0.449345
0.449383
0.449357
0.449349
0.44928
0.449251
0.449144
0.449088
0.448953
0.44883
0.448727
0.448631
0.448561
0.448484
0.448412
0.448301
0.448044
0.447871
0.447781
0.447589
0.447489
0.44757
0.447547
0.447661
0.447776
0.447738
0.44774
0.447733
0.447633
0.447651
0.44771
0.447698
0.447683
0.447725
0.447788
0.447761
0.447758
0.447616
0.447678
0.447753
0.447748
0.447721
0.447703
0.447986
0.448078
0.448023
0.448033
0.448008
0.447967
0.447937
0.447899
0.447913
0.447908
0.447861
0.447725
0.447801
0.447945
0.44787
0.447885
0.447868
0.447684
0.381741
0.393912
0.406108
0.41897
0.430357
0.43911
0.444943
0.44798
0.449052
0.449123
0.449077
0.44908
0.449074
0.449023
0.448949
0.449031
0.449076
0.448954
0.448991
0.449266
0.449294
0.449421
0.449573
0.449481
0.449424
0.44939
0.449337
0.449444
0.449498
0.449481
0.449476
0.449441
0.449441
0.449396
0.44937
0.449321
0.449251
0.449136
0.449054
0.448902
0.448758
0.448667
0.448599
0.448463
0.448337
0.448267
0.448179
0.448131
0.448064
0.447987
0.447825
0.447578
0.447616
0.447744
0.447727
0.447711
0.447602
0.447602
0.447584
0.447706
0.447799
0.447696
0.44772
0.447737
0.447717
0.447665
0.447677
0.447639
0.447687
0.448044
0.448138
0.448136
0.448133
0.447946
0.447952
0.448068
0.447958
0.44804
0.448119
0.447978
0.448045
0.448089
0.448001
0.448029
0.448035
0.448017
0.448024
0.447993
0.447915
0.44765
0.381723
0.393889
0.406216
0.418864
0.430308
0.439285
0.445024
0.447802
0.448613
0.448637
0.448591
0.448461
0.448415
0.448424
0.448424
0.448367
0.448456
0.448724
0.448702
0.448708
0.448674
0.448809
0.449165
0.449164
0.449061
0.449117
0.449228
0.449222
0.449215
0.449056
0.449036
0.448969
0.448931
0.4489
0.448868
0.44884
0.448766
0.448629
0.448526
0.448484
0.448439
0.448391
0.448356
0.448311
0.448232
0.448081
0.447974
0.447902
0.447785
0.447507
0.447377
0.447538
0.44765
0.447598
0.447605
0.44758
0.447556
0.447447
0.447497
0.447736
0.447915
0.447912
0.447759
0.447811
0.447837
0.44779
0.447802
0.447794
0.447682
0.447727
0.44778
0.447764
0.44773
0.447746
0.44779
0.447628
0.44765
0.447793
0.447802
0.447803
0.447818
0.447823
0.447679
0.447758
0.447897
0.447849
0.447846
0.447858
0.447848
0.447645
0.38176
0.393872
0.406156
0.418896
0.430387
0.439156
0.444923
0.448012
0.449007
0.449059
0.449037
0.449028
0.448992
0.448918
0.448965
0.44899
0.448967
0.448905
0.448926
0.449162
0.449202
0.449172
0.449073
0.449075
0.449281
0.449292
0.449398
0.449532
0.449503
0.449469
0.449433
0.449428
0.449378
0.449287
0.449209
0.449132
0.449053
0.448994
0.448935
0.448873
0.448809
0.448713
0.44864
0.448499
0.448322
0.448224
0.448117
0.448056
0.447968
0.447778
0.447497
0.447515
0.44771
0.447718
0.447675
0.447525
0.447566
0.447671
0.44757
0.447586
0.447552
0.447523
0.447434
0.447497
0.447644
0.447473
0.447457
0.447632
0.447706
0.447681
0.447605
0.447708
0.447879
0.448008
0.448002
0.447832
0.447876
0.448034
0.448032
0.447998
0.447946
0.447906
0.447868
0.447754
0.447764
0.447771
0.44771
0.447706
0.447689
0.447553
0.381749
0.393909
0.406127
0.418814
0.430434
0.439386
0.445019
0.447489
0.447925
0.447889
0.448083
0.448465
0.448465
0.448456
0.448349
0.448271
0.448473
0.448645
0.448532
0.448578
0.448872
0.448904
0.448841
0.448947
0.449239
0.449255
0.449423
0.449502
0.44943
0.449425
0.449391
0.449406
0.449404
0.449393
0.449341
0.449216
0.449108
0.449025
0.448896
0.448771
0.448677
0.448621
0.448533
0.448465
0.44842
0.448334
0.448137
0.447979
0.447903
0.44769
0.447701
0.447817
0.447813
0.44782
0.447767
0.44764
0.447581
0.447561