/*--------------------------------*- C++ -*----------------------------------*\
  =========                 |
  \\      /  F ield         | OpenFOAM: The Open Source CFD Toolbox
   \\    /   O peration     | Website:  https://openfoam.org
    \\  /    A nd           | Version:  11
     \\/     M anipulation  |
\*---------------------------------------------------------------------------*/
FoamFile
{
    format      ascii;
    class       volScalarField;
    location    "0.098";
    object      nut;
}
// * * * * * * * * * * * * * * * * * * * * * * * * * * * * * * * * * * * * * //

dimensions      [0 2 -1 0 0 0 0];

internalField   nonuniform List<scalar> 
287084
(
0.000836908
0.000864449
0.000892887
0.000922615
0.000950182
0.000971888
0.000985726
0.000992102
0.000993893
0.00099443
0.000994671
0.000994665
0.000994573
0.00099465
0.000994643
0.000994811
0.000995056
0.000994753
0.000994849
0.000994894
0.000994792
0.00099472
0.000994354
0.000994571
0.000995224
0.000995187
0.000995143
0.000995167
0.00099504
0.000994895
0.000995112
0.000995281
0.000995183
0.000995543
0.000995914
0.000996106
0.000996357
0.000996529
0.000996705
0.000996869
0.00099709
0.000997272
0.00099732
0.000997389
0.000997373
0.000997377
0.000997419
0.000997394
0.000997406
0.000997318
0.000997048
0.000996578
0.000996675
0.000996931
0.000996913
0.000996832
0.000996872
0.000996887
0.000996764
0.000996512
0.000996395
0.000996533
0.000996619
0.000996529
0.000996281
0.000996618
0.00099701
0.000996962
0.000996899
0.000996543
0.00099663
0.000996803
0.00099669
0.000996537
0.000996259
0.000996237
0.000996153
0.000996354
0.000996859
0.000996842
0.000996755
0.000996707
0.000996369
0.000996309
0.000996622
0.0009965
0.000996674
0.000996766
0.000996626
0.000996086
0.00118289
0.00122074
0.001259
0.0012986
0.00133523
0.00136401
0.00138249
0.00139049
0.00139225
0.00139268
0.00139329
0.00139304
0.00139318
0.00139367
0.00139352
0.00139351
0.00139341
0.00139324
0.0013932
0.00139302
0.00139273
0.00139217
0.00139195
0.0013926
0.00139275
0.00139314
0.00139358
0.00139331
0.00139359
0.00139384
0.00139395
0.00139415
0.0013943
0.00139433
0.00139386
0.00139398
0.00139441
0.00139478
0.00139501
0.00139476
0.00139497
0.0013954
0.00139571
0.00139598
0.00139624
0.00139632
0.00139617
0.00139582
0.00139605
0.00139655
0.00139659
0.00139671
0.00139663
0.00139665
0.00139669
0.00139673
0.00139664
0.00139654
0.00139648
0.00139635
0.0013961
0.00139543
0.00139526
0.00139593
0.00139611
0.00139593
0.00139539
0.00139529
0.00139576
0.00139592
0.00139579
0.00139532
0.00139544
0.00139616
0.00139624
0.00139614
0.00139596
0.00139583
0.00139573
0.00139533
0.00139516
0.00139531
0.00139549
0.00139536
0.00139513
0.00139508
0.00139479
0.00139499
0.00139508
0.00139451
0.00118293
0.00122096
0.00125907
0.00129888
0.00133554
0.00136385
0.00138234
0.00139113
0.00139347
0.00139365
0.0013936
0.00139318
0.00139319
0.0013935
0.00139338
0.00139318
0.00139253
0.00139237
0.00139321
0.00139341
0.00139329
0.00139319
0.00139254
0.00139253
0.00139313
0.0013932
0.00139319
0.00139334
0.0013935
0.00139359
0.00139375
0.00139379
0.0013941
0.00139433
0.00139452
0.0013947
0.00139501
0.00139531
0.00139566
0.00139599
0.0013962
0.00139603
0.00139553
0.0013955
0.00139582
0.00139609
0.00139618
0.00139598
0.00139592
0.00139623
0.00139656
0.00139661
0.00139657
0.00139653
0.00139656
0.00139659
0.00139631
0.00139635
0.00139636
0.00139616
0.00139577
0.00139536
0.00139558
0.00139583
0.00139567
0.00139516
0.00139511
0.00139574
0.00139558
0.00139588
0.00139614
0.0013961
0.00139603
0.00139597
0.00139596
0.0013959
0.00139586
0.00139539
0.00139506
0.00139507
0.00139511
0.001395
0.00139486
0.00139477
0.00139455
0.0013948
0.00139565
0.00139561
0.00139548
0.00139478
0.00118295
0.00122096
0.00125937
0.00129919
0.00133574
0.00136407
0.00138258
0.00139168
0.00139398
0.00139409
0.00139386
0.00139399
0.00139435
0.00139418
0.00139396
0.00139376
0.00139359
0.0013929
0.00139268
0.00139283
0.00139268
0.00139269
0.00139251
0.00139226
0.00139218
0.00139259
0.00139281
0.00139286
0.00139298
0.00139257
0.00139284
0.00139358
0.00139352
0.00139407
0.00139465
0.00139494
0.00139534
0.00139561
0.00139585
0.00139604
0.00139632
0.00139642
0.00139669
0.00139696
0.00139712
0.00139686
0.0013967
0.00139663
0.00139666
0.00139655
0.001396
0.00139592
0.00139614
0.00139622
0.00139609
0.00139614
0.00139621
0.00139618
0.00139615
0.00139569
0.00139594
0.00139619
0.00139608
0.00139602
0.00139588
0.00139583
0.00139584
0.00139568
0.0013952
0.00139521
0.00139576
0.00139555
0.00139579
0.00139594
0.00139587
0.00139582
0.00139539
0.00139535
0.00139522
0.00139551
0.00139602
0.00139602
0.00139599
0.0013955
0.00139547
0.00139565
0.00139551
0.00139549
0.00139547
0.00139484
0.00118297
0.00122099
0.00125964
0.00129918
0.00133571
0.00136474
0.00138238
0.00139138
0.00139423
0.00139436
0.00139418
0.00139357
0.00139349
0.00139366
0.00139328
0.0013932
0.00139294
0.00139263
0.00139231
0.00139246
0.00139263
0.00139239
0.00139196
0.0013918
0.00139217
0.00139216
0.0013924
0.00139255
0.00139231
0.0013927
0.00139333
0.00139307
0.00139354
0.00139421
0.00139447
0.00139473
0.00139503
0.00139514
0.00139522
0.00139544
0.00139544
0.00139601
0.00139647
0.00139633
0.00139671
0.00139698
0.00139681
0.00139713
0.00139732
0.0013972
0.00139727
0.00139736
0.00139742
0.00139727
0.00139723
0.00139713
0.00139691
0.00139644
0.00139552
0.00139546
0.00139575
0.00139555
0.00139565
0.00139577
0.00139566
0.00139556
0.00139516
0.00139476
0.00139511
0.00139547
0.00139532
0.00139498
0.00139477
0.0013953
0.00139537
0.00139566
0.00139614
0.00139559
0.00139571
0.00139602
0.00139553
0.00139575
0.00139597
0.00139594
0.00139591
0.0013952
0.00139522
0.00139542
0.00139533
0.00139486
0.00118296
0.00122109
0.00125953
0.00129914
0.00133619
0.00136484
0.00138251
0.00139032
0.00139381
0.0013941
0.00139355
0.00139365
0.00139373
0.00139359
0.00139343
0.00139305
0.00139252
0.00139232
0.00139286
0.00139294
0.0013928
0.0013926
0.00139245
0.00139187
0.0013919
0.00139215
0.00139204
0.00139196
0.00139243
0.00139316
0.00139295
0.00139347
0.00139401
0.00139434
0.0013947
0.00139497
0.00139529
0.00139522
0.00139533
0.00139547
0.00139513
0.00139547
0.00139601
0.00139615
0.00139642
0.00139665
0.00139685
0.00139682
0.00139663
0.00139624
0.00139634
0.00139662
0.0013966
0.00139655
0.00139626
0.00139645
0.00139666
0.00139644
0.00139648
0.00139648
0.00139636
0.00139587
0.00139592
0.00139602
0.00139591
0.00139585
0.00139536
0.00139532
0.00139527
0.00139561
0.0013963
0.00139614
0.00139618
0.00139616
0.001396
0.00139573
0.00139531
0.00139517
0.00139505
0.00139539
0.00139589
0.00139593
0.0013958
0.00139546
0.00139539
0.00139501
0.00139522
0.00139562
0.0013955
0.00139503
0.00118296
0.00122105
0.00125965
0.00129907
0.00133652
0.00136465
0.0013824
0.00139127
0.00139387
0.001394
0.00139386
0.00139371
0.00139299
0.00139285
0.00139312
0.00139269
0.00139269
0.00139387
0.00139399
0.00139347
0.00139359
0.00139382
0.00139367
0.00139361
0.00139351
0.00139349
0.001393
0.00139324
0.00139353
0.0013936
0.0013939
0.00139413
0.00139439
0.00139463
0.00139481
0.00139512
0.00139542
0.00139574
0.00139594
0.0013958
0.00139605
0.00139622
0.00139643
0.00139669
0.0013969
0.00139707
0.0013971
0.00139715
0.00139711
0.00139713
0.00139711
0.00139702
0.00139674
0.00139645
0.00139638
0.0013962
0.0013961
0.00139605
0.00139571
0.0013956
0.0013958
0.00139578
0.00139597
0.00139603
0.00139586
0.00139561
0.00139529
0.00139551
0.00139579
0.00139563
0.00139514
0.00139505
0.00139532
0.00139527
0.00139525
0.00139506
0.00139507
0.00139499
0.00139528
0.00139541
0.0013953
0.00139506
0.00139508
0.00139561
0.00139561
0.00139557
0.00139505
0.00139506
0.00139533
0.00139475
0.00118305
0.00122094
0.00125961
0.00129966
0.00133596
0.00136421
0.00138258
0.00139247
0.0013957
0.00139583
0.0013956
0.00139528
0.00139512
0.00139511
0.00139483
0.00139427
0.00139432
0.00139447
0.00139419
0.001394
0.00139368
0.0013935
0.00139291
0.00139297
0.00139341
0.00139306
0.0013934
0.00139379
0.00139389
0.00139412
0.00139422
0.00139458
0.00139474
0.00139511
0.0013956
0.00139602
0.00139648
0.00139678
0.00139663
0.00139666
0.00139664
0.00139682
0.00139694
0.00139714
0.00139738
0.00139747
0.00139769
0.00139777
0.00139783
0.00139778
0.00139776
0.00139758
0.00139694
0.00139677
0.001397
0.00139721
0.00139709
0.00139678
0.0013967
0.00139633
0.00139651
0.00139692
0.00139651
0.00139667
0.00139691
0.00139677
0.00139671
0.00139656
0.00139648
0.00139619
0.0013955
0.00139554
0.00139622
0.00139619
0.00139606
0.00139583
0.0013955
0.00139572
0.00139618
0.00139592
0.00139593
0.00139591
0.00139587
0.00139543
0.00139537
0.0013956
0.00139545
0.00139549
0.00139544
0.00139485
0.00118298
0.00122111
0.0012595
0.00129947
0.00133625
0.00136462
0.00138273
0.0013916
0.00139393
0.00139395
0.00139373
0.00139315
0.00139289
0.0013933
0.00139313
0.00139328
0.00139358
0.00139309
0.00139271
0.00139285
0.00139298
0.00139311
0.00139339
0.00139307
0.00139295
0.00139288
0.0013927
0.0013931
0.00139381
0.00139358
0.00139412
0.00139475
0.00139515
0.00139559
0.0013959
0.00139635
0.00139662
0.00139705
0.00139736
0.00139756
0.00139737
0.00139734
0.00139736
0.00139697
0.00139679
0.00139686
0.00139663
0.00139683
0.00139731
0.00139724
0.00139744
0.00139751
0.0013973
0.00139748
0.00139754
0.00139743
0.00139733
0.00139679
0.00139647
0.00139639
0.00139622
0.00139599
0.00139578
0.00139575
0.00139561
0.00139586
0.001396
0.00139584
0.00139577
0.00139528
0.00139554
0.00139625
0.00139606
0.00139605
0.00139604
0.00139602
0.0013959
0.0013956
0.00139548
0.00139533
0.00139558
0.00139633
0.00139619
0.00139623
0.00139633
0.0013963
0.00139631
0.00139626
0.00139601
0.00139509
0.00118316
0.00122091
0.00125944
0.00129955
0.00133627
0.00136468
0.00138286
0.00139122
0.00139294
0.00139265
0.00139264
0.00139361
0.00139372
0.00139341
0.00139308
0.00139247
0.00139238
0.00139298
0.0013928
0.00139257
0.00139227
0.0013921
0.00139192
0.00139131
0.00139143
0.00139196
0.00139202
0.00139216
0.00139208
0.0013924
0.00139258
0.00139328
0.00139392
0.00139428
0.00139483
0.00139525
0.00139567
0.00139607
0.0013965
0.00139672
0.00139653
0.00139675
0.00139691
0.00139724
0.0013975
0.00139763
0.00139778
0.00139766
0.00139773
0.00139763
0.00139733
0.00139694
0.00139654
0.0013964
0.00139619
0.00139553
0.00139557
0.00139569
0.00139549
0.00139517
0.00139524
0.00139601
0.00139573
0.00139595
0.00139609
0.00139603
0.00139596
0.00139551
0.00139525
0.00139546
0.00139577
0.00139569
0.00139566
0.00139556
0.0013954
0.00139526
0.0013951
0.00139468
0.00139489
0.00139577
0.00139576
0.00139564
0.00139527
0.00139508
0.00139523
0.00139517
0.00139553
0.00139584
0.0013957
0.00139514
0.00118304
0.00122104
0.0012596
0.00129943
0.00133614
0.00136472
0.00138309
0.00139135
0.0013931
0.00139331
0.0013936
0.00139337
0.00139311
0.00139249
0.0013924
0.0013924
0.00139171
0.00139159
0.00139207
0.00139183
0.00139219
0.00139311
0.00139297
0.00139278
0.00139273
0.00139261
0.00139237
0.0013921
0.00139254
0.00139305
0.00139338
0.0013938
0.00139406
0.00139448
0.0013944
0.00139506
0.00139582
0.00139575
0.00139638
0.00139708
0.00139753
0.00139793
0.00139812
0.0013984
0.00139855
0.00139859
0.00139817
0.00139729
0.00139706
0.00139692
0.00139635
0.00139639
0.00139672
0.00139646
0.00139662
0.00139663
0.00139636
0.00139628
0.00139619
0.0013957
0.00139561
0.00139615
0.00139626
0.00139605
0.00139552
0.00139558
0.001396
0.00139592
0.00139582
0.00139519
0.00139526
0.00139548
0.00139507
0.00139487
0.00139531
0.00139586
0.00139577
0.00139564
0.00139526
0.00139506
0.00139505
0.00139504
0.00139496
0.00139538
0.00139592
0.0013956
0.0013958
0.00139589
0.00139572
0.0013951
0.00118295
0.00122111
0.00125961
0.00129938
0.00133633
0.00136461
0.00138266
0.00139185
0.00139457
0.00139468
0.00139448
0.00139424
0.0013935
0.00139337
0.00139379
0.00139319
0.00139317
0.00139323
0.00139277
0.00139248
0.00139202
0.00139229
0.00139269
0.00139256
0.00139251
0.0013921
0.00139248
0.00139305
0.00139299
0.00139349
0.00139411
0.00139446
0.00139508
0.00139566
0.00139615
0.00139662
0.00139709
0.00139752
0.00139795
0.00139835
0.00139866
0.00139873
0.00139885
0.00139867
0.00139827
0.00139787
0.00139775
0.00139772
0.0013977
0.00139763
0.00139739
0.00139667
0.00139642
0.00139673
0.00139717
0.001397
0.00139647
0.00139652
0.00139682
0.00139644
0.00139651
0.00139651
0.00139629
0.00139596
0.00139553
0.00139586
0.00139625
0.0013962
0.00139613
0.00139556
0.00139569
0.00139622
0.00139613
0.00139598
0.00139544
0.00139558
0.00139584
0.00139581
0.00139577
0.00139516
0.00139525
0.00139563
0.00139557
0.00139547
0.00139521
0.00139542
0.00139561
0.00139553
0.00139547
0.00139492
0.00118309
0.00122086
0.00125972
0.00129968
0.00133596
0.00136422
0.00138307
0.00139227
0.00139424
0.00139408
0.00139434
0.00139476
0.00139445
0.0013941
0.00139373
0.00139312
0.00139282
0.00139355
0.00139369
0.0013933
0.00139263
0.00139236
0.00139251
0.00139204
0.00139199
0.00139243
0.00139236
0.0013928
0.00139352
0.00139334
0.00139395
0.00139467
0.00139522
0.00139585
0.00139638
0.00139699
0.00139731
0.00139771
0.00139808
0.00139844
0.00139853
0.00139865
0.00139879
0.00139894
0.00139902
0.00139886
0.00139872
0.00139819
0.00139762
0.00139769
0.00139788
0.00139766
0.00139769
0.00139771
0.00139757
0.00139746
0.00139736
0.00139714
0.00139696
0.00139675
0.00139653
0.00139641
0.0013959
0.001396
0.00139646
0.00139632
0.00139626
0.00139623
0.00139619
0.001396
0.00139555
0.00139554
0.00139609
0.00139607
0.00139592
0.00139551
0.00139527
0.00139572
0.00139604
0.001396
0.00139596
0.00139543
0.00139539
0.00139562
0.00139549
0.00139567
0.00139575
0.0013957
0.00139565
0.00139492
0.00118301
0.00122112
0.00125953
0.00129919
0.00133663
0.00136472
0.00138268
0.00139108
0.00139295
0.00139301
0.00139273
0.0013921
0.00139187
0.00139226
0.00139211
0.0013917
0.00139114
0.00139097
0.00139168
0.00139179
0.00139141
0.00139115
0.00139064
0.00139049
0.00139137
0.00139224
0.00139205
0.00139206
0.00139228
0.00139248
0.00139325
0.0013941
0.00139447
0.00139512
0.00139582
0.00139655
0.00139711
0.00139749
0.00139769
0.00139798
0.00139801
0.00139792
0.00139808
0.00139799
0.00139809
0.00139818
0.00139819
0.00139795
0.00139788
0.00139831
0.00139841
0.00139821
0.00139813
0.00139809
0.001398
0.00139766
0.00139745
0.00139714
0.00139634
0.00139629
0.00139667
0.00139659
0.00139645
0.00139583
0.00139572
0.00139585
0.00139563
0.00139554
0.00139546
0.00139533
0.00139515
0.00139559
0.0013961
0.00139586
0.00139596
0.00139608
0.001396
0.00139584
0.00139573
0.00139561
0.00139506
0.00139501
0.00139585
0.00139592
0.001396
0.001396
0.00139579
0.00139575
0.00139571
0.00139518
0.00118304
0.00122098
0.00125959
0.00129974
0.00133605
0.00136404
0.00138295
0.0013924
0.00139486
0.00139535
0.00139511
0.00139463
0.00139432
0.001394
0.00139346
0.00139332
0.00139326
0.00139254
0.00139246
0.00139233
0.00139184
0.0013915
0.00139175
0.00139214
0.0013917
0.00139203
0.00139274
0.0013924
0.00139289
0.00139356
0.00139345
0.00139421
0.00139499
0.00139547
0.00139608
0.0013966
0.00139725
0.00139803
0.0013987
0.00139911
0.0013995
0.00139965
0.00139935
0.00139893
0.00139853
0.00139836
0.00139833
0.00139822
0.00139795
0.00139774
0.00139749
0.00139737
0.00139718
0.00139693
0.0013968
0.00139638
0.00139643
0.00139707
0.00139712
0.00139691
0.00139668
0.00139622
0.00139615
0.0013965
0.0013964
0.00139612
0.00139604
0.00139662
0.00139666
0.00139645
0.00139605
0.00139578
0.00139597
0.00139609
0.00139588
0.00139539
0.0013952
0.00139584
0.0013961
0.00139586
0.00139582
0.00139574
0.00139529
0.00139517
0.0013957
0.00139584
0.00139568
0.00139565
0.00139554
0.00139478
0.00118293
0.00122115
0.00125981
0.00129911
0.00133642
0.00136453
0.00138255
0.00139168
0.0013943
0.00139428
0.00139398
0.00139344
0.00139319
0.0013929
0.00139241
0.00139194
0.00139187
0.00139213
0.0013917
0.00139116
0.00139097
0.00139093
0.00139028
0.00139042
0.00139107
0.0013907
0.00139074
0.00139158
0.00139228
0.00139272
0.0013933
0.00139381
0.00139423
0.00139485
0.0013955
0.00139593
0.00139656
0.00139721
0.00139775
0.00139823
0.00139866
0.00139898
0.00139926
0.00139942
0.0013995
0.00139958
0.00139959
0.00139945
0.0013994
0.00139909
0.0013983
0.00139743
0.00139737
0.00139738
0.00139715
0.00139665
0.00139651
0.00139657
0.00139629
0.00139705
0.00139815
0.00139811
0.00139792
0.00139778
0.00139753
0.0013969
0.00139657
0.00139661
0.00139642
0.00139667
0.00139689
0.00139647
0.00139658
0.00139675
0.00139666
0.00139658
0.00139614
0.00139559
0.00139557
0.00139574
0.0013956
0.00139516
0.00139529
0.00139585
0.00139579
0.00139578
0.0013957
0.0013957
0.00139554
0.00139499
0.001183
0.00122104
0.00125957
0.00129974
0.00133617
0.0013639
0.00138244
0.00139267
0.00139584
0.0013959
0.00139561
0.00139523
0.0013948
0.00139434
0.00139388
0.00139391
0.00139388
0.00139339
0.00139297
0.00139225
0.00139184
0.00139193
0.00139199
0.00139172
0.00139126
0.00139137
0.00139206
0.00139238
0.00139263
0.00139268
0.00139346
0.00139427
0.00139477
0.00139561
0.00139639
0.00139726
0.00139799
0.00139868
0.00139929
0.00139982
0.00140018
0.00140039
0.00140021
0.00139987
0.00139953
0.00139935
0.00139921
0.00139915
0.00139902
0.00139871
0.00139799
0.0013971
0.00139687
0.00139696
0.00139683
0.00139633
0.0013963
0.00139703
0.00139687
0.00139708
0.00139716
0.00139692
0.0013964
0.00139633
0.00139655
0.00139635
0.00139612
0.00139627
0.0013965
0.00139628
0.00139623
0.00139615
0.00139594
0.00139565
0.00139605
0.00139631
0.00139611
0.00139606
0.00139593
0.00139582
0.00139538
0.00139553
0.00139598
0.00139578
0.00139574
0.00139558
0.00139575
0.00139581
0.00139562
0.00139493
0.00118299
0.0012211
0.00125944
0.00129982
0.00133613
0.00136383
0.00138275
0.00139261
0.00139535
0.00139593
0.00139603
0.00139576
0.0013953
0.00139479
0.0013942
0.00139354
0.00139303
0.00139234
0.00139219
0.00139237
0.00139155
0.00139132
0.00139168
0.00139153
0.0013914
0.00139189
0.00139249
0.00139248
0.00139306
0.00139377
0.00139439
0.00139516
0.00139583
0.00139667
0.00139746
0.0013982
0.00139889
0.00139951
0.00139992
0.00140001
0.00140007
0.00140019
0.00140011
0.00139999
0.00139989
0.00139985
0.00139964
0.00139903
0.00139794
0.00139765
0.00139786
0.00139773
0.00139761
0.00139748
0.00139717
0.00139691
0.00139708
0.00139723
0.00139703
0.00139689
0.00139664
0.00139632
0.00139679
0.0013973
0.00139687
0.00139697
0.00139716
0.00139699
0.0013969
0.00139668
0.00139601
0.00139585
0.00139632
0.00139628
0.00139622
0.00139605
0.00139632
0.00139651
0.00139601
0.00139612
0.00139617
0.00139601
0.00139576
0.00139542
0.00139567
0.00139591
0.00139569
0.00139565
0.00139558
0.00139485
0.00118304
0.00122095
0.00125965
0.00129972
0.00133597
0.00136412
0.00138249
0.00139243
0.00139518
0.00139514
0.00139496
0.00139453
0.00139412
0.00139362
0.00139361
0.00139347
0.00139292
0.00139244
0.00139162
0.00139136
0.00139205
0.00139199
0.00139165
0.00139136
0.00139128
0.00139128
0.00139133
0.00139124
0.00139191
0.00139263
0.00139303
0.00139375
0.00139467
0.00139561
0.00139648
0.00139732
0.00139771
0.0013978
0.00139811
0.00139838
0.00139877
0.00139914
0.00139927
0.00139938
0.00139976
0.00139997
0.00140001
0.00140003
0.00139973
0.00139897
0.00139791
0.00139758
0.00139764
0.00139767
0.00139743
0.00139668
0.00139652
0.00139705
0.00139714
0.0013969
0.00139666
0.00139642
0.0013962
0.00139667
0.00139737
0.00139733
0.00139712
0.00139681
0.00139669
0.00139642
0.00139589
0.00139584
0.00139586
0.00139542
0.0013956
0.00139636
0.00139629
0.00139608
0.00139549
0.00139543
0.00139583
0.00139558
0.00139582
0.00139596
0.00139573
0.00139582
0.00139598
0.0013959
0.00139567
0.00139482
0.00118286
0.00122115
0.00125971
0.00129954
0.00133598
0.00136432
0.0013828
0.00139199
0.00139416
0.001394
0.0013939
0.00139359
0.00139292
0.00139268
0.00139257
0.00139206
0.00139153
0.0013908
0.00139087
0.00139101
0.00139055
0.00139015
0.00138976
0.00139034
0.00139149
0.00139118
0.00139165
0.00139228
0.00139242
0.00139304
0.00139381
0.00139474
0.00139563
0.0013965
0.0013974
0.00139825
0.00139892
0.00139955
0.00139997
0.00140039
0.00140055
0.00140062
0.00140071
0.00140053
0.00140047
0.00140006
0.00139962
0.00139913
0.00139886
0.00139864
0.00139825
0.00139718
0.00139694
0.00139806
0.00139836
0.00139797
0.00139803
0.00139899
0.00139904
0.00139883
0.00139871
0.00139846
0.00139825
0.00139797
0.00139733
0.00139718
0.00139728
0.00139703
0.00139693
0.00139683
0.00139636
0.00139639
0.00139674
0.00139662
0.00139655
0.00139636
0.00139633
0.00139628
0.00139628
0.00139619
0.0013957
0.00139572
0.00139583
0.00139524
0.00139538
0.00139549
0.0013954
0.00139538
0.0013952
0.00139459
0.001183
0.00122109
0.00125961
0.00129937
0.00133608
0.00136483
0.00138292
0.00139065
0.00139234
0.0013924
0.00139292
0.001393
0.00139254
0.00139199
0.00139119
0.00139074
0.00139081
0.00139033
0.00138986
0.0013894
0.00138925
0.00139054
0.00139112
0.00139132
0.00139159
0.00139126
0.00139142
0.00139203
0.0013926
0.00139318
0.00139401
0.00139484
0.00139574
0.00139664
0.00139755
0.00139828
0.0013986
0.00139885
0.0013992
0.00139958
0.00139992
0.00140021
0.00140042
0.0014006
0.0014006
0.00140024
0.00139981
0.00139951
0.00139885
0.00139824
0.00139798
0.00139746
0.00139749
0.00139765
0.00139743
0.00139725
0.00139698
0.00139654
0.00139637
0.00139625
0.00139557
0.00139548
0.00139596
0.00139592
0.00139565
0.00139501
0.00139497
0.00139533
0.00139512
0.00139505
0.00139484
0.00139507
0.0013963
0.00139645
0.00139635
0.00139622
0.00139617
0.00139617
0.00139603
0.00139586
0.00139545
0.00139558
0.00139582
0.00139577
0.00139581
0.00139571
0.00139567
0.00139554
0.00139532
0.00139455
0.00118311
0.00122083
0.00125974
0.00129963
0.00133589
0.00136418
0.00138278
0.00139225
0.00139494
0.00139488
0.00139453
0.00139416
0.00139346
0.00139336
0.00139343
0.00139255
0.00139232
0.00139218
0.00139153
0.00139104
0.00139036
0.00139032
0.00139122
0.00139162
0.00139151
0.00139153
0.0013916
0.0013914
0.00139212
0.00139293
0.00139367
0.0013946
0.00139546
0.00139646
0.00139722
0.00139812
0.00139872
0.00139926
0.00139971
0.00140017
0.00140049
0.00140074
0.00140087
0.00140091
0.00140095
0.00140093
0.00140074
0.00140025
0.0013993
0.0013987
0.00139843
0.00139812
0.00139758
0.001397
0.00139744
0.00139823
0.00139802
0.00139777
0.00139775
0.00139792
0.00139808
0.00139807
0.0013976
0.00139731
0.00139758
0.00139775
0.00139727
0.00139742
0.0013975
0.00139734
0.00139724
0.00139702
0.00139694
0.00139671
0.00139612
0.00139601
0.00139651
0.00139645
0.00139632
0.00139651
0.00139679
0.00139705
0.001397
0.00139665
0.00139676
0.0013969
0.00139682
0.0013968
0.00139655
0.00139537
0.00118302
0.00122103
0.00125949
0.00129983
0.00133589
0.00136402
0.0013829
0.00139191
0.0013955
0.0013957
0.00139484
0.00139433
0.00139412
0.00139383
0.00139326
0.00139241
0.00139217
0.00139236
0.00139146
0.00139093
0.00139134
0.00139152
0.00139082
0.00139072
0.00139122
0.00139104
0.00139153
0.0013923
0.00139279
0.00139347
0.00139405
0.00139496
0.00139589
0.00139693
0.00139791
0.00139877
0.00139931
0.00139975
0.00140018
0.00140008
0.00139977
0.00139985
0.00139979
0.00139979
0.00139983
0.00139986
0.0013997
0.00139924
0.00139853
0.00139851
0.00139857
0.00139839
0.0013982
0.00139755
0.0013975
0.00139872
0.00139881
0.00139832
0.00139825
0.00139893
0.0013989
0.00139862
0.00139847
0.0013982
0.00139755
0.00139752
0.00139756
0.00139718
0.00139708
0.00139698
0.00139675
0.00139649
0.00139663
0.00139665
0.00139644
0.00139678
0.00139718
0.00139703
0.00139698
0.00139687
0.00139673
0.00139612
0.00139588
0.00139644
0.00139663
0.00139638
0.00139636
0.00139634
0.00139624
0.00139535
0.00118299
0.00122123
0.00125931
0.00129953
0.00133622
0.00136455
0.00138264
0.00139127
0.00139312
0.00139265
0.00139246
0.00139244
0.00139191
0.00139146
0.00139082
0.0013906
0.00139141
0.00139104
0.00139074
0.00139177
0.00139202
0.00139157
0.00139105
0.00139099
0.00139106
0.00139102
0.00139109
0.00139116
0.00139165
0.00139235
0.00139325
0.00139415
0.00139512
0.00139614
0.00139718
0.00139807
0.00139905
0.0013998
0.00140026
0.00140021
0.00140038
0.00140014
0.00139981
0.00139971
0.00139976
0.00139962
0.00139896
0.00139869
0.00139848
0.00139791
0.00139797
0.00139799
0.00139728
0.00139728
0.00139736
0.00139684
0.00139663
0.00139643
0.001396
0.00139596
0.00139634
0.00139622
0.00139607
0.0013956
0.00139568
0.00139685
0.00139697
0.00139669
0.0013966
0.0013965
0.00139629
0.0013959
0.00139599
0.00139627
0.00139632
0.00139621
0.00139624
0.00139608
0.00139541
0.0013953
0.00139557
0.00139553
0.00139566
0.00139566
0.00139554
0.00139528
0.00139554
0.0013958
0.00139565
0.00139508
0.00118296
0.001221
0.00125979
0.00129937
0.00133609
0.00136431
0.0013827
0.00139198
0.00139435
0.00139421
0.00139401
0.00139364
0.00139296
0.0013927
0.00139284
0.00139222
0.00139169
0.00139084
0.00139034
0.00139053
0.00139035
0.00138992
0.00138948
0.0013896
0.00139033
0.00139021
0.00139024
0.00139109
0.00139224
0.00139298
0.00139384
0.0013947
0.00139573
0.00139663
0.00139751
0.0013982
0.00139886
0.00139945
0.00139994
0.00140046
0.00140073
0.00140082
0.00140085
0.00140094
0.00140082
0.00140052
0.00140003
0.00139961
0.00139939
0.00139908
0.00139854
0.00139744
0.00139729
0.00139764
0.00139718
0.00139724
0.00139724
0.001397
0.0013968
0.00139625
0.00139582
0.00139616
0.00139632
0.00139601
0.00139562
0.00139566
0.00139641
0.00139635
0.00139627
0.00139616
0.00139598
0.00139572
0.00139522
0.00139487
0.00139516
0.00139526
0.00139516
0.00139502
0.00139517
0.00139557
0.00139542
0.00139498
0.00139501
0.00139518
0.00139475
0.00139505
0.0013958
0.00139577
0.00139571
0.00139495
0.00118308
0.00122089
0.00125967
0.00129967
0.00133588
0.00136411
0.00138294
0.00139203
0.00139435
0.00139438
0.00139456
0.00139427
0.00139341
0.0013932
0.00139346
0.00139259
0.00139224
0.0013924
0.00139157
0.00139125
0.00139154
0.00139115
0.00139059
0.0013905
0.00139099
0.00139148
0.00139176
0.00139157
0.00139228
0.00139324
0.00139407
0.00139505
0.00139597
0.00139704
0.00139798
0.0013988
0.00139914
0.0013995
0.00139982
0.00140009
0.00140036
0.00140055
0.00140072
0.00140085
0.00140092
0.00140094
0.00140085
0.00140054
0.00139984
0.00139879
0.00139831
0.00139795
0.00139765
0.00139709
0.0013969
0.00139737
0.00139724
0.00139693
0.00139652
0.00139611
0.00139604
0.00139601
0.00139602
0.00139588
0.00139533
0.00139533
0.00139586
0.00139571
0.00139561
0.00139538
0.00139554
0.00139556
0.00139539
0.00139508
0.00139512
0.00139574
0.00139568
0.00139565
0.00139536
0.00139559
0.00139578
0.00139574
0.0013957
0.00139507
0.00139498
0.0013952
0.00139515
0.00139515
0.0013951
0.00139464
0.00118299
0.0012211
0.00125942
0.00129981
0.00133605
0.00136388
0.00138251
0.00139261
0.00139562
0.00139565
0.00139532
0.00139504
0.00139452
0.00139365
0.00139337
0.00139321
0.00139231
0.00139202
0.00139214
0.00139125
0.00139095
0.00139135
0.00139108
0.00139066
0.00139076
0.00139113
0.00139165
0.00139211
0.00139209
0.00139294
0.00139389
0.00139464
0.00139572
0.0013967
0.00139773
0.00139868
0.00139949
0.00139992
0.00140022
0.00140053
0.00140079
0.00140106
0.00140117
0.00140129
0.0014013
0.00140097
0.00140081
0.00140038
0.00139998
0.00139973
0.00139949
0.00139907
0.00139823
0.00139764
0.00139801
0.00139952
0.00139947
0.00139884
0.00139892
0.001399
0.00139875
0.0013985
0.00139798
0.00139774
0.00139738
0.0013975
0.00139773
0.0013973
0.00139739
0.00139755
0.00139744
0.00139733
0.00139674
0.00139657
0.00139639
0.00139606
0.001396
0.00139594
0.00139563
0.00139557
0.00139621
0.00139633
0.00139622
0.00139615
0.00139568
0.00139578
0.00139605
0.00139598
0.00139595
0.00139524
0.00118302
0.00122103
0.00125949
0.00129983
0.00133589
0.00136401
0.0013829
0.00139192
0.00139551
0.00139571
0.00139519
0.00139447
0.00139417
0.00139411
0.00139356
0.00139275
0.00139221
0.00139214
0.00139163
0.00139116
0.00139057
0.00139036
0.00139073
0.00139045
0.00139036
0.00139116
0.00139209
0.00139244
0.00139304
0.00139354
0.00139427
0.00139524
0.00139627
0.00139714
0.0013981
0.00139873
0.00139922
0.00139971
0.00140016
0.00140004
0.00139991
0.00139968
0.00139971
0.00139972
0.00139977
0.0013998
0.00139968
0.00139929
0.00139859
0.0013985
0.00139863
0.00139841
0.00139806
0.0013975
0.0013978
0.00139811
0.00139765
0.00139787
0.00139858
0.00139821
0.0013983
0.00139842
0.00139825
0.00139809
0.00139767
0.0013971
0.00139704
0.00139726
0.00139707
0.00139695
0.00139686
0.00139679
0.00139657
0.00139603
0.00139605
0.00139653
0.00139607
0.00139624
0.0013965
0.00139642
0.00139634
0.00139632
0.0013963
0.00139612
0.00139604
0.00139553
0.00139517
0.00139537
0.00139549
0.00139495
0.00118311
0.00122082
0.00125974
0.00129964
0.00133582
0.00136435
0.00138262
0.00139222
0.00139475
0.00139437
0.00139431
0.00139441
0.00139393
0.00139348
0.00139272
0.00139255
0.00139248
0.00139232
0.00139199
0.00139139
0.00139086
0.00139076
0.00139133
0.00139087
0.00139105
0.00139142
0.0013916
0.00139195
0.00139194
0.00139254
0.00139328
0.00139411
0.00139501
0.00139591
0.00139695
0.00139786
0.0013988
0.0013996
0.00140031
0.0014008
0.00140086
0.00140081
0.00140078
0.00140071
0.0014007
0.00140068
0.00140043
0.00139976
0.00139877
0.00139807
0.00139798
0.00139787
0.00139751
0.00139718
0.00139765
0.00139851
0.0013983
0.00139795
0.00139775
0.00139835
0.00139863
0.00139838
0.00139802
0.0013976
0.00139747
0.00139751
0.0013973
0.00139741
0.0013975
0.00139734
0.00139722
0.00139676
0.00139662
0.00139642
0.0013966
0.00139696
0.00139682
0.00139667
0.00139641
0.00139608
0.00139595
0.00139588
0.0013962
0.00139677
0.00139673
0.00139671
0.00139666
0.00139654
0.0013963
0.00139534
0.00118302
0.00122107
0.00125957
0.0012994
0.00133617
0.00136462
0.00138277
0.00139122
0.00139296
0.00139254
0.00139232
0.00139245
0.00139206
0.00139206
0.00139196
0.00139146
0.00139094
0.00139056
0.00139065
0.00139021
0.00138976
0.00138971
0.00139092
0.00139081
0.00139048
0.00139076
0.00139135
0.0013914
0.00139158
0.00139218
0.00139313
0.00139401
0.00139489
0.00139582
0.00139676
0.00139766
0.00139844
0.00139922
0.00139982
0.00140008
0.0014
0.00140001
0.00140014
0.00139987
0.00139972
0.00139956
0.00139892
0.0013984
0.0013984
0.00139835
0.0013979
0.00139775
0.00139798
0.00139788
0.00139746
0.00139751
0.00139762
0.00139744
0.00139727
0.00139686
0.00139633
0.00139636
0.0013967
0.00139653
0.00139637
0.00139579
0.00139572
0.00139563
0.00139584
0.00139646
0.00139637
0.0013963
0.00139611
0.00139585
0.00139569
0.00139535