/*--------------------------------*- C++ -*----------------------------------*\
  =========                 |
  \\      /  F ield         | OpenFOAM: The Open Source CFD Toolbox
   \\    /   O peration     | Website:  https://openfoam.org
    \\  /    A nd           | Version:  11
     \\/     M anipulation  |
\*---------------------------------------------------------------------------*/
FoamFile
{
    format      ascii;
    class       volScalarField;
    location    "0.098";
    object      omega;
}
// * * * * * * * * * * * * * * * * * * * * * * * * * * * * * * * * * * * * * //

dimensions      [0 0 -1 0 0 0 0];

internalField   nonuniform List<scalar> 
287084
(
55.0246
55.8974
56.777
57.6669
58.4524
59.0317
59.3713
59.5025
59.52
59.5202
59.5198
59.5125
59.5097
59.5133
59.5134
59.5209
59.5291
59.5226
59.5275
59.5305
59.5291
59.5286
59.5199
59.529
59.5457
59.5459
59.544
59.5418
59.5364
59.5325
59.5365
59.5368
59.5293
59.532
59.5342
59.531
59.5284
59.5282
59.5283
59.5262
59.5263
59.5233
59.5163
59.5126
59.5071
59.503
59.5003
59.4961
59.4934
59.4883
59.4768
59.464
59.4682
59.4753
59.4743
59.472
59.4739
59.4746
59.4718
59.4628
59.4622
59.4681
59.4686
59.4687
59.4637
59.476
59.4871
59.4858
59.4835
59.4761
59.4804
59.486
59.4834
59.4774
59.4723
59.4749
59.4726
59.4794
59.4921
59.4933
59.4912
59.4881
59.4806
59.4815
59.4926
59.4883
59.4936
59.4967
59.493
59.4788
55.0245
55.8974
56.7676
57.6496
58.4346
59.0242
59.3822
59.5207
59.5409
59.5451
59.5581
59.5516
59.5555
59.5673
59.5658
59.5658
59.5659
59.5649
59.5642
59.5628
59.5594
59.5482
59.5472
59.5649
59.5658
59.5745
59.5826
59.5762
59.579
59.5801
59.578
59.575
59.5729
59.5675
59.5495
59.5484
59.5513
59.5518
59.5515
59.5356
59.5351
59.5407
59.5402
59.5381
59.5372
59.5364
59.5278
59.5181
59.5217
59.5298
59.5278
59.5276
59.5266
59.5274
59.5255
59.5253
59.523
59.5197
59.5189
59.5172
59.5129
59.4982
59.498
59.516
59.5185
59.5154
59.5049
59.5057
59.5159
59.517
59.5171
59.5091
59.5134
59.528
59.5302
59.5283
59.5251
59.5252
59.5224
59.5113
59.5105
59.5153
59.5165
59.5167
59.512
59.5119
59.5074
59.5115
59.513
59.5018
55.0245
55.898
56.7642
57.6503
58.4342
59.0139
59.3753
59.5332
59.5657
59.5657
59.5635
59.5536
59.5556
59.5614
59.5618
59.5618
59.5492
59.55
59.5715
59.5759
59.5752
59.5751
59.5633
59.5653
59.5773
59.5774
59.5776
59.5772
59.577
59.5751
59.5748
59.5701
59.5694
59.5682
59.5656
59.565
59.5671
59.5661
59.5668
59.5643
59.5592
59.548
59.5313
59.5286
59.5312
59.5322
59.5319
59.521
59.518
59.5232
59.5278
59.5267
59.5248
59.525
59.5232
59.5219
59.5177
59.5185
59.5188
59.5147
59.5044
59.4991
59.5061
59.5117
59.5091
59.4988
59.5005
59.5165
59.5126
59.5194
59.5248
59.5244
59.5235
59.5237
59.5244
59.5229
59.5224
59.5113
59.5063
59.508
59.5092
59.5075
59.5028
59.5025
59.5003
59.507
59.5228
59.523
59.5216
59.5064
55.0242
55.8953
56.7664
57.6501
58.4291
59.0082
59.3703
59.5359
59.5683
59.5687
59.5654
59.5689
59.5756
59.5757
59.5757
59.5721
59.571
59.5581
59.5579
59.5672
59.5635
59.5633
59.5633
59.5584
59.5576
59.5676
59.5699
59.5685
59.5678
59.5562
59.5586
59.57
59.5614
59.5667
59.5716
59.5702
59.5692
59.5671
59.5668
59.5634
59.5633
59.5607
59.5608
59.5587
59.5549
59.5441
59.5365
59.5318
59.5298
59.5255
59.511
59.5104
59.515
59.5153
59.5137
59.5141
59.5158
59.5139
59.5124
59.5047
59.5115
59.5167
59.5145
59.5144
59.5144
59.5123
59.5111
59.5087
59.5014
59.5045
59.5178
59.5134
59.5189
59.5222
59.5211
59.5209
59.5135
59.5146
59.5121
59.5186
59.5293
59.5291
59.529
59.5198
59.5204
59.525
59.5219
59.5223
59.5216
59.5078
55.0242
55.894
56.7694
57.6455
58.4252
59.0182
59.3603
59.5264
59.5717
59.5723
59.5692
59.5576
59.5595
59.5662
59.5588
59.5584
59.5581
59.5542
59.5513
59.5592
59.5646
59.5618
59.5517
59.5515
59.5633
59.5614
59.5639
59.5642
59.5573
59.5616
59.5698
59.5586
59.5626
59.5672
59.5672
59.5671
59.5633
59.5554
59.5495
59.5487
59.5432
59.5489
59.5519
59.5441
59.5466
59.5474
59.541
59.5438
59.5446
59.5413
59.5415
59.54
59.5388
59.5344
59.5325
59.5301
59.5251
59.5141
59.4979
59.4997
59.5071
59.5035
59.5055
59.5088
59.5069
59.5032
59.4952
59.4902
59.5011
59.5085
59.5061
59.4973
59.4956
59.5098
59.5102
59.5186
59.5293
59.5182
59.5216
59.5286
59.5189
59.5241
59.5288
59.5282
59.5278
59.5134
59.5149
59.5198
59.5173
59.5081
55.0241
55.8955
56.7658
57.6438
58.4335
59.0161
59.3574
59.4986
59.5603
59.5636
59.5538
59.5583
59.5627
59.5627
59.5626
59.5573
59.5502
59.552
59.5668
59.5683
59.5703
59.5681
59.5649
59.5556
59.5578
59.5627
59.5576
59.554
59.5629
59.5734
59.5638
59.5689
59.5732
59.5725
59.5724
59.5695
59.5677
59.5567
59.55
59.5456
59.533
59.5349
59.5403
59.5381
59.5392
59.5376
59.5352
59.5307
59.5235
59.5157
59.5177
59.5223
59.5201
59.516
59.5119
59.5173
59.5215
59.5187
59.519
59.5198
59.5191
59.5087
59.5104
59.5133
59.5117
59.5113
59.5031
59.5045
59.5045
59.5127
59.5275
59.5259
59.5261
59.5262
59.5247
59.5167
59.5099
59.5101
59.5081
59.5161
59.5241
59.5245
59.5246
59.5168
59.516
59.5097
59.5151
59.5232
59.5208
59.5117
55.0239
55.894
56.7672
57.6409
58.4384
59.0092
59.3546
59.5174
59.5583
59.56
59.5584
59.5578
59.547
59.5488
59.5593
59.5531
59.5585
59.5882
59.5924
59.5856
59.5913
59.5983
59.5967
59.5966
59.5948
59.5943
59.5831
59.5857
59.5881
59.5844
59.5837
59.5819
59.5816
59.5789
59.5725
59.5702
59.5676
59.5656
59.5617
59.5502
59.5478
59.5467
59.5468
59.5466
59.5436
59.5405
59.537
59.5358
59.5322
59.53
59.5296
59.5273
59.5186
59.5116
59.51
59.509
59.5095
59.5091
59.4993
59.4988
59.5071
59.5071
59.511
59.5127
59.51
59.5032
59.4997
59.5071
59.5136
59.511
59.5013
59.5021
59.5095
59.5089
59.5096
59.506
59.5074
59.5061
59.5122
59.5146
59.513
59.5085
59.5108
59.5237
59.5237
59.5223
59.5105
59.5121
59.5183
59.5062
55.0259
55.8911
56.7669
57.6527
58.4236
58.9996
59.3592
59.5439
59.5969
59.5981
59.5943
59.5914
59.5929
59.5972
59.5953
59.5874
59.594
59.601
59.6009
59.601
59.595
59.5939
59.5849
59.5887
59.5989
59.5907
59.5966
59.6014
59.5992
59.5989
59.5945
59.5932
59.5912
59.5916
59.5933
59.5928
59.5906
59.5868
59.5735
59.5649
59.5566
59.5534
59.5517
59.5524
59.5523
59.5474
59.5467
59.5451
59.5439
59.5409
59.5389
59.5345
59.5194
59.5184
59.5248
59.5265
59.5266
59.52
59.5195
59.5142
59.5195
59.5289
59.5219
59.5265
59.5322
59.5321
59.5321
59.5275
59.5264
59.52
59.5077
59.5122
59.526
59.5265
59.5263
59.5193
59.5137
59.5212
59.5309
59.527
59.5286
59.5264
59.5239
59.5169
59.5177
59.5239
59.5205
59.5223
59.5198
59.5077
55.0244
55.8948
56.7636
57.6484
58.4299
59.0073
59.3596
59.5214
59.5566
59.5568
59.5558
59.5443
59.5443
59.5621
59.5616
59.5693
59.5797
59.5724
59.5697
59.5788
59.5826
59.589
59.5998
59.5932
59.5895
59.5888
59.5855
59.5921
59.6023
59.5921
59.5972
59.6022
59.6018
59.6016
59.598
59.5971
59.5921
59.5909
59.5874
59.581
59.5682
59.56
59.5535
59.5385
59.53
59.5297
59.5225
59.5245
59.5329
59.5295
59.5315
59.5319
59.5286
59.5318
59.5329
59.5307
59.5287
59.5168
59.5108
59.5103
59.5102
59.506
59.5035
59.507
59.5048
59.5108
59.5141
59.5115
59.5111
59.5032
59.5108
59.5264
59.524
59.5253
59.524
59.5219
59.5197
59.5164
59.5171
59.5145
59.5206
59.5371
59.5348
59.5355
59.5383
59.5379
59.5362
59.5361
59.5308
59.5121
55.0288
55.8898
56.7626
57.6501
58.43
59.0081
59.3611
59.5108
59.5361
59.53
59.5336
59.5586
59.5636
59.5612
59.5568
59.5516
59.5577
59.5765
59.5756
59.5752
59.5752
59.5747
59.5721
59.5611
59.566
59.5767
59.5752
59.575
59.5679
59.567
59.566
59.5739
59.5773
59.5741
59.5729
59.5707
59.5703
59.5678
59.5674
59.5621
59.5469
59.5435
59.5423
59.5435
59.5436
59.5415
59.5409
59.5351
59.5339
59.53
59.5215
59.5124
59.5043
59.5019
59.4985
59.4874
59.4902
59.4937
59.4897
59.4846
59.4899
59.5086
59.5031
59.5088
59.5127
59.5123
59.5121
59.5025
59.4994
59.5068
59.5138
59.5127
59.5108
59.5095
59.507
59.5049
59.5043
59.4977
59.5045
59.5216
59.5223
59.5222
59.5115
59.509
59.5157
59.5142
59.5217
59.5277
59.5248
59.5138
55.0258
55.8931
56.7656
57.6468
58.4271
59.0092
59.366
59.5135
59.5376
59.5419
59.5536
59.5534
59.5512
59.5437
59.5481
59.5533
59.5453
59.5495
59.5662
59.5659
59.5793
59.5994
59.6002
59.5983
59.5959
59.5933
59.5854
59.5784
59.5844
59.5883
59.5868
59.5863
59.5808
59.5783
59.5662
59.5688
59.5729
59.5601
59.5625
59.567
59.5669
59.5667
59.5628
59.5623
59.5595
59.5552
59.5408
59.5189
59.5133
59.5103
59.4993
59.5016
59.5092
59.5042
59.5078
59.5087
59.5058
59.506
59.505
59.4952
59.4963
59.5091
59.5118
59.5091
59.499
59.5032
59.5136
59.512
59.51
59.4992
59.5026
59.5083
59.499
59.4968
59.5096
59.5187
59.5192
59.5192
59.5087
59.5061
59.509
59.5072
59.5061
59.5178
59.5285
59.5228
59.5267
59.5284
59.5249
59.5126
55.0237
55.8947
56.7657
57.6458
58.4311
59.0059
59.3577
59.527
59.5707
59.573
59.5715
59.5708
59.5616
59.5661
59.5818
59.5742
59.5802
59.587
59.5821
59.5819
59.5792
59.5902
59.601
59.5997
59.5997
59.5915
59.598
59.6059
59.5997
59.6029
59.6068
59.6037
59.6036
59.6034
59.6034
59.6
59.595
59.5919
59.5893
59.5868
59.5833
59.5758
59.5704
59.5593
59.5451
59.5327
59.5275
59.5248
59.5226
59.52
59.5149
59.499
59.4971
59.5068
59.5165
59.5145
59.5042
59.5077
59.5158
59.5099
59.5125
59.5138
59.511
59.503
59.4976
59.5087
59.5174
59.5172
59.5172
59.5073
59.5121
59.5219
59.5224
59.5224
59.5109
59.5149
59.5209
59.5207
59.5205
59.5089
59.5123
59.5209
59.5192
59.5151
59.512
59.5184
59.5221
59.5201
59.5178
59.509
55.0269
55.889
56.7689
57.6516
58.422
58.9986
59.3677
59.5352
59.5649
59.5625
59.5717
59.5847
59.5835
59.5801
59.5794
59.5752
59.577
59.6005
59.6076
59.6053
59.5964
59.5971
59.6051
59.5962
59.597
59.6072
59.6021
59.6073
59.6161
59.6043
59.6078
59.6115
59.6106
59.6104
59.6075
59.6059
59.5981
59.5923
59.5876
59.5834
59.5748
59.5683
59.5638
59.5605
59.5566
59.5486
59.5424
59.5281
59.5175
59.5197
59.5236
59.5209
59.5213
59.5215
59.5221
59.5203
59.5177
59.5149
59.513
59.5128
59.51
59.5097
59.502
59.5068
59.5182
59.5179
59.5183
59.5174
59.5168
59.5141
59.507
59.5099
59.5215
59.5221
59.5217
59.5108
59.5076
59.5206
59.5267
59.5262
59.526
59.5162
59.5169
59.523
59.5201
59.5233
59.5248
59.5239
59.5226
59.5091
55.0252
55.8949
56.7635
57.6421
58.4383
59.008
59.3572
59.5088
59.5355
59.5382
59.5372
59.5287
59.5311
59.5455
59.5485
59.5467
59.5422
59.548
59.57
59.5782
59.5752
59.575
59.5697
59.5703
59.5921
59.6078
59.599
59.5956
59.5963
59.5917
59.5969
59.6025
59.5977
59.5978
59.5957
59.5935
59.5903
59.5837
59.5745
59.5683
59.5576
59.5465
59.5421
59.5335
59.5307
59.5286
59.5276
59.5198
59.5188
59.529
59.5303
59.5286
59.5287
59.5272
59.5263
59.5203
59.5166
59.5126
59.4998
59.5028
59.5138
59.5122
59.5102
59.5004
59.5014
59.5065
59.5036
59.5037
59.5037
59.5001
59.4978
59.511
59.5219
59.5189
59.5212
59.5244
59.5231
59.5207
59.5213
59.518
59.5063
59.508
59.5269
59.527
59.5293
59.5296
59.5271
59.5272
59.5258
59.515
55.0258
55.8917
56.7659
57.6535
58.4237
58.9949
59.3663
59.5401
59.5789
59.5879
59.5885
59.5856
59.5861
59.5842
59.5799
59.5858
59.5918
59.5851
59.591
59.5947
59.5899
59.5888
59.601
59.6111
59.6036
59.6109
59.6227
59.6104
59.6139
59.6184
59.6047
59.6077
59.6093
59.6029
59.5976
59.5951
59.5954
59.5953
59.595
59.5901
59.5851
59.5778
59.5623
59.5466
59.5332
59.5262
59.523
59.5187
59.5121
59.5077
59.5031
59.5019
59.5017
59.4981
59.4978
59.4926
59.4968
59.5116
59.5125
59.5127
59.5105
59.503
59.5053
59.5155
59.5153
59.5109
59.5117
59.5257
59.5269
59.5238
59.5143
59.5121
59.519
59.5219
59.5188
59.5066
59.5057
59.523
59.5275
59.5245
59.5248
59.5233
59.5108
59.5106
59.5243
59.5264
59.5248
59.5251
59.5212
59.5054
55.0232
55.8962
56.7697
57.6398
58.4339
59.0047
59.3562
59.525
59.5671
59.5675
59.5654
59.5599
59.5617
59.5627
59.5598
59.5581
59.5672
59.5802
59.5793
59.5752
59.5782
59.583
59.5748
59.5821
59.5967
59.5858
59.5851
59.6003
59.6059
59.6045
59.6042
59.6002
59.5914
59.5879
59.584
59.5759
59.5728
59.5706
59.5672
59.5641
59.5615
59.5583
59.5559
59.5525
59.5491
59.5471
59.5466
59.5417
59.5397
59.5326
59.5147
59.5007
59.5027
59.505
59.5025
59.4944
59.4954
59.4995
59.4967
59.518
59.5397
59.542
59.54
59.5372
59.5356
59.5229
59.5199
59.5256
59.5226
59.5294
59.5346
59.528
59.5314
59.5358
59.5348
59.5336
59.5237
59.5145
59.5163
59.5208
59.5182
59.5093
59.5141
59.5267
59.5265
59.527
59.5234
59.5227
59.5197
59.5102
55.025
55.893
56.7654
57.6539
58.4266
58.9916
59.3568
59.5494
59.6021
59.6035
59.6016
59.5975
59.5971
59.595
59.5945
59.6058
59.613
59.6105
59.6104
59.6021
59.6018
59.6119
59.6175
59.6153
59.6069
59.6099
59.6199
59.6215
59.6186
59.6084
59.6123
59.6139
59.6088
59.6095
59.6052
59.6031
59.6031
59.6029
59.598
59.5932
59.5884
59.5822
59.5692
59.555
59.543
59.5358
59.5309
59.5284
59.5254
59.5191
59.5039
59.4895
59.4897
59.4952
59.4935
59.4852
59.4892
59.509
59.5074
59.5139
59.5176
59.5151
59.5066
59.5087
59.5161
59.512
59.5095
59.5162
59.5222
59.5209
59.5219
59.5197
59.5141
59.5112
59.5233
59.5288
59.5245
59.5245
59.5241
59.5211
59.5128
59.5181
59.5279
59.5254
59.5256
59.5224
59.5251
59.5263
59.5223
59.5084
55.0247
55.8942
56.7626
57.6558
58.4257
58.9907
59.3639
59.5475
59.5924
59.6041
59.6104
59.6106
59.6106
59.6075
59.6012
59.5989
59.5997
59.5936
59.5998
59.6115
59.6021
59.605
59.6192
59.6171
59.6159
59.628
59.6363
59.6306
59.6333
59.6364
59.6349
59.6343
59.6301
59.6275
59.6245
59.6208
59.6166
59.612
59.6038
59.5911
59.5802
59.5722
59.5618
59.5526
59.5456
59.5414
59.5344
59.519
59.496
59.4946
59.5042
59.5026
59.5027
59.5026
59.4963
59.4943
59.5027
59.5082
59.5076
59.5055
59.5018
59.5004
59.5162
59.5281
59.5217
59.5261
59.5319
59.5297
59.5295
59.5276
59.5147
59.5147
59.5279
59.527
59.5271
59.5242
59.5307
59.5348
59.5256
59.5286
59.53
59.5269
59.5197
59.5153
59.5229
59.5277
59.5248
59.5248
59.5226
59.5071
55.0257
55.8911
56.7675
57.6534
58.423
58.9974
59.3582
59.5444
59.5909
59.5894
59.5893
59.5891
59.5893
59.5871
59.5957
59.6013
59.6004
59.6005
59.5912
59.5962
59.619
59.6235
59.6221
59.6177
59.6169
59.6161
59.616
59.6089
59.6132
59.6154
59.6076
59.6066
59.6071
59.6072
59.6046
59.6004
59.5876
59.5706
59.561
59.5523
59.5481
59.5459
59.5397
59.5375
59.5414
59.5421
59.5408
59.5401
59.5331
59.515
59.4946
59.4937
59.4986
59.4996
59.4997
59.488
59.4892
59.5038
59.5052
59.5055
59.5052
59.5009
59.4995
59.5154
59.5294
59.5296
59.5297
59.5247
59.5237
59.5189
59.5107
59.5123
59.5142
59.5072
59.5134
59.5283
59.5283
59.5253
59.5132
59.5148
59.5251
59.5193
59.5246
59.5276
59.5246
59.5259
59.5271
59.5278
59.5231
59.5058
55.0216
55.896
56.7682
57.6493
58.4239
59.0024
59.3641
59.5336
59.5689
59.5675
59.5691
59.5692
59.5643
59.5677
59.5747
59.5728
59.5689
59.5659
59.5803
59.5913
59.5904
59.5868
59.5857
59.607
59.6312
59.6233
59.6293
59.6351
59.6288
59.6298
59.6282
59.6271
59.6259
59.6233
59.6211
59.6179
59.6116
59.606
59.5976
59.5911
59.5811
59.572
59.5649
59.5544
59.548
59.5356
59.5244
59.5139
59.5091
59.5057
59.4996
59.4814
59.4822
59.5117
59.518
59.5143
59.5204
59.5435
59.547
59.5456
59.5447
59.5423
59.5401
59.5378
59.5287
59.5296
59.5346
59.5312
59.5316
59.5314
59.5221
59.525
59.5344
59.5337
59.5338
59.5305
59.5316
59.5313
59.5325
59.5299
59.5195
59.5212
59.524
59.5124
59.5159
59.5186
59.5165
59.5164
59.5128
59.5013
55.0249
55.8942
56.7659
57.6459
58.4276
59.0136
59.3643
59.5023
59.5275
59.5316
59.5499
59.5559
59.5561
59.5539
59.5465
59.5488
59.5618
59.5614
59.5619
59.5617
59.5686
59.6054
59.6194
59.6274
59.6369
59.6295
59.6297
59.6341
59.6349
59.6332
59.632
59.6304
59.6293
59.6265
59.623
59.6163
59.6013
59.5873
59.5776
59.5703
59.5644
59.5597
59.5554
59.5524
59.5472
59.5359
59.5252
59.5185
59.5047
59.4938
59.4915
59.4855
59.4906
59.4971
59.4955
59.4953
59.4929
59.4877
59.4882
59.4891
59.4787
59.4811
59.4934
59.4951
59.4923
59.4809
59.4841
59.4943
59.4921
59.4931
59.4901
59.4977
59.5246
59.5281
59.5267
59.5253
59.5259
59.5271
59.5242
59.5189
59.5135
59.5184
59.5238
59.5232
59.5221
59.5205
59.5198
59.5196
59.5151
59.5001
55.0273
55.8883
56.7698
57.6513
58.4221
59
59.3651
59.5412
59.5854
59.586
59.5839
59.5808
59.5768
59.5865
59.5971
59.5889
59.5952
59.6023
59.5979
59.5977
59.5942
59.6027
59.6274
59.6401
59.6385
59.6353
59.6346
59.6236
59.628
59.6304
59.6286
59.6282
59.6249
59.6231
59.6161
59.6121
59.6028
59.5941
59.5859
59.5801
59.5732
59.5675
59.5614
59.5556
59.5518
59.5482
59.5423
59.5307
59.5111
59.5013
59.4985
59.4948
59.4863
59.4802
59.4973
59.5164
59.5144
59.513
59.5174
59.5225
59.5292
59.5343
59.5261
59.5238
59.5343
59.5396
59.5325
59.5381
59.5414
59.5395
59.5393
59.5359
59.5351
59.532
59.5218
59.5227
59.5361
59.5325
59.5306
59.5369
59.5412
59.5471
59.5488
59.5433
59.5456
59.5488
59.5469
59.5444
59.5402
59.5171
55.0254
55.8927
56.7642
57.6561
58.4216
58.9967
59.3678
59.5348
59.5995
59.6044
59.5895
59.5879
59.5934
59.5935
59.5938
59.5876
59.5941
59.6088
59.6002
59.6004
59.6197
59.6294
59.6215
59.6247
59.6378
59.632
59.6379
59.6456
59.6435
59.6429
59.637
59.6367
59.6343
59.632
59.6302
59.6252
59.6138
59.6026
59.5932
59.574
59.5544
59.5453
59.5353
59.5289
59.5253
59.5229
59.5181
59.5073
59.496
59.4989
59.5027
59.5015
59.5011
59.492
59.4968
59.5276
59.5308
59.5253
59.5287
59.5463
59.5481
59.545
59.5447
59.5433
59.5322
59.5344
59.5376
59.5331
59.534
59.5334
59.5275
59.5246
59.5304
59.5317
59.5304
59.5391
59.5477
59.5469
59.5472
59.5433
59.5395
59.5261
59.5244
59.5394
59.5422
59.5389
59.5395
59.5394
59.5363
59.5172
55.0249
55.897
56.7594
57.6505
58.4302
59.0076
59.3604
59.5182
59.548
59.54
59.5422
59.5497
59.5474
59.5479
59.5442
59.5514
59.5789
59.58
59.587
59.6216
59.6338
59.6327
59.628
59.6312
59.6342
59.6315
59.6258
59.6218
59.6231
59.6208
59.6194
59.618
59.6175
59.6157
59.6153
59.6107
59.608
59.6029
59.5933
59.5759
59.5659
59.5489
59.5335
59.5254
59.522
59.516
59.5002
59.4949
59.4922
59.4843
59.4892
59.4923
59.4812
59.4855
59.4906
59.4846
59.4851
59.4849
59.4789
59.4823
59.4945
59.4934
59.4934
59.4879
59.494
59.5215
59.5249
59.5227
59.5235
59.5227
59.5172
59.5117
59.5168
59.5217
59.5261
59.5249
59.5244
59.5242
59.5116
59.5117
59.5193
59.5186
59.5204
59.5206
59.5184
59.5134
59.5207
59.526
59.523
59.512
55.0237
55.8927
56.7703
57.6459
58.4272
59.0028
59.3633
59.5353
59.5754
59.5747
59.5768
59.5744
59.5685
59.5744
59.5875
59.5858
59.586
59.5781
59.5794
59.5937
59.5981
59.5967
59.5941
59.6038
59.6206
59.6145
59.6112
59.6237
59.6354
59.6353
59.6351
59.6321
59.631
59.626
59.6196
59.6108
59.6026
59.5945
59.5867
59.5815
59.5732
59.5639
59.5558
59.5509
59.5435
59.5339
59.5222
59.5138
59.5106
59.5058
59.4958
59.4785
59.4818
59.4939
59.4874
59.4926
59.496
59.4947
59.4939
59.4849
59.4808
59.4939
59.4993
59.4944
59.4896
59.4957
59.5148
59.5141
59.5123
59.5114
59.5098
59.506
59.4963
59.4928
59.5023
59.5046
59.5033
59.5017
59.5073
59.516
59.5138
59.5047
59.5066
59.511
59.5027
59.5106
59.5263
59.5254
59.5233
59.509
55.0266
55.8897
56.7682
57.6525
58.4219
58.999
59.369
59.5362
59.5732
59.5757
59.586
59.5877
59.5793
59.5855
59.6014
59.5931
59.5976
59.6126
59.6051
59.6097
59.6235
59.6236
59.6201
59.623
59.6342
59.6409
59.6444
59.6328
59.6361
59.641
59.64
59.6397
59.6365
59.6353
59.6308
59.6235
59.6078
59.595
59.5836
59.5733
59.5654
59.5584
59.5532
59.5494
59.5464
59.544
59.5404
59.5334
59.5186
59.4984
59.492
59.4879
59.4861
59.4801
59.482
59.4956
59.4958
59.4936
59.4864
59.4832
59.4863
59.4875
59.4912
59.4926
59.4847
59.4884
59.503
59.5018
59.5022
59.4991
59.5033
59.5049
59.5031
59.4981
59.502
59.5173
59.517
59.5175
59.5117
59.517
59.5213
59.5209
59.5207
59.5083
59.5085
59.5147
59.5133
59.5138
59.5116
59.5026
55.0248
55.8943
56.7625
57.6562
58.4249
58.9931
59.3608
59.551
59.6014
59.6034
59.6023
59.6016
59.6015
59.594
59.5984
59.6052
59.5977
59.6035
59.6165
59.6078
59.6119
59.6274
59.6279
59.6253
59.6285
59.6328
59.639
59.6427
59.6311
59.6338
59.6359
59.6306
59.6293
59.6269
59.6262
59.6239
59.6173
59.6048
59.593
59.5836
59.5756
59.5701
59.5637
59.5595
59.5549
59.5448
59.5402
59.5308
59.5237
59.5208
59.5183
59.5128
59.4976
59.4917
59.5084
59.5412
59.5443
59.5356
59.5413
59.5462
59.5438
59.5393
59.534
59.5345
59.5293
59.5344
59.5412
59.5354
59.5392
59.5441
59.5433
59.5423
59.5299
59.5272
59.5271
59.523
59.5238
59.5235
59.5172
59.5177
59.5321
59.5339
59.5317
59.5285
59.5212
59.5251
59.5311
59.531
59.5306
59.5156
55.0254
55.8927
56.7642
57.6561
58.4215
58.9967
59.3678
59.535
59.5998
59.6047
59.5975
59.5907
59.5946
59.6027
59.6009
59.5941
59.595
59.6057
59.605
59.6055
59.6017
59.6058
59.621
59.619
59.6191
59.6363
59.6496
59.6481
59.6467
59.6449
59.645
59.6436
59.643
59.6378
59.6338
59.6234
59.6116
59.6019
59.5927
59.5734
59.5571
59.5413
59.5337
59.5275
59.524
59.5218
59.5176
59.5086
59.4973
59.4993
59.5049
59.5021
59.4957
59.4898
59.5026
59.5121
59.507
59.5168
59.5347
59.5311
59.5362
59.5414
59.5406
59.54
59.5327
59.5242
59.5272
59.5343
59.5311
59.5309
59.5312
59.5313
59.5286
59.5184
59.5219
59.534
59.5243
59.529
59.5351
59.5337
59.5331
59.5335
59.5337
59.5301
59.5286
59.5166
59.5111
59.5173
59.5193
59.5099
55.0274
55.8881
56.7699
57.6515
58.4207
59.0034
59.3615
59.5406
59.5831
59.5764
59.5808
59.5898
59.5873
59.5871
59.5823
59.5895
59.596
59.603
59.6084
59.6051
59.6034
59.6117
59.6299
59.6244
59.6299
59.6361
59.6359
59.6353
59.6217
59.6191
59.6175
59.6157
59.6153
59.6118
59.6111
59.6077
59.6052
59.6023
59.5998
59.5937
59.5806
59.5684
59.559
59.5511
59.5464
59.5428
59.5357
59.5199
59.4997
59.4901
59.4918
59.4922
59.4872
59.4844
59.5019
59.5225
59.5219
59.5181
59.5186
59.5359
59.5434
59.541
59.5339
59.53
59.5306
59.5318
59.5318
59.5377
59.5412
59.5394
59.5381
59.5293
59.5271
59.5267
59.5333
59.5393
59.5393
59.5392
59.5317
59.5262
59.5267
59.5261
59.5334
59.5454
59.5447
59.5427
59.5418
59.5394
59.5344
59.5166
55.0254
55.8939
56.7652
57.6468
58.4291
59.0087
59.3625
59.5156
59.543
59.5363
59.5378
59.5489
59.5483
59.5569
59.5633
59.5623
59.5616
59.5657
59.5784
59.5769
59.5762
59.5862
59.6173
59.6177
59.6142
59.6189
59.6268
59.6184
59.6123
59.6131
59.6173
59.6149
59.6104
59.6085
59.6064
59.6036
59.5992
59.5972
59.5916
59.5803
59.5651
59.5548
59.5485
59.5358
59.5283
59.5217
59.5057
59.4974
59.4989
59.4994
59.4935
59.4939
59.501
59.5016
59.4978
59.5021
59.5078
59.5074
59.5073
59.501
59.4939
59.4995
59.5092
59.5078
59.5058
59.4978
59.4989
59.4989
59.5076
59.5221
59.5211
59.5208
59.5181
59.5121
59.5111
59.5072
59.5112
59.5232
59.5219
59.5185
59.5218
59.534
59.5328
59.533
59.5323
59.525
59.5275
59.5325
59.5294
59.5181
55.0237
55.8962
56.7689
57.6399
58.4345
59.0054
59.3555
59.5256
59.5632
59.557
59.5634
59.5699
59.5685
59.5683
59.5577
59.5615
59.5776
59.5906
59.5906
59.5849
59.5857
59.5826
59.5903
59.6268
59.6316
59.6256
59.6253
59.6239
59.615
59.6141
59.6131
59.6107
59.6078
59.6051
59.6025
59.5989
59.5965
59.5892
59.5821
59.5758
59.5679
59.5613
59.5554
59.5502
59.5472
59.5427
59.5324
59.5276
59.5173
59.5134
59.5064
59.5065
59.5069
59.5021
59.5018
59.5026
59.5018
59.4889
59.4915
59.515
59.5174
59.5156
59.5113
59.509
59.5143
59.5193
59.5183
59.5189
59.5177
59.515
59.5092
59.5066
59.52
59.5264
59.5254
59.525
59.5158
59.5209
59.5269
59.5213
59.5226
59.5202
59.5105
59.5099
59.5169
59.5214
59.52
59.5189
59.5181
59.5027
55.0233
55.8961
56.7696
57.6398
58.4341
59.0043
59.3584
59.5243
59.5572
59.5511
59.5556
59.5634
59.5617
59.5616
59.5521
59.5553
59.5843
59.5932
59.5914
59.5842
59.5858
59.6023
59.6038
59.5999
59.6028
59.6133
59.6088
59.616
59.6204
59.6193
59.619
59.6149
59.6137
59.6094
59.6009
59.5907
59.5822
59.5745
59.5686
59.5625
59.558
59.5548
59.5518
59.5493
59.5455
59.5388
59.5302
59.5263
59.5217
59.5124
59.4985
59.4944
59.4884
59.4819
59.4959
59.5205
59.5161
59.5226
59.5273
59.525
59.5207
59.5152
59.5153
59.5125
59.5197
59.5259
59.5256
59.5255
59.5141
59.5187
59.5268
59.5179
59.522
59.5243
59.5202
59.5209
59.5188
59.5118
59.5162
59.5229
59.5216
59.5213
59.5106
59.5153
59.5206
59.5198
59.5195
59.5135
59.5114
59.5003
55.0252
55.8931
56.764
57.6553
58.4238
58.9944
59.3625
59.5472
59.5911
59.5908
59.5926
59.5921
59.5846
59.5834
59.5976
59.6049
59.6042
59.605
59.6035
59.5978
59.6052
59.6151
59.6047
59.6047
59.6156
59.6116
59.6168
59.6269
59.6145
59.6181
59.6205
59.6186
59.6181
59.6132
59.6112
59.6039
59.5998
59.5908
59.5828
59.5763
59.5703
59.5659
59.5609
59.5561
59.5484
59.5306
59.5196
59.5139
59.5008
59.4971
59.5058
59.5033
59.5105
59.5172
59.516
59.5164
59.5142
59.5071
59.5088
59.5126
59.5124
59.5114
59.5134
59.5172
59.5171
59.5171
59.5062
59.5102
59.5147
59.5138
59.512
59.5129
59.5324
59.5364
59.5318
59.531
59.529
59.5282
59.5284
59.5257
59.5271
59.5246
59.5184
59.5114
59.5185
59.5274
59.5233
59.5251
59.5225
59.5093
55.0244
55.8944
56.763
57.6576
58.4226
58.9929
59.3608
59.5434
59.6019
59.6042
59.6027
59.6035
59.6008
59.5947
59.592
59.5986
59.6007
59.5934
59.5966
59.6139
59.6143
59.6241
59.6332
59.625
59.6221
59.6221
59.6184
59.625
59.6279
59.6265
59.6265
59.6242
59.6232
59.6203
59.6194
59.6161
59.6104
59.603
59.5977
59.5875
59.5784
59.5729
59.5683
59.559
59.551
59.5465
59.5408
59.5377
59.5331
59.5277
59.5159
59.5022
59.5068
59.515
59.5131
59.5093
59.5044
59.507
59.5056
59.5131
59.5182
59.5122
59.5127
59.5128
59.5135
59.5082
59.5068
59.5066
59.5122
59.5356
59.5405
59.5399
59.5394
59.5276
59.5291
59.5375
59.5291
59.5344
59.5389
59.5301
59.5343
59.5367
59.5321
59.5327
59.5329
59.5314
59.5296
59.5274
59.5225
59.5062
55.0229
55.8934
56.7702
57.6495
58.4205
59.0054
59.3646
59.5291
59.571
59.5714
59.5689
59.5575
59.5564
59.5596
59.5569
59.5529
59.5611
59.5782
59.5772
59.5777
59.5749
59.5846
59.6075
59.6068
59.5991
59.6028
59.6098
59.6089
59.6084
59.5966
59.5948
59.5905
59.588
59.5875
59.5856
59.5845
59.579
59.5687
59.5626
59.5603
59.5575
59.5546
59.5524
59.5493
59.5437
59.5335
59.5267
59.5219
59.5135
59.4944
59.4892
59.5025
59.5086
59.5042
59.5035
59.5016
59.5013
59.4954
59.4996
59.5147
59.5241
59.5253
59.516
59.519
59.5203
59.5188
59.52
59.5178
59.5098
59.5132
59.5163
59.5155
59.5132
59.5144
59.5172
59.5065
59.5088
59.5189
59.5174
59.5173
59.5185
59.5186
59.5099
59.5156
59.5241
59.5221
59.5223
59.5219
59.5205
59.5068
55.0257
55.8917
56.7662
57.6525
58.4252
58.9958
59.3594
59.5455
59.5985
59.5999
59.598
59.5951
59.5949
59.5918
59.594
59.5952
59.5936
59.5894
59.5923
59.6068
59.6086
59.6073
59.6001
59.6014
59.6165
59.6161
59.6224
59.628
59.628
59.6279
59.6234
59.6225
59.6189
59.6118
59.607
59.6021
59.5973
59.5937
59.5901
59.5862
59.5819
59.5757
59.5707
59.561
59.5494
59.5432
59.5362
59.5323
59.5262
59.5123
59.4965
59.5004
59.5116
59.5126
59.5104
59.4998
59.5031
59.5098
59.5017
59.5011
59.501
59.5012
59.4946
59.4987
59.5082
59.4964
59.4966
59.508
59.5115
59.5097
59.5045
59.5129
59.5216
59.5295
59.5308
59.5201
59.5236
59.5317
59.5327
59.5304
59.5246
59.5215
59.5199
59.5142
59.5147
59.5151
59.5127
59.5129
59.5099
59.5004
55.0251
55.8942
56.7636
57.6471
58.4299
59.0116
59.3624
59.5049
59.5254
59.5232
59.5377
59.5617
59.5614
59.5599
59.5503
59.5465
59.5629
59.5725
59.5653
59.5692
59.5877
59.5886
59.5858
59.5933
59.6096
59.6111
59.6239
59.6285
59.6251
59.6255
59.6231
59.6249
59.6225
59.6194
59.6172
59.6084
59.6006
59.5953
59.5867
59.5788
59.573
59.5694
59.5637
59.5595
59.5565
59.5506
59.5368
59.5266
59.5222
59.5101
59.5127
59.5207
59.5189
59.5169
59.5131
59.5043
59.503
59.5039
59.5028
59.4968
59.4957
59.502
59.5025
59.5012
59.4988
59.5096
59.5178
59.514
59.5137
59.5139
59.5128
59.5019
59.505
59.5178
59.519
59.5188
59.5064
59.5088
59.513
59.5068
59.5099
59.5107
59.5033
59.5073
59.5206
59.5114
59.5153
59.5244
59.522
59.5122
55.0266
55.8897
56.7684
57.6524
58.4196
59.0056
59.3552
59.5386
59.601
59.6068
59.6056
59.6053
59.6035
59.6004
59.5938
59.5835
59.5815
59.5782
59.5841
59.5979
59.5928
59.5958
59.5969
59.5894
59.5904
59.6005
59.5964
59.6031
59.6101
59.6065
59.6074
59.6069
59.607
59.6033
59.6013
59.6006
59.5997
59.5938
59.5805
59.5704
59.5657
59.5605
59.5572
59.5537
59.5511
59.5487
59.5444
59.5369
59.5318
59.5165
59.5147
59.5203
59.5205
59.5172
59.5198
59.5253
59.526
59.5238
59.5188
59.5185
59.5159
59.5142
59.5013
59.5024
59.5063
59.5052
59.5041
59.4996
59.5052
59.5071
59.5013
59.5057
59.5234
59.5248
59.5229
59.5137
59.5112
59.5232
59.5291
59.5265
59.5263
59.5245
59.5121
59.5111
59.5241
59.5266
59.525
59.5253
59.5214
59.5056
55.0237
55.8947
56.7657
57.6457
58.4311
59.0058
59.358
59.5258
59.5716
59.575
59.5737
59.5728
59.563
59.5637
59.5828
59.5804
59.5881
59.5984
59.5917
59.5973
59.6008
59.599
59.5967
59.5915
59.6004
59.6055
59.6042
59.6003
59.6036
59.6082
59.6002
59.604
59.6049
59.6014
59.6019
59.6015
59.6
59.5955
59.5935
59.5864
59.5695
59.5558
59.55
59.5453
59.5361
59.524
59.5274
59.5318
59.5314
59.5314
59.5275
59.5284
59.526
59.5204
59.5178
59.5162
59.5143
59.5196
59.5214
59.5183
59.5125
59.5068
59.5041
59.5011
59.4932
59.4985
59.5081
59.5087
59.5087
59.4978
59.5039
59.5214
59.5209
59.5189
59.5093
59.5142
59.5213
59.5215
59.5214
59.5078
59.5066
59.5258
59.5326
59.5276
59.5308
59.5318
59.5286
59.5284
59.5264
59.5108
55.026
55.8936
56.7636
57.6458
58.4293
59.0172
59.3593
59.499
59.5315
59.5432
59.5631
59.5681
59.5652
59.5573
59.554
59.5641
59.569
59.5632
59.5682
59.5754
59.5736
59.5734
59.5658
59.5659
59.5858
59.5951
59.5944
59.5943
59.5886
59.5864
59.5758
59.5791
59.585
59.5815
59.5813
59.5812
59.5803
59.5779
59.5753
59.5712
59.5701
59.5669
59.5664
59.5641
59.5599
59.555
59.55
59.5408
59.5222
59.5142
59.5091
59.506
59.4967
59.4962
59.5113
59.5132
59.5112
59.5072
59.5029
59.5023
59.5009
59.5059
59.51
59.5077
59.5001
59.5019
59.5042
59.4997
59.4956
59.4999
59.5098
59.5179
59.5209
59.5107
59.5158
59.5207
59.5195
59.5189
59.5097
59.5129
59.5136
59.5205
59.5347
59.5337
59.5317
59.521
59.5251
59.5312
59.528
59.5155
55.0242
55.894
56.7681
57.6425
58.4343
59.006
59.3551
59.5199
59.5565
59.5572
59.5551
59.5484
59.5494
59.5461
59.5533
59.564
59.5629
59.5613
59.559
59.5775
59.5875
59.5862
59.5843
59.5771
59.5818
59.593
59.5892
59.5901
59.5901
59.5788
59.5805
59.5827
59.5782
59.5774
59.5734
59.5739
59.5718
59.5694
59.5672
59.5665
59.5636
59.561
59.5565
59.5536
59.5505
59.5443
59.5305
59.5137
59.5103
59.5026
59.5039
59.5148
59.5102
59.5164
59.5199
59.5127
59.5159
59.5201
59.5192
59.5182
59.5083
59.5021
59.5107
59.5154
59.5145
59.5142
59.5042
59.5114
59.527
59.518
59.523
59.5336
59.5258
59.531
59.5355
59.5353
59.5351
59.525
59.5217
59.5266
59.5282
59.527
59.5276
59.5229
59.5234
59.5236
59.5189
59.5186
59.5176
59.5083
55.0255
55.8944
56.7637
57.6492
58.4292
59.004
59.3592
59.5254
59.5644
59.5677
59.5657
59.562
59.5545
59.5623
59.5803
59.5747
59.5804
59.584
59.5821
59.5763
59.5757
59.5984
59.6082
59.6061