/*--------------------------------*- C++ -*----------------------------------*\
  =========                 |
  \\      /  F ield         | OpenFOAM: The Open Source CFD Toolbox
   \\    /   O peration     | Website:  https://openfoam.org
    \\  /    A nd           | Version:  11
     \\/     M anipulation  |
\*---------------------------------------------------------------------------*/
FoamFile
{
    format      ascii;
    class       volScalarField;
    location    "0.098";
    object      p;
}
// * * * * * * * * * * * * * * * * * * * * * * * * * * * * * * * * * * * * * //

dimensions      [0 2 -2 0 0 0 0];

internalField   nonuniform List<scalar> 
287084
(
1.67748
1.39083
1.33482
1.26431
1.19564
1.14244
1.09123
1.04378
0.998206
0.953565
0.90954
0.865495
0.820695
0.77587
0.731517
0.68626
0.63988
0.59352
0.547295
0.501409
0.455967
0.411424
0.367814
0.3258
0.283949
0.245036
0.213677
0.18504
0.159051
0.137067
0.115966
0.0954465
0.0785556
0.066284
0.0572705
0.0513233
0.0481831
0.0474727
0.0488786
0.0520862
0.0567835
0.0626737
0.0694788
0.0769477
0.0848355
0.092961
0.101076
0.109145
0.116844
0.124262
0.131219
0.137464
0.143335
0.148706
0.15336
0.157086
0.16036
0.162903
0.164689
0.165892
0.166375
0.166261
0.165517
0.164182
0.162313
0.159886
0.156958
0.153516
0.149642
0.145347
0.140612
0.135491
0.130026
0.124212
0.1181
0.11166
0.104954
0.098019
0.0908091
0.083397
0.0757613
0.0679421
0.0599187
0.051723
0.0432658
0.0345335
0.0253923
0.0154187
0.00518749
0.00124712
1.542
1.34931
1.30261
1.24436
1.18385
1.13421
1.08544
1.03938
0.994677
0.950635
0.906937
0.86302
0.818536
0.773938
0.728963
0.683222
0.636878
0.590431
0.544005
0.497908
0.452266
0.407587
0.364027
0.322145
0.282086
0.244648
0.211205
0.180269
0.153106
0.128785
0.106762
0.0880815
0.0728501
0.061145
0.0526034
0.0470499
0.0442413
0.0438529
0.0455683
0.0490756
0.0540628
0.0602288
0.0672905
0.0750016
0.0831141
0.0914361
0.0997566
0.107963
0.115867
0.123391
0.130472
0.136969
0.142907
0.148196
0.152824
0.156726
0.15999
0.162543
0.164391
0.165611
0.166158
0.16607
0.165359
0.16406
0.162197
0.159802
0.156873
0.153458
0.149586
0.145291
0.140576
0.135458
0.129994
0.124176
0.11807
0.111634
0.104926
0.0980094
0.0907977
0.0833874
0.0757699
0.0679672
0.0599474
0.0518119
0.0434002
0.0348786
0.0259647
0.016943
0.00749261
0.00218961
1.51508
1.3432
1.29486
1.23788
1.17957
1.1306
1.0826
1.03692
0.992253
0.948083
0.904051
0.859761
0.814906
0.769865
0.724417
0.678208
0.631488
0.584555
0.537606
0.490962
0.444834
0.399636
0.35568
0.313358
0.273009
0.23523
0.201003
0.169935
0.14179
0.117332
0.096053
0.0778716
0.0630365
0.0516894
0.043637
0.0386032
0.0363405
0.0365212
0.038816
0.0429033
0.0484573
0.0551715
0.0627585
0.0709549
0.0795196
0.088253
0.096948
0.105491
0.113684
0.121488
0.128777
0.135433
0.141589
0.147055
0.15185
0.155911
0.159294
0.161979
0.16392
0.165209
0.165794
0.165754
0.165081
0.163812
0.161984
0.159595
0.156713
0.153318
0.149472
0.145188
0.140476
0.135384
0.129937
0.124134
0.118024
0.111604
0.104914
0.0979753
0.0907919
0.0833977
0.0757866
0.0679914
0.0600141
0.0518534
0.0435031
0.0349263
0.0260878
0.0169227
0.00765549
0.00244781
1.46718
1.30835
1.26528
1.2133
1.16071
1.11531
1.0702
1.02655
0.983354
0.940192
0.89679
0.852814
0.808186
0.76291
0.716938
0.670251
0.62302
0.575477
0.527855
0.480477
0.433611
0.387693
0.343054
0.30015
0.259388
0.221255
0.186277
0.154466
0.126153
0.101328
0.0799135
0.062065
0.0478681
0.0372455
0.0299711
0.0257874
0.0244042
0.0254884
0.0286908
0.0336726
0.040093
0.0476381
0.0560055
0.064932
0.0741715
0.0835183
0.0927851
0.101824
0.110496
0.118701
0.126373
0.133423
0.139815
0.145495
0.150461
0.1547
0.158219
0.16101
0.163077
0.164462
0.165166
0.165207
0.164614
0.16342
0.161637
0.159315
0.156461
0.153107
0.14929
0.145028
0.140353
0.135272
0.129832
0.124041
0.117945
0.111541
0.10486
0.0979392
0.0907661
0.0833832
0.075788
0.0680129
0.0600439
0.051929
0.0436391
0.0351338
0.0264199
0.0172417
0.00826022
0.00302824
1.44384
1.2939
1.25333
1.20337
1.15306
1.10867
1.06427
1.02091
0.97768
0.934294
0.890477
0.845983
0.800756
0.754733
0.707937
0.660396
0.61227
0.563764
0.515125
0.466696
0.418779
0.371812
0.326186
0.282352
0.240774
0.201868
0.166161
0.133807
0.105036
0.0800991
0.0590016
0.0417348
0.0282798
0.0184964
0.0121863
0.00905592
0.0087878
0.0110259
0.0153959
0.0215341
0.029084
0.0377103
0.0471018
0.0569871
0.0671122
0.0772684
0.0872701
0.0969722
0.106233
0.114969
0.123097
0.13054
0.137297
0.143312
0.148571
0.153072
0.156806
0.159795
0.162034
0.163562
0.164379
0.16453
0.16403
0.162908
0.161203
0.158929
0.156131
0.152826
0.149046
0.144816
0.140163
0.135116
0.12971
0.123944
0.11786
0.111474
0.104812
0.0978955
0.0907435
0.0833772
0.0757998
0.0680401
0.0601122
0.0519927
0.0437233
0.0352061
0.0264817
0.0173333
0.0083946
0.0031095
1.41893
1.27059
1.23164
1.18356
1.1356
1.09313
1.05046
1.00845
0.96624
0.92352
0.880065
0.835628
0.790192
0.743703
0.696215
0.647827
0.598706
0.549086
0.49925
0.449535
0.400332
0.352057
0.305187
0.260176
0.217544
0.177735
0.14121
0.108308
0.0792755
0.0542855
0.0334156
0.016675
0.0040004
-0.00477014
-0.00989661
-0.011702
-0.0105603
-0.00686263
-0.00101537
0.00658158
0.0155435
0.0255223
0.0361866
0.0472549
0.0584726
0.0696254
0.080536
0.0910507
0.101051
0.11044
0.119152
0.127125
0.134326
0.140729
0.146324
0.151113
0.155102
0.15831
0.160745
0.162438
0.163411
0.163689
0.163304
0.162287
0.16066
0.158465
0.155729
0.152478
0.148749
0.144561
0.139946
0.134927
0.129537
0.123797
0.117735
0.111371
0.104729
0.0978343
0.0906988
0.0833452
0.0757876
0.0680419
0.0601249
0.0520305
0.043803
0.0352817
0.0266237
0.0174855
0.00857534
0.00330802
1.40062
1.25507
1.2179
1.1714
1.12497
1.08345
1.04141
0.999644
0.957401
0.914414
0.870466
0.825367
0.779121
0.731664
0.683083
0.63346
0.583012
0.531951
0.480589
0.429307
0.378493
0.328639
0.280226
0.233783
0.189853
0.148919
0.111502
0.0779343
0.0485553
0.0235593
0.00305984
-0.0129705
-0.0246381
-0.0321642
-0.0358527
-0.0360767
-0.0332586
-0.0278317
-0.0202478
-0.0109376
-0.000312965
0.0112487
0.0234052
0.0358648
0.0483647
0.0606894
0.0726576
0.0841276
0.0949785
0.105126
0.114503
0.123062
0.130783
0.137646
0.143645
0.148792
0.153091
0.156565
0.159235
0.161133
0.162281
0.162713
0.16246
0.161552
0.16003
0.157918
0.155258
0.152073
0.148395
0.144255
0.139685
0.134709
0.129358
0.123647
0.117611
0.111269
0.104647
0.0977678
0.0906505
0.0833169
0.0757757
0.0680513
0.060162
0.052078
0.0438597
0.0353558
0.0266876
0.0175384
0.00863467
0.00333491
1.38326
1.23797
1.20132
1.15561
1.11006
1.06938
1.02808
0.986882
0.944997
0.90212
0.858051
0.81257
0.76569
0.717364
0.667686
0.616785
0.564869
0.512202
0.459127
0.406023
0.353382
0.301673
0.251492
0.203375
0.157946
0.115737
0.077296
0.0430506
0.0133472
-0.0115898
-0.0316554
-0.0468807
-0.0574127
-0.0635151
-0.0655466
-0.0639383
-0.0591693
-0.0517341
-0.0421316
-0.0308355
-0.0182962
-0.00491057
0.00895701
0.0230022
0.0369588
0.0506108
0.0637825
0.0763302
0.0881491
0.0991565
0.109297
0.118531
0.126843
0.134225
0.140676
0.146211
0.15085
0.154621
0.157551
0.159672
0.161019
0.161618
0.161511
0.160734
0.159321
0.157307
0.154727
0.151611
0.147998
0.143911
0.13939
0.134456
0.129134
0.123457
0.117448
0.111135
0.10454
0.0976847
0.0905854
0.0832668
0.0757464
0.0680371
0.0601605
0.052098
0.0439031
0.0354148
0.0267842
0.0175925
0.00866634
0.00338859
1.36823
1.22378
1.18796
1.14297
1.09821
1.05805
1.01706
0.975922
0.93385
0.890558
0.845859
0.799549
0.751635
0.702079
0.650998
0.598502
0.544848
0.490292
0.435215
0.380045
0.325271
0.271472
0.219245
0.169224
0.122092
0.0784284
0.0388741
0.00386188
-0.0261757
-0.0510246
-0.0705454
-0.0848149
-0.0940141
-0.0984571
-0.0985779
-0.0948713
-0.0878891
-0.0781862
-0.0663184
-0.0528044
-0.0381263
-0.0227149
-0.00694884
0.00885377
0.0244253
0.0395465
0.0540427
0.067781
0.0806567
0.0926054
0.103577
0.113546
0.122501
0.130444
0.137389
0.143358
0.148377
0.152476
0.155691
0.158059
0.15962
0.160407
0.160468
0.159831
0.15854
0.156632
0.154144
0.15111
0.147565
0.143542
0.139073
0.134183
0.128906
0.123265
0.117288
0.111
0.104427
0.0975921
0.0905143
0.0832179
0.0757143
0.0680233
0.0601641
0.0521106
0.0439261
0.0354325
0.0267979
0.0176089
0.00870607
0.00345737
1.35424
1.20989
1.17428
1.1296
1.08513
1.04522
1.00438
0.963268
0.921045
0.877389
0.832133
0.785018
0.736064
0.68524
0.632656
0.578464
0.522904
0.466281
0.409001
0.351516
0.294414
0.238264
0.183793
0.131662
0.0826472
0.037403
-0.00338827
-0.0391942
-0.0695723
-0.0942654
-0.113155
-0.126325
-0.134009
-0.136597
-0.13458
-0.128539
-0.119098
-0.106884
-0.0925117
-0.0765534
-0.0595295
-0.0418984
-0.0240624
-0.00634872
0.0109697
0.0276763
0.0435979
0.0586124
0.0726317
0.0855917
0.0974602
0.108218
0.117868
0.12642
0.133896
0.140326
0.145747
0.150197
0.153715
0.156349
0.158142
0.159126
0.159351
0.158865
0.157705
0.15591
0.153518
0.150569
0.147101
0.14314
0.138723
0.133882
0.128645
0.123044
0.117101
0.110844
0.104298
0.0974895
0.0904341
0.0831542
0.0756672
0.0679923
0.0601455
0.0521119
0.0439423
0.0354717
0.0268587
0.0176454
0.00870618
0.00342945
1.34146
1.1973
1.16196
1.11755
1.07331
1.03351
0.992647
0.951316
0.908669
0.864386
0.818293
0.770124
0.71989
0.667569
0.61328
0.557153
0.499483
0.44057
0.380861
0.320857
0.261168
0.202471
0.145519
0.0910876
0.0400235
-0.00694773
-0.049037
-0.0856922
-0.116383
-0.14087
-0.159003
-0.170923
-0.176909
-0.177422
-0.173046
-0.164439
-0.152313
-0.137369
-0.120288
-0.101699
-0.0821605
-0.062163
-0.0421203
-0.0223737
-0.00320004
0.0151839
0.0326175
0.0489864
0.064208
0.0782329
0.0910389
0.102626
0.113
0.122185
0.130216
0.137131
0.142975
0.147794
0.151633
0.154541
0.156574
0.15777
0.158182
0.157852
0.156828
0.155152
0.152863
0.150003
0.14661
0.142718
0.138362
0.133572
0.128382
0.122821
0.116913
0.110684
0.104164
0.0973776
0.090342
0.083084
0.0756135
0.0679561
0.0601256
0.0521058
0.0439365
0.0354802
0.0268616
0.0176258
0.00871115
0.00344874
1.32954
1.18537
1.15005
1.10576
1.06149
1.02161
0.980558
0.938898
0.895762
0.850792
0.803798
0.754502
0.702914
0.649004
0.592879
0.534708
0.474766
0.413402
0.351087
0.288368
0.225931
0.164482
0.104899
0.0480043
-0.00524462
-0.0540301
-0.0975027
-0.135011
-0.166007
-0.190198
-0.207475
-0.218004
-0.222122
-0.220381
-0.213446
-0.20208
-0.187076
-0.169222
-0.149263
-0.127883
-0.105689
-0.0831953
-0.0608374
-0.0389645
-0.0178572
0.00227819
0.0212835
0.039052
0.0555178
0.070644
0.0844233
0.096865
0.107992
0.117834
0.126438
0.133851
0.14013
0.145326
0.149492
0.152686
0.154965
0.156375
0.156969
0.156804
0.155924
0.15437
0.152188
0.14942
0.146106
0.142283
0.137988
0.133252
0.128105
0.12258
0.116707
0.110512
0.10402
0.0972577
0.0902445
0.0830073
0.0755571
0.0679158
0.0600948
0.0520883
0.04394
0.0354738
0.026891
0.0176579
0.00872446
0.00347826
1.31845
1.17429
1.139
1.0947
1.05035
1.01031
0.968962
0.926851
0.88308
0.837291
0.789262
0.738705
0.685612
0.629972
0.571888
0.511514
0.449169
0.385197
0.320123
0.254531
0.189164
0.12483
0.0624472
0.00297021
-0.0525656
-0.10325
-0.148129
-0.186499
-0.217737
-0.241566
-0.257863
-0.266856
-0.268953
-0.264786
-0.255125
-0.240831
-0.222795
-0.201888
-0.178926
-0.154651
-0.129707
-0.10464
-0.0798998
-0.0558461
-0.032755
-0.0108307
0.00977751
0.0289741
0.04671
0.0629569
0.0777178
0.0910237
0.102906
0.113414
0.122599
0.130517
0.137237
0.142815
0.147319
0.150803
0.153332
0.154961
0.155748
0.155746
0.155006
0.153574
0.151499
0.148826
0.145592
0.141838
0.137604
0.132923
0.127825
0.122343
0.116504
0.11034
0.103878
0.0971415
0.0901467
0.0829256
0.0754888
0.0678644
0.0600595
0.0520666
0.0439187
0.0354916
0.0268989
0.0176239
0.00869784
0.00345181
1.30812
1.16393
1.12856
1.08418
1.03964
0.999315
0.957571
0.914922
0.870451
0.823772
0.774658
0.722741
0.668101
0.610657
0.550523
0.487874
0.423012
0.356344
0.288395
0.219826
0.15143
0.0840846
0.0188247
-0.0433202
-0.10121
-0.153828
-0.20013
-0.239321
-0.270767
-0.294146
-0.309372
-0.316718
-0.316663
-0.309942
-0.297429
-0.280093
-0.25892
-0.234869
-0.208827
-0.18159
-0.153844
-0.126161
-0.0990064
-0.0727458
-0.0476566
-0.0239351
-0.00172041
0.0189085
0.0379134
0.0552808
0.0710308
0.0852033
0.0978454
0.109014
0.118776
0.127201
0.134359
0.140318
0.145155
0.14893
0.151708
0.153552
0.154523
0.154685
0.154088
0.152781
0.150814
0.148232
0.14508
0.141397
0.137226
0.132597
0.127542
0.122098
0.116296
0.110163
0.103727
0.0970132
0.0900417
0.0828403
0.0754228
0.0678176
0.0600221
0.0520452
0.0439068
0.0354932
0.0269263
0.0176365
0.00868667
0.00343836
1.29854
1.1543
1.11883
1.07432
1.02954
0.988899
0.9467
0.903452
0.858198
0.810559
0.760242
0.70697
0.650707
0.591402
0.529166
0.464166
0.396739
0.327289
0.256415
0.184793
0.113298
0.0429016
-0.0253037
-0.0901511
-0.15042
-0.204955
-0.252641
-0.29262
-0.324189
-0.347038
-0.361095
-0.366686
-0.364385
-0.355024
-0.339584
-0.319142
-0.294784
-0.267556
-0.238417
-0.208217
-0.177672
-0.147386
-0.117837
-0.0893906
-0.0623225
-0.0368224
-0.0130167
0.0090249
0.0292772
0.0477487
0.0644676
0.0794882
0.0928709
0.104691
0.115023
0.123944
0.131537
0.137871
0.143028
0.147082
0.150106
0.152166
0.153329
0.153651
0.153189
0.152002
0.150141
0.14765
0.144574
0.140959
0.136845
0.132269
0.127263
0.121862
0.116094
0.109992
0.103585
0.0968964
0.0899422
0.0827587
0.0753535
0.0677587
0.0599776
0.0520113
0.0438897
0.035477
0.026931
0.0176302
0.00867179
0.00345451
1.28968
1.14542
1.10981
1.06512
1.02005
0.97903
0.936317
0.892435
0.846373
0.797743
0.746232
0.69156
0.633668
0.572487
0.508133
0.440786
0.370768
0.298551
0.224717
0.150055
0.0754561
0.00199397
-0.0691332
-0.136668
-0.199277
-0.25569
-0.304708
-0.345399
-0.377035
-0.399275
-0.412097
-0.41588
-0.411284
-0.399249
-0.380867
-0.357323
-0.329799
-0.299423
-0.267228
-0.234105
-0.200812
-0.167971
-0.136077
-0.105498
-0.0765053
-0.0492801
-0.0239376
-0.000529717
0.0209339
0.0404694
0.0581279
0.0739718
0.0880762
0.100525
0.111403
0.120803
0.12881
0.135505
0.140982
0.145313
0.148569
0.150831
0.152167
0.152644
0.152316
0.151246
0.149488
0.147084
0.144088
0.140542
0.136486
0.131958
0.126994
0.12163
0.115895
0.10982
0.103434
0.0967667
0.0898363
0.0826723
0.075285
0.067705
0.0599359
0.0519775
0.0438576
0.0354545
0.0268939
0.0175967
0.0086735
0.00346589
1.28161
1.13728
1.10151
1.05663
1.01127
0.969849
0.926629
0.882075
0.835207
0.785575
0.732865
0.676796
0.617282
0.554249
0.487803
0.418127
0.345571
0.270603
0.193882
0.116208
0.0385677
-0.0378842
-0.111881
-0.182022
-0.246891
-0.305083
-0.355351
-0.396663
-0.428274
-0.449836
-0.461365
-0.463308
-0.45642
-0.441737
-0.420465
-0.39389
-0.363288
-0.329867
-0.294723
-0.258788
-0.222856
-0.187573
-0.153439
-0.120822
-0.0899901
-0.0611176
-0.0343054
-0.00959439
0.0130161
0.0335659
0.052114
0.0687415
0.0835262
0.0965685
0.107968
0.117821
0.126224
0.133262
0.139029
0.143615
0.147101
0.149558
0.151068
0.151694
0.151495
0.150534
0.148869
0.14655
0.143624
0.140138
0.136136
0.131657
0.126736
0.12141
0.115709
0.109665
0.103304
0.0966575
0.0897418
0.0825951
0.0752218
0.0676544
0.0598933
0.0519456
0.0438388
0.0354363
0.0268851
0.0175773
0.00866577
0.0034773
1.2743
1.12992
1.094
1.04892
1.00323
0.96142
0.917644
0.872465
0.824774
0.774178
0.720323
0.662895
0.601818
0.53699
0.468527
0.396618
0.321606
0.24402
0.164498
0.0839534
0.00338149
-0.0759319
-0.152662
-0.225279
-0.29226
-0.352119
-0.403516
-0.445359
-0.476874
-0.497719
-0.507955
-0.508089
-0.498967
-0.481731
-0.457689
-0.428223
-0.394695
-0.358392
-0.32046
-0.281871
-0.243456
-0.205875
-0.169636
-0.135108
-0.102558
-0.0721481
-0.0439676
-0.0180436
0.005647
0.027148
0.046528
0.0638787
0.0793025
0.0928996
0.104779
0.115053
0.123819
0.131171
0.137219
0.142045
0.145738
0.148382
0.150046
0.150803
0.150722
0.149868
0.148293
0.146048
0.14319
0.139763
0.135814
0.131381
0.126498
0.121202
0.115529
0.109511
0.103172
0.0965433
0.0896465
0.0825147
0.0751533
0.0675956
0.0598474
0.0519077
0.0438154
0.0354168
0.026924
0.017629
0.00863952
0.00346192
1.26782
1.12338
1.08727
1.04201
0.996027
0.953809
0.909547
0.863727
0.815289
0.763775
0.708809
0.650114
0.587556
0.521049
0.450688
0.376672
0.29936
0.219287
0.137158
0.0539071
-0.0293906
-0.111382
-0.190657
-0.265549
-0.334489
-0.395838
-0.448229
-0.490481
-0.521833
-0.54193
-0.550894
-0.549286
-0.538052
-0.518422
-0.491796
-0.45965
-0.423419
-0.384456
-0.343958
-0.302935
-0.262241
-0.222557
-0.184395
-0.148125
-0.114005
-0.0821897
-0.0527587
-0.0257246
-0.00106382
0.0212924
0.0414283
0.0594449
0.0754451
0.0895449
0.101866
0.112522
0.121625
0.129271
0.135566
0.140612
0.144496
0.147301
0.149114
0.15
0.150025
0.149261
0.147766
0.145593
0.142797
0.139424
0.135521
0.131127
0.126278
0.121017
0.115373
0.109377
0.103058
0.0964465
0.0895648
0.0824504
0.0750996
0.067555
0.0598136
0.0518801
0.0437868
0.0353967
0.0268507
0.0175508
0.00865704
0.00348457
1.26219
1.11767
1.08142
1.03598
0.989701
0.947122
0.902372
0.855989
0.806837
0.754481
0.698531
0.638659
0.574757
0.506714
0.434623
0.358691
0.279279
0.196968
0.112449
0.0267489
-0.0590423
-0.143445
-0.225003
-0.301935
-0.372598
-0.43527
-0.488493
-0.53107
-0.562215
-0.581583
-0.589347
-0.586133
-0.572967
-0.551162
-0.522203
-0.487641
-0.448986
-0.407648
-0.364861
-0.321668
-0.278947
-0.237389
-0.197513
-0.159689
-0.124172
-0.0911089
-0.0605644
-0.0325446
-0.00700688
0.0161161
0.0369229
0.0555281
0.0720475
0.086595
0.0993013
0.110295
0.119689
0.127589
0.134107
0.139345
0.143395
0.146347
0.14828
0.149275
0.149399
0.148721
0.147298
0.145186
0.142444
0.139118
0.135258
0.130902
0.126085
0.120846
0.115224
0.109252
0.102951
0.0963562
0.0894872
0.0823792
0.0750396
0.0675042
0.0597699
0.051844
0.0437574
0.0353724
0.0268471
0.0175583
0.00865248
0.0034781
1.25742
1.11286
1.07646
1.03087
0.984322
0.941416
0.896247
0.849357
0.799585
0.746497
0.689657
0.628766
0.563675
0.494278
0.420664
0.343052
0.261802
0.177504
0.090904
0.00305368
-0.0848939
-0.171406
-0.254965
-0.333648
-0.405808
-0.469562
-0.523469
-0.566259
-0.597175
-0.615858
-0.622538
-0.617893
-0.603025
-0.579321
-0.548335
-0.511689
-0.470939
-0.42755
-0.382789
-0.337727
-0.293262
-0.250095
-0.208749
-0.169596
-0.132883
-0.0987463
-0.0672489
-0.0383839
-0.0121063
0.0116727
0.0330535
0.0521579
0.0691115
0.084043
0.0970873
0.10837
0.118015
0.126137
0.13285
0.138255
0.142453
0.145531
0.147574
0.148661
0.148866
0.148257
0.146899
0.144844
0.142148
0.138864
0.135037
0.130713
0.125922
0.120706
0.115105
0.109149
0.102862
0.0962814
0.0894241
0.0823301
0.0750007
0.0674735
0.0597459
0.0518252
0.0437486
0.0353594
0.0268574
0.0175594
0.00863428
0.00347383
1.25356
1.10898
1.07245
1.02671
0.979955
0.936768
0.891258
0.84393
0.793638
0.739902
0.682349
0.620606
0.554511
0.483993
0.409114
0.330097
0.247309
0.161372
0.0730237
-0.0166064
-0.106372
-0.194622
-0.27982
-0.359955
-0.433323
-0.497971
-0.552374
-0.595305
-0.625997
-0.64408
-0.649838
-0.643995
-0.62771
-0.602429
-0.56977
-0.531402
-0.488932
-0.443863
-0.397487
-0.350896
-0.305002
-0.260515
-0.217962
-0.177715
-0.140015
-0.105001
-0.0727235
-0.0431676
-0.016273
0.00804331
0.0298942
0.0494107
0.0667271
0.0819761
0.0952913
0.106808
0.116658
0.12496
0.131829
0.137369
0.141682
0.14486
0.14699
0.148158
0.148434
0.147883
0.146572
0.144559
0.1419
0.138646
0.134849
0.130544
0.125777
0.120583
0.114999
0.109061
0.102788
0.0962173
0.089371
0.0822827
0.0749608
0.0674367
0.0597138
0.0517979
0.0437195
0.0353419
0.0268176
0.0175233
0.00864024
0.0034905
1.25063
1.10604
1.06943
1.02354
0.97663
0.933237
0.887449
0.839796
0.789098
0.734885
0.676738
0.614322
0.547477
0.47608
0.400214
0.320108
0.236131
0.148911
0.0592183
-0.0317952
-0.122952
-0.212545
-0.299025
-0.380236
-0.454589
-0.51982
-0.574566
-0.617593
-0.648111
-0.665708
-0.670738
-0.663958
-0.646575
-0.620082
-0.58614
-0.546455
-0.502669
-0.456315
-0.408702
-0.360943
-0.313956
-0.26846
-0.224988
-0.183908
-0.145462
-0.109775
-0.0769037
-0.0468177
-0.0194523
0.00527486
0.0274821
0.047312
0.0648997
0.0803852
0.0939117
0.105613
0.115619
0.124055
0.131046
0.13669
0.141092
0.144347
0.146547
0.14777
0.148095
0.14759
0.146318
0.14434
0.141713
0.138487
0.134709
0.130429
0.125678
0.120496
0.114927
0.108996
0.102732
0.0961694
0.0893284
0.0822493
0.0749299
0.0674148
0.0596996
0.0517896
0.0437144
0.0353337
0.0268363
0.0175449
0.00862699
0.00346618
1.24868
1.10405
1.06737
1.02143
0.974398
0.930853
0.884869
0.836996
0.785997
0.731467
0.672944
0.610074
0.542699
0.470709
0.394178
0.313329
0.228536
0.140453
0.0498344
-0.0421125
-0.134243
-0.224734
-0.312102
-0.394042
-0.46913
-0.534752
-0.58956
-0.632589
-0.663067
-0.68033
-0.684869
-0.677449
-0.659321
-0.632004
-0.597192
-0.556616
-0.51194
-0.464718
-0.416275
-0.367726
-0.320004
-0.27383
-0.229735
-0.188091
-0.149136
-0.112997
-0.0797249
-0.0492743
-0.0215953
0.00340596
0.0258553
0.0458934
0.0636663
0.0793157
0.0929803
0.104801
0.114916
0.123447
0.130515
0.136231
0.140694
0.144003
0.146248
0.147515
0.147878
0.147403
0.146153
0.144195
0.141587
0.138375
0.134613
0.13034
0.125601
0.120434
0.114873
0.10895
0.102692
0.0961354
0.0893021
0.0822263
0.0749115
0.0673944
0.0596802
0.0517687
0.0436979
0.0353192
0.0268086
0.017522
0.00864607
0.00351272
1.24771
1.10305
1.06634
1.02037
0.97328
0.929654
0.883597
0.835583
0.78446
0.729723
0.671043
0.607961
0.540279
0.467991
0.391114
0.309887
0.22468
0.136154
0.0450735
-0.0473534
-0.139958
-0.230909
-0.318723
-0.401058
-0.476537
-0.542514
-0.59704
-0.640012
-0.670577
-0.687686
-0.691979
-0.684241
-0.665735
-0.638004
-0.602754
-0.561731
-0.516607
-0.468947
-0.420082
-0.371138
-0.323046
-0.276529
-0.232123
-0.190197
-0.150995
-0.114624
-0.0811835
-0.0505452
-0.0226421
0.00249246
0.0250391
0.045185
0.0630522
0.0787802
0.0925153
0.104401
0.114568
0.123142
0.130249
0.135998
0.140495
0.14383
0.146097
0.147378
0.147758
0.147299
0.146064
0.144118
0.141519
0.138321
0.134565
0.130298
0.125564
0.120402
0.114845
0.108923
0.102671
0.0961216
0.0892905
0.082218
0.0749014
0.0673888
0.0596764
0.0517682
0.043692
0.035317
0.0268019
0.0175019
0.00863451
0.00349254
1.24771
1.10305
1.06634
1.02037
0.973277
0.929653
0.883591
0.835576
0.784457
0.729728
0.671036
0.607958
0.540281
0.467991
0.391117
0.30989
0.22469
0.136166
0.0450782
-0.0473399
-0.139951
-0.230899
-0.318718
-0.401048
-0.476542
-0.542502
-0.597027
-0.640013
-0.670567
-0.687677
-0.69197
-0.684231
-0.665728
-0.637996
-0.602746
-0.561724
-0.516601
-0.468941
-0.420077
-0.371132
-0.323039
-0.276524
-0.232115
-0.190187
-0.150984
-0.114615
-0.0811779
-0.0505424
-0.0226409
0.00249333
0.0250402
0.0451833
0.0630473
0.0787742
0.0925113
0.104393
0.11456
0.123138
0.130247
0.135996
0.14049
0.143827
0.146096
0.147381
0.147758
0.147302
0.146068
0.144122
0.141525
0.138322
0.134565
0.1303
0.125567
0.120404
0.114847
0.108927
0.102671
0.0961188
0.0892884
0.0822134
0.0749021
0.0673875
0.0596717
0.0517606
0.0436892
0.0353149
0.0268004
0.0175172
0.0086396
0.00349456
1.24868
1.10405
1.06737
1.02143
0.9744
0.930855
0.884883
0.837008
0.786002
0.73147
0.672958
0.610084
0.542702
0.470713
0.394173
0.313326
0.228531
0.140451
0.0498346
-0.042115
-0.134231
-0.224716
-0.312088
-0.394009
-0.469104
-0.534694
-0.58952
-0.632589
-0.663033
-0.6803
-0.684835
-0.677418
-0.659289
-0.631974
-0.597163
-0.55659
-0.511919
-0.464698
-0.416254
-0.367707
-0.319989
-0.273818
-0.229726
-0.188082
-0.149132
-0.112994
-0.0797214
-0.0492715
-0.0215908
0.00340912
0.0258572
0.0458985
0.0636725
0.0793244
0.0929921
0.104813
0.114923
0.123451
0.130519
0.13623
0.140693
0.143999
0.146245
0.147509
0.147869
0.147395
0.146147
0.144191
0.141583
0.138375
0.13461
0.130337
0.125594
0.120428
0.114867
0.108942
0.102689
0.0961373
0.0893039
0.0822302
0.0749129
0.0673987
0.0596791
0.0517702
0.0436938
0.0353176
0.0267996
0.0175062
0.00864017
0.00348622
1.25064
1.10602
1.06942
1.02355
0.97663
0.93323
0.887452
0.839782
0.789096
0.734869
0.676742
0.614346
0.547479
0.476085
0.400225
0.320117
0.236144
0.148932
0.059233
-0.0317725
-0.122936
-0.21251
-0.298994
-0.380196
-0.454547
-0.51977
-0.574524
-0.61755
-0.648053
-0.665658
-0.670687
-0.663908
-0.646527
-0.620035
-0.586096
-0.546415
-0.502631
-0.456281
-0.408671
-0.360916
-0.313933
-0.268442
-0.22497
-0.183891
-0.145445
-0.10976
-0.0768898
-0.0468068
-0.0194427
0.00528178
0.0274872
0.0473148
0.0649021
0.0803884
0.0939127
0.10561
0.115617
0.124056
0.131042
0.136684
0.141087
0.144345
0.146544
0.147768
0.148093
0.147591
0.146321
0.144342
0.141715
0.138488
0.134709
0.130422
0.125669
0.120491
0.114924
0.108992
0.102728
0.0961701
0.0893307
0.082247
0.07493
0.0674108
0.059693
0.0517763
0.0436966
0.0353185
0.0267852
0.0174952
0.00865308
0.00351796
1.25356
1.10897
1.07245
1.0267
0.979955
0.936759
0.891263
0.843926
0.793634
0.73991
0.68236
0.620623
0.554521
0.484004
0.409123
0.330111
0.247325
0.161385
0.0730438
-0.0165931
-0.10634
-0.194589
-0.279779
-0.359906
-0.433265
-0.497901
-0.552306
-0.59524
-0.625926
-0.644008
-0.649764
-0.643921
-0.627639
-0.602363
-0.569709
-0.531346
-0.488881
-0.443815
-0.397443
-0.350857
-0.30497
-0.260488
-0.21794
-0.177696
-0.140001
-0.104988
-0.072712
-0.0431568
-0.0162633
0.00805247
0.029903
0.049418
0.0667316
0.0819804
0.0952982
0.106815
0.116663
0.124963
0.131832
0.13737
0.141681
0.144855
0.146986
0.148153
0.148427
0.147874
0.146564
0.144554
0.141897
0.138645
0.134844
0.130542
0.125774
0.120581
0.114997
0.109054
0.102783
0.0962163
0.0893687
0.0822848
0.0749601
0.0674384
0.0597135
0.0517992
0.0437225
0.0353377
0.0268434
0.0175432
0.00863636
0.00348261
1.25741
1.11286
1.07646
1.03085
0.98432
0.941404
0.896244
0.849338
0.799572
0.746475
0.689678
0.628783
0.563683
0.494291
0.420685
0.343071
0.261825
0.177537
0.0909296
0.0030909
-0.0848589
-0.171354
-0.254908
-0.333587
-0.405732
-0.469484
-0.523382
-0.566181
-0.597083
-0.615767
-0.622447
-0.617808
-0.602942
-0.579238
-0.548259
-0.511618
-0.470872
-0.42749
-0.382735
-0.337684
-0.293226
-0.250065
-0.208722
-0.169571
-0.132859
-0.0987261
-0.0672308
-0.0383669
-0.0120873
0.0116882
0.0330686
0.0521727
0.0691237
0.0840536
0.0970956
0.108376
0.118017
0.126138
0.132846
0.138248
0.142444
0.145524
0.147568
0.148657
0.148863
0.148257
0.146898
0.144843
0.142151
0.138863
0.135032
0.130702
0.12591
0.120697
0.115098
0.109142
0.102861
0.096281
0.0894219
0.082326
0.0749975
0.0674675
0.0597384
0.0518153
0.0437298
0.0353461
0.0268058
0.0175068
0.00865553
0.00351185
1.26218
1.11768
1.0814
1.03597
0.9897
0.947104
0.902375
0.855971
0.806824
0.754406
0.69857
0.638752
0.574763
0.506728
0.434642
0.358715
0.279315
0.196988
0.112484
0.0267777
-0.058985
-0.143392
-0.224935
-0.301867
-0.372518
-0.435182
-0.4884
-0.530969
-0.56211
-0.581474
-0.589241
-0.586029
-0.572866
-0.551066
-0.522114
-0.48756
-0.44891
-0.407577
-0.364797
-0.321611
-0.278898
-0.237344
-0.197474
-0.159658
-0.124144
-0.0910844
-0.0605427
-0.0325235
-0.00699109
0.0161308
0.0369362
0.0555352
0.0720471
0.0865936
0.0993018
0.110292
0.119682
0.127586
0.134112
0.139347
0.143395
0.146342
0.148276
0.149273
0.149397
0.148714
0.147291
0.145185
0.142444
0.139119
0.135254
0.130898
0.126082
0.120845
0.115221
0.109246
0.102946
0.0963552
0.0894862
0.0823812
0.0750402
0.0675022
0.0597665
0.0518456
0.0437618
0.0353712
0.0268612
0.0175752
0.00864201
0.00345792
1.26781
1.12338
1.08727
1.042
0.996017
0.953797
0.909528
0.863711
0.815263
0.763748
0.708815
0.65016
0.587578
0.521067
0.45071
0.376702
0.299395
0.219332
0.137199
0.0539582
-0.0293339
-0.111312
-0.190575
-0.265463
-0.334385
-0.395735
-0.448111
-0.490364
-0.521712
-0.54181
-0.550773
-0.549171
-0.537941
-0.518315
-0.491696
-0.459558
-0.423332
-0.384378
-0.343888
-0.302874
-0.262189
-0.222511
-0.184354
-0.148091
-0.113976
-0.0821646
-0.0527368
-0.0257039
-0.00104172
0.0213129
0.0414481
0.0594626
0.0754609
0.0895633
0.101883
0.112532
0.121624
0.129269
0.135564
0.140605
0.144486
0.147293
0.149103
0.149988
0.150018
0.149256
0.147763
0.145592
0.142799
0.139428
0.135519
0.131122
0.126273
0.121007
0.115362
0.109368
0.10305
0.0964423
0.089562
0.0824447
0.0750923
0.0675452
0.0598014
0.051874
0.0437779
0.0353921
0.026877
0.017572
0.00863811
0.0034469
1.2743
1.12991
1.09397
1.04891
1.00323
0.961402
0.91765
0.872445
0.82477
0.774173
0.720321
0.662919
0.601833
0.537012
0.468559
0.396644
0.321653
0.244049
0.164554
0.0839966
0.00345213
-0.0758652
-0.152578
-0.225186
-0.292161
-0.352014
-0.403399
-0.445231
-0.476746
-0.497583
-0.507821
-0.507954
-0.498839
-0.481612
-0.457579
-0.428122
-0.394603
-0.358304
-0.32038
-0.281799
-0.243392
-0.205818
-0.169586
-0.135068
-0.102525
-0.0721204
-0.0439397
-0.018016
0.00566736
0.0271652
0.0465443
0.0638938
0.0793122
0.0929046
0.104784
0.115051
0.123813
0.131169
0.137219
0.142044
0.145736
0.148374
0.150038
0.150797
0.150718
0.14986
0.148284
0.146045
0.143189
0.139763
0.135812
0.13138
0.126496
0.121199
0.115524
0.109506
0.103167
0.0965418
0.089644
0.0825126
0.0751516
0.0675932
0.0598434
0.0519018
0.0438122
0.0354086
0.0268848
0.0175811
0.00865442
0.0034889
1.28159
1.13727
1.10152
1.05662
1.01125
0.969845
0.92661
0.882073
0.835194
0.785573
0.732869
0.676811
0.617297
0.554265
0.487825
0.418157
0.345604
0.270653
0.193939
0.116278
0.0386465
-0.0378002
-0.111783
-0.181923
-0.246771
-0.304963
-0.355219
-0.396526
-0.428133
-0.449691
-0.461226
-0.463171
-0.456285
-0.44161
-0.420347
-0.393784
-0.36319
-0.329778
-0.294642
-0.258716
-0.222788
-0.187511
-0.153383
-0.120775
-0.0899506
-0.0610841
-0.0342787
-0.00957007
0.0130401
0.0335877
0.052135
0.0687609
0.0835457
0.0965874
0.107982
0.117829
0.126224
0.133258
0.139025
0.14361
0.147093
0.149549
0.151058
0.151684
0.151487
0.150529
0.148865
0.146549
0.143629
0.140145
0.136138
0.131655
0.126731
0.121402
0.115701
0.109655
0.103293
0.0966494
0.0897347
0.0825885
0.0752124
0.0676428
0.059881
0.0519362
0.043825
0.0354274
0.0268767
0.0175628
0.00866436
0.00347103
1.28968
1.14541
1.10978
1.06512
1.02004
0.979023
0.936315
0.892425
0.846368
0.797745
0.746234
0.691571
0.633683
0.572504
0.508163
0.44081
0.370825
0.298588
0.224787
0.150114
0.0755389
0.00208306
-0.0690351
-0.136563
-0.199161
-0.255562
-0.304576
-0.345258
-0.376892
-0.399125
-0.411949
-0.41573
-0.411142
-0.399115
-0.380741
-0.357206
-0.329695
-0.299326
-0.26714
-0.234024
-0.200741
-0.167909
-0.136022
-0.105451
-0.0764658
-0.0492491
-0.0239091
-0.000502609
0.0209564
0.0404921
0.0581514
0.0739928
0.0880907
0.100535
0.111413
0.120808
0.128809