/*--------------------------------*- C++ -*----------------------------------*\
  =========                 |
  \\      /  F ield         | OpenFOAM: The Open Source CFD Toolbox
   \\    /   O peration     | Website:  https://openfoam.org
    \\  /    A nd           | Version:  11
     \\/     M anipulation  |
\*---------------------------------------------------------------------------*/
FoamFile
{
    format      ascii;
    class       volScalarField;
    location    "0.068";
    object      k;
}
// * * * * * * * * * * * * * * * * * * * * * * * * * * * * * * * * * * * * * //

dimensions      [0 2 -2 0 0 0 0];

internalField   nonuniform List<scalar> 
287084
(
0.381236
0.394815
0.408373
0.418994
0.425476
0.428264
0.428779
0.428762
0.428676
0.428647
0.428761
0.428717
0.42883
0.428919
0.428918
0.428918
0.428849
0.428835
0.428662
0.428677
0.428889
0.428815
0.428917
0.429064
0.429035
0.429
0.428811
0.428843
0.428995
0.428972
0.429009
0.429026
0.428991
0.428939
0.428924
0.428858
0.428641
0.428626
0.428627
0.428585
0.428437
0.428444
0.428467
0.42843
0.428428
0.428386
0.42834
0.428203
0.428209
0.428144
0.428189
0.428414
0.428479
0.428456
0.428433
0.428284
0.428236
0.428246
0.428128
0.428231
0.428343
0.428314
0.428218
0.428206
0.428488
0.428541
0.428495
0.428361
0.42833
0.428453
0.428478
0.428443
0.428304
0.428333
0.42848
0.428558
0.428541
0.428485
0.428454
0.428381
0.42838
0.428357
0.428496
0.428607
0.428612
0.42861
0.428436
0.428375
0.428329
0.428187
0.381284
0.39476
0.408155
0.418816
0.4254
0.428325
0.428898
0.428766
0.428781
0.429041
0.429124
0.429101
0.429119
0.429086
0.429025
0.42889
0.428779
0.428831
0.428911
0.428882
0.428804
0.428928
0.429302
0.429318
0.429332
0.429303
0.429278
0.429248
0.429061
0.428966
0.428978
0.428913
0.429006
0.429046
0.428962
0.428983
0.428948
0.428893
0.428716
0.428793
0.428905
0.428891
0.428881
0.428665
0.428693
0.428811
0.4287
0.428773
0.428809
0.428798
0.428787
0.428581
0.428524
0.428482
0.428421
0.428441
0.428444
0.428457
0.42835
0.42831
0.428287
0.428433
0.428613
0.428616
0.428616
0.428433
0.428503
0.428684
0.428686
0.428684
0.428547
0.428663
0.428822
0.428776
0.428788
0.428747
0.428643
0.428547
0.428539
0.42852
0.428597
0.428618
0.428591
0.428519
0.428595
0.428701
0.428631
0.428646
0.428598
0.428385
0.381288
0.394746
0.408143
0.418814
0.425276
0.428336
0.429114
0.429127
0.429091
0.429041
0.429052
0.428966
0.429011
0.429032
0.429005
0.428936
0.428992
0.429199
0.42918
0.429145
0.428967
0.428979
0.429102
0.429251
0.429343
0.429297
0.429297
0.429278
0.429213
0.429189
0.429197
0.429157
0.429161
0.429151
0.429156
0.429087
0.428969
0.428916
0.428767
0.428826
0.428901
0.428714
0.428783
0.428832
0.42882
0.428816
0.428615
0.428681
0.428804
0.42881
0.42881
0.42876
0.428751
0.428671
0.428457
0.428476
0.42855
0.428431
0.428394
0.428411
0.428408
0.428511
0.428544
0.42852
0.428447
0.428492
0.428791
0.428799
0.428763
0.428715
0.428666
0.428632
0.428623
0.428463
0.428479
0.428529
0.428456
0.428422
0.428449
0.42846
0.428315
0.428346
0.428542
0.428561
0.428564
0.428602
0.42862
0.428599
0.428582
0.428348
0.381261
0.394772
0.408163
0.418719
0.425233
0.428365
0.429188
0.429206
0.429171
0.42908
0.429171
0.429247
0.429224
0.429213
0.429031
0.429097
0.429241
0.429123
0.429181
0.429218
0.429162
0.429182
0.429169
0.429
0.429035
0.42907
0.429
0.428992
0.428892
0.429035
0.429273
0.429262
0.429268
0.429199
0.429151
0.429151
0.429157
0.429079
0.428845
0.428794
0.428815
0.428814
0.428772
0.428683
0.428685
0.428678
0.428746
0.42876
0.428709
0.428531
0.42856
0.428611
0.428611
0.428611
0.428555
0.428551
0.428508
0.428382
0.428439
0.428685
0.428695
0.428697
0.428612
0.428571
0.428418
0.428494
0.428695
0.42851
0.428561
0.428728
0.428718
0.428689
0.428639
0.428593
0.428445
0.428468
0.428717
0.428847
0.428794
0.428807
0.428802
0.428702
0.428613
0.428683
0.428727
0.428682
0.428531
0.428567
0.42862
0.428406
0.381256
0.394782
0.408146
0.418674
0.425332
0.428267
0.428867
0.429001
0.429104
0.429076
0.428986
0.42903
0.429134
0.429099
0.429038
0.428963
0.428964
0.42889
0.428956
0.42899
0.428961
0.42888
0.428902
0.429133
0.429145
0.429091
0.429104
0.429035
0.429029
0.429103
0.429132
0.429101
0.429065
0.42903
0.429005
0.428908
0.428789
0.428967
0.429129
0.429133
0.429131
0.429027
0.429015
0.428963
0.428956
0.428918
0.428868
0.428828
0.428771
0.428656
0.428476
0.428489
0.428514
0.428438
0.42844
0.428432
0.428437
0.428335
0.428418
0.4285
0.428427
0.428434
0.428405
0.428418
0.428361
0.428337
0.42829
0.428406
0.428497
0.428478
0.428425
0.42842
0.428725
0.42883
0.428817
0.428834
0.428798
0.428722
0.428694
0.428669
0.428646
0.428623
0.428563
0.428409
0.428367
0.428543
0.428623
0.428607
0.42859
0.428415
0.381256
0.394757
0.408146
0.418783
0.425285
0.42797
0.428551
0.428655
0.428988
0.429072
0.429021
0.42902
0.429008
0.428945
0.42876
0.428809
0.428921
0.428995
0.429041
0.429003
0.429015
0.429007
0.428883
0.428937
0.429056
0.428854
0.428832
0.429088
0.429202
0.429181
0.429175
0.429137
0.429079
0.429025
0.428849
0.428901
0.428974
0.428824
0.428883
0.428947
0.428895
0.428898
0.428894
0.428852
0.428791
0.428663
0.428524
0.428579
0.428658
0.428649
0.428646
0.428554
0.428484
0.428575
0.428665
0.428647
0.428644
0.428532
0.428497
0.42859
0.428665
0.428643
0.428639
0.428584
0.42839
0.428397
0.428682
0.42877
0.428746
0.428719
0.4287
0.428652
0.428474
0.428454
0.428613
0.428585
0.428659
0.428743
0.428729
0.428739
0.428682
0.428527
0.428442
0.428585
0.428715
0.428681
0.428608
0.428597
0.428554
0.428412
0.381232
0.394766
0.408156
0.418769
0.4253
0.427954
0.428882
0.428928
0.428926
0.428923
0.428778
0.428692
0.428935
0.429294
0.429164
0.429219
0.42954
0.429568
0.429528
0.429456
0.429431
0.429393
0.429358
0.429267
0.429357
0.429439
0.429391
0.429222
0.429217
0.429271
0.429186
0.429166
0.429138
0.429042
0.42909
0.429117
0.429057
0.428903
0.428838
0.428993
0.429039
0.428984
0.428792
0.428817
0.428892
0.428863
0.428839
0.428709
0.428712
0.428779
0.428739
0.428559
0.428598
0.428634
0.428615
0.428629
0.428565
0.428588
0.428544
0.428612
0.428636
0.428585
0.428458
0.428419
0.428501
0.42845
0.428517
0.428568
0.428526
0.428392
0.428438
0.428545
0.428516
0.428449
0.428475
0.428658
0.428606
0.428603
0.428604
0.428587
0.428491
0.428548
0.428642
0.428636
0.428633
0.428464
0.428496
0.428669
0.428658
0.428531
0.381249
0.39476
0.408225
0.418616
0.42511
0.428427
0.429495
0.429721
0.429672
0.429677
0.429614
0.429664
0.429693
0.429668
0.429662
0.429629
0.429632
0.429622
0.429591
0.429429
0.429496
0.429584
0.429545
0.429556
0.429527
0.429505
0.429444
0.429406
0.429394
0.429425
0.429418
0.429424
0.429373
0.429241
0.429159
0.429112
0.429061
0.428904
0.428967
0.429175
0.429147
0.429108
0.4289
0.428897
0.428975
0.428925
0.428922
0.428922
0.428898
0.428817
0.428772
0.428665
0.428767
0.428923
0.428863
0.428856
0.428734
0.428814
0.428862
0.428852
0.428852
0.428791
0.428635
0.428576
0.428543
0.428511
0.428428
0.42848
0.428635
0.428524
0.428589
0.428693
0.428683
0.428677
0.428486
0.428503
0.428796
0.428824
0.428767
0.428765
0.428731
0.428544
0.42847
0.428673
0.42876
0.428712
0.428541
0.428562
0.428648
0.428426
0.381245
0.394755
0.408169
0.418759
0.42519
0.428172
0.428915
0.428929
0.428895
0.42885
0.428758
0.428888
0.429349
0.429366
0.42931
0.429337
0.429333
0.429289
0.429432
0.429614
0.429536
0.429544
0.429545
0.429416
0.429486
0.429567
0.42955
0.429561
0.429535
0.429514
0.429452
0.429437
0.429357
0.429158
0.42905
0.429012
0.428983
0.428995
0.428979
0.428826
0.428867
0.42902
0.428814
0.428816
0.428973
0.428982
0.428939
0.428972
0.428987
0.428965
0.428952
0.428781
0.428734
0.428704
0.428637
0.428412
0.428402
0.428614
0.428639
0.428601
0.428412
0.428437
0.428674
0.428686
0.428655
0.428643
0.428583
0.428412
0.428366
0.42864
0.428773
0.42876
0.428758
0.428664
0.428635
0.428464
0.428451
0.428782
0.428895
0.428853
0.428867
0.428874
0.428842
0.428592
0.428571
0.428668
0.428576
0.428574
0.428567
0.428414
0.381269
0.394662
0.408267
0.418746
0.425172
0.428116
0.428729
0.428732
0.428692
0.428744
0.429062
0.429095
0.429048
0.428875
0.428905
0.429104
0.429047
0.429111
0.429177
0.429134
0.42898
0.429038
0.429157
0.429094
0.429127
0.429088
0.429037
0.429001
0.429156
0.429275
0.429195
0.42919
0.429178
0.428998
0.429026
0.429099
0.429032
0.429048
0.429043
0.429046
0.42904
0.428997
0.428958
0.428917
0.428708
0.428482
0.428471
0.42855
0.428527
0.428458
0.428346
0.42842
0.428477
0.428428
0.42826
0.428285
0.428378
0.428278
0.428214
0.428387
0.428582
0.42858
0.428577
0.428476
0.428442
0.428306
0.428241
0.428368
0.428426
0.428488
0.428503
0.428459
0.42833
0.428365
0.428493
0.428402
0.428341
0.428495
0.428647
0.42865
0.428649
0.428453
0.428487
0.428764
0.428789
0.42876
0.428724
0.428693
0.428629
0.428422
0.381263
0.394732
0.408178
0.418712
0.425252
0.428211
0.428815
0.428817
0.428776
0.428848
0.428964
0.428932
0.428884
0.42895
0.429075
0.428907
0.428969
0.429226
0.42914
0.429262
0.429396
0.429402
0.429404
0.429196
0.429266
0.429353
0.429131
0.429193
0.429269
0.429214
0.429206
0.429107
0.429203
0.429304
0.429282
0.42929
0.429254
0.429211
0.429164
0.429119
0.429076
0.429019
0.428796
0.428695
0.428618
0.428386
0.428382
0.428605
0.428679
0.428645
0.42852
0.428601
0.428642
0.428596
0.42845
0.428472
0.428507
0.428438
0.428357
0.428421
0.428571
0.428556
0.428546
0.42839
0.428474
0.428561
0.428528
0.428481
0.428353
0.42843
0.428555
0.428528
0.42844
0.428518
0.428584
0.428554
0.428549
0.428395
0.428445
0.428658
0.428607
0.428553
0.428648
0.428776
0.428734
0.428577
0.428605
0.428665
0.42862
0.428474
0.381235
0.394775
0.408152
0.418733
0.425225
0.428174
0.429075
0.429132
0.429112
0.429107
0.428952
0.428969
0.429241
0.42951
0.429515
0.429367
0.42936
0.429359
0.429247
0.429272
0.429432
0.429424
0.429453
0.429436
0.429342
0.429441
0.429572
0.429558
0.429586
0.429531
0.429498
0.429477
0.429483
0.429452
0.429435
0.429373
0.429328
0.429234
0.429073
0.428937
0.42883
0.428744
0.428673
0.428459
0.428491
0.428569
0.428552
0.42855
0.428436
0.428457
0.428416
0.428523
0.42873
0.428697
0.4287
0.428677
0.42856
0.428498
0.428465
0.428416
0.428381
0.428354
0.428284
0.428363
0.428666
0.42867
0.428658
0.428565
0.428454
0.428597
0.428722
0.42869
0.428638
0.428512
0.428592
0.428674
0.428631
0.428554
0.42842
0.428542
0.428648
0.428617
0.428512
0.428553
0.428687
0.428701
0.428703
0.428615
0.42859
0.428382
0.381252
0.394751
0.408246
0.418572
0.42515
0.428436
0.429334
0.429357
0.429252
0.429328
0.429504
0.429303
0.429294
0.429416
0.429305
0.429382
0.429604
0.429631
0.429594
0.429392
0.429461
0.429646
0.42954
0.429476
0.4296
0.4297
0.429579
0.429645
0.429667
0.429628
0.429583
0.42954
0.429456
0.429376
0.429187
0.42911
0.429142
0.429144
0.42912
0.428931
0.428886
0.428915
0.428926
0.42889
0.42869
0.428721
0.428841
0.428791
0.428839
0.428848
0.428828
0.428844
0.428802
0.42869
0.428539
0.428569
0.42867
0.428621
0.428476
0.428416
0.428605
0.428729
0.428717
0.428739
0.42871
0.428651
0.428465
0.428484
0.428598
0.428492
0.428564
0.428646
0.428636
0.428633
0.428464
0.428512
0.428759
0.428766
0.428727
0.42854
0.428577
0.428724
0.42872
0.428728
0.428674
0.428554
0.428581
0.428634
0.428591
0.428456
0.381259
0.39472
0.408158
0.418817
0.425261
0.427938
0.428785
0.428821
0.428629
0.428714
0.428825
0.42867
0.428758
0.428828
0.428654
0.428684
0.428909
0.428855
0.428983
0.429158
0.429068
0.429008
0.429092
0.429161
0.429258
0.429498
0.429338
0.429421
0.429487
0.429438
0.429327
0.429319
0.429275
0.429225
0.429136
0.429086
0.429086
0.428929
0.428978
0.429036
0.428977
0.428994
0.428991
0.428961
0.428935
0.42893
0.42876
0.428806
0.428854
0.428849
0.428847
0.428717
0.428606
0.428552
0.428589
0.428593
0.428563
0.428438
0.428525
0.428619
0.428603
0.428598
0.428421
0.428475
0.428548
0.428521
0.428442
0.428421
0.428539
0.428507
0.428608
0.428662
0.428644
0.428638
0.428474
0.428451
0.428391
0.428468
0.428716
0.428575
0.428633
0.428838
0.42886
0.428867
0.428819
0.428658
0.428694
0.428832
0.428797
0.428629
0.38125
0.394759
0.408221
0.418623
0.42508
0.42845
0.429498
0.429544
0.429426
0.429498
0.429647
0.42945
0.429517
0.429638
0.429498
0.429485
0.429484
0.42938
0.429411
0.429546
0.429447
0.429519
0.42972
0.429714
0.429661
0.429688
0.429691
0.429672
0.429688
0.429654
0.429608
0.429565
0.429527
0.429486
0.429448
0.429447
0.42939
0.429297
0.429108
0.428991
0.428894
0.428687
0.428516
0.428621
0.428733
0.428697
0.428697
0.428645
0.428461
0.428415
0.428481
0.428414
0.428371
0.42854
0.428659
0.428597
0.428594
0.428605
0.4286
0.428472
0.428422
0.428624
0.428772
0.428737
0.4286
0.428654
0.428792
0.428786
0.428775
0.428531
0.428555
0.428663
0.42863
0.428595
0.428413
0.428493
0.428743
0.42875
0.428737
0.428534
0.428577
0.428725
0.428625
0.428661
0.428669
0.428633
0.42849
0.428531
0.42859
0.428399
0.381267
0.394797
0.408102
0.418694
0.425292
0.428065
0.429077
0.429141
0.429022
0.428925
0.428979
0.429108
0.42907
0.428926
0.428903
0.429169
0.429271
0.429232
0.429092
0.429141
0.429234
0.429067
0.429104
0.429277
0.429275
0.429233
0.429322
0.429419
0.429201
0.429201
0.429283
0.429196
0.429127
0.429194
0.429221
0.429189
0.429181
0.429148
0.429134
0.429113
0.429082
0.429052
0.42899
0.428952
0.42892
0.428843
0.428648
0.428428
0.428383
0.428292
0.428393
0.428539
0.428545
0.428546
0.428389
0.428511
0.428695
0.428661
0.428914
0.429063
0.429048
0.429039
0.428882
0.428909
0.428934
0.428824
0.428918
0.42897
0.428955
0.428954
0.428897
0.428793
0.428625
0.428668
0.428716
0.428676
0.428549
0.42858
0.428605
0.428452
0.428417
0.428622
0.428777
0.428773
0.428769
0.428589
0.428615
0.428643
0.428597
0.428454
0.38125
0.394778
0.40821
0.418636
0.425016
0.428388
0.429672
0.429774
0.429734
0.429729
0.429623
0.429711
0.429788
0.429744
0.429742
0.429754
0.429735
0.429535
0.429447
0.429514
0.429561
0.42958
0.429555
0.429441
0.429521
0.42969
0.429649
0.429646
0.42963
0.429628
0.429523
0.429479
0.429469
0.429434
0.429385
0.429321
0.429276
0.429225
0.429174
0.429128
0.429047
0.428889
0.428566
0.4285
0.428501
0.428507
0.428503
0.428393
0.428363
0.428209
0.428267
0.428465
0.428465
0.428477
0.428371
0.42847
0.428817
0.428806
0.428663
0.428606
0.42864
0.428549
0.428608
0.428754
0.428681
0.428688
0.428664
0.428633
0.428603
0.42859
0.428465
0.428413
0.428582
0.428707
0.428697
0.428689
0.428486
0.428485
0.428629
0.428586
0.428663
0.428702
0.42866
0.428587
0.428473
0.428464
0.428426
0.42842
0.428479
0.428398
0.381249
0.394766
0.4082
0.418676
0.424999
0.428463
0.429684
0.429765
0.429648
0.429726
0.429776
0.429755
0.429752
0.429545
0.429607
0.429706
0.429489
0.429532
0.429688
0.429563
0.429528
0.429653
0.429731
0.429632
0.429715
0.429784
0.429783
0.429782
0.429715
0.429711
0.429672
0.429652
0.429592
0.429549
0.42949
0.429434
0.429369
0.429241
0.429076
0.428948
0.428876
0.428753
0.428627
0.428573
0.428508
0.428451
0.428276
0.428291
0.428562
0.4286
0.428577
0.42857
0.428462
0.428391
0.428474
0.428686
0.428754
0.428585
0.428673
0.428821
0.428668
0.428757
0.428837
0.428822
0.428817
0.428613
0.42861
0.428627
0.428518
0.428494
0.42871
0.428834
0.428835
0.428836
0.428803
0.428795
0.428695
0.428672
0.42866
0.428661
0.428621
0.428481
0.428555
0.428743
0.428739
0.428723
0.428502
0.428538
0.428623
0.428411
0.381251
0.394773
0.408227
0.418596
0.425075
0.428406
0.429485
0.429694
0.429659
0.429507
0.429561
0.429653
0.42963
0.429603
0.429528
0.429524
0.429449
0.429407
0.429486
0.429596
0.429597
0.429562
0.429461
0.429545
0.429646
0.429559
0.429585
0.429529
0.429517
0.4295
0.429501
0.429452
0.429345
0.429235
0.429156
0.428934
0.428953
0.429089
0.429057
0.429019
0.428981
0.428975
0.428934
0.428917
0.428828
0.428722
0.428645
0.428504
0.428233
0.428294
0.428526
0.428523
0.428474
0.428341
0.428277
0.428435
0.428819
0.428801
0.428653
0.428719
0.428855
0.428691
0.428778
0.428868
0.428849
0.42884
0.428677
0.428712
0.428744
0.428591
0.428655
0.428743
0.428549
0.428625
0.42873
0.428715
0.428712
0.428552
0.428624
0.428731
0.428731
0.428731
0.428683
0.428609
0.428436
0.428469
0.428539
0.42852
0.428513
0.428334
0.381223
0.394849
0.408123
0.418649
0.425173
0.428355
0.429212
0.429278
0.42924
0.429108
0.42918
0.429255
0.429214
0.42908
0.429061
0.4292
0.429112
0.429225
0.429369
0.429318
0.429325
0.429286
0.429461
0.42959
0.429703
0.429744
0.429742
0.429741
0.429684
0.429674
0.429637
0.429636
0.42958
0.429542
0.429465
0.429396
0.429297
0.429207
0.429138
0.429044
0.428912
0.428835
0.428706
0.428569
0.4285
0.428306
0.428323
0.428354
0.428333
0.42833
0.428193
0.428439
0.428984
0.428984
0.428953
0.429014
0.429166
0.429159
0.429156
0.429056
0.428959
0.428968
0.428978
0.428903
0.428962
0.428991
0.428956
0.428852
0.428858
0.428943
0.428919
0.428937
0.428944
0.42893
0.428704
0.428732
0.428789
0.428684
0.428689
0.428613
0.428581
0.428594
0.428593
0.428465
0.428468
0.428507
0.428448
0.42845
0.428446
0.428311
0.38126
0.39475
0.408159
0.418731
0.425266
0.428107
0.428662
0.428569
0.428597
0.428874
0.428935
0.42892
0.428918
0.428739
0.42881
0.429065
0.429027
0.429027
0.428973
0.429055
0.429594
0.429801
0.429687
0.429772
0.429809
0.429781
0.429793
0.429745
0.429683
0.429646
0.4296
0.429557
0.429509
0.429444
0.429345
0.429078
0.428925
0.428929
0.42893
0.428894
0.428803
0.428771
0.428767
0.42873
0.42855
0.428394
0.428462
0.428535
0.428461
0.428487
0.428528
0.428508
0.42847
0.428391
0.428351
0.428214
0.428269
0.42836
0.428275
0.428273
0.428257
0.428294
0.428313
0.428279
0.428152
0.428203
0.428385
0.428378
0.428298
0.428305
0.428533
0.428508
0.428619
0.428729
0.428732
0.428732
0.428525
0.428546
0.428702
0.428633
0.428693
0.428711
0.428667
0.42852
0.428539
0.42857
0.428377
0.428438
0.428575
0.428369
0.381253
0.394748
0.408253
0.418559
0.425164
0.428446
0.429385
0.429428
0.42941
0.429405
0.429262
0.429312
0.429494
0.429482
0.429502
0.429458
0.429443
0.429431
0.429436
0.429354
0.429455
0.42973
0.429661
0.429699
0.4298
0.429785
0.429796
0.429794
0.42974
0.429719
0.429626
0.429396
0.429315
0.429245
0.429217
0.429169
0.42908
0.429057
0.429017
0.428993
0.428921
0.428863
0.428799
0.428758
0.428697
0.42858
0.428319
0.42826
0.428367
0.428445
0.428413
0.428223
0.428266
0.428793
0.429004
0.428981
0.428888
0.42898
0.429166
0.429066
0.429076
0.429069
0.428956
0.429029
0.429122
0.428994
0.428986
0.42893
0.428741
0.428723
0.428842
0.428749
0.428819
0.428998
0.428917
0.429007
0.429067
0.428951
0.42903
0.429065
0.429048
0.429036
0.428845
0.428665
0.428681
0.428712
0.428658
0.428659
0.428626
0.428395
0.38125
0.394762
0.408214
0.418643
0.425048
0.428489
0.429472
0.429413
0.429518
0.429684
0.429538
0.429572
0.429593
0.429555
0.429439
0.429507
0.42969
0.429558
0.429511
0.429654
0.429784
0.429759
0.429723
0.429857
0.429992
0.429866
0.429913
0.42992
0.42989
0.429902
0.429862
0.429796
0.429695
0.429609
0.429508
0.429286
0.429184
0.429078
0.428843
0.428665
0.428745
0.428793
0.428759
0.428723
0.428657
0.428595
0.428403
0.428459
0.428588
0.428591
0.428592
0.42837
0.428356
0.428768
0.428965
0.429082
0.429215
0.429135
0.429204
0.429224
0.429175
0.429019
0.429078
0.429189
0.42902
0.428968
0.428964
0.428833
0.428865
0.429007
0.428928
0.429027
0.429089
0.428949
0.429042
0.429106
0.42909
0.429086
0.428876
0.428927
0.428965
0.428841
0.428899
0.428926
0.42888
0.428807
0.428621
0.428649
0.42868
0.428488
0.381271
0.39472
0.408156
0.418822
0.425135
0.42816
0.428854
0.428873
0.428875
0.428752
0.428836
0.428891
0.428797
0.42874
0.428939
0.429249
0.429163
0.429338
0.429747
0.429704
0.429706
0.429702
0.429704
0.429701
0.429705
0.429704
0.429604
0.429662
0.429701
0.429598
0.429604
0.42959
0.429597
0.429556
0.429487
0.429434
0.429349
0.429204
0.428867
0.428702
0.428648
0.428521
0.428604
0.428652
0.428559
0.428579
0.428539
0.428445
0.428401
0.428396
0.428373
0.42831
0.428329
0.428424
0.428391
0.428247
0.428302
0.428483
0.428382
0.428431
0.428444
0.428407
0.428376
0.428555
0.428812
0.428792
0.428757
0.428702
0.428691
0.428541
0.428624
0.428734
0.428704
0.428653
0.428622
0.428645
0.42855
0.428502
0.428569
0.428604
0.428642
0.428636
0.428594
0.428471
0.428545
0.428711
0.428696
0.4287
0.428652
0.428456
0.381232
0.394807
0.408163
0.418625
0.425241
0.428302
0.429258
0.429291
0.429268
0.429217
0.429264
0.429374
0.429365
0.429332
0.429321
0.429306
0.429323
0.429248
0.429329
0.429451
0.429429
0.429355
0.429356
0.429542
0.429495
0.429468
0.429624
0.429739
0.429731
0.429726
0.429645
0.429461
0.429294
0.429258
0.429209
0.429162
0.429124
0.429079
0.429061
0.428995
0.428842
0.428766
0.428704
0.42861
0.428405
0.428239
0.428221
0.428269
0.428243
0.42807
0.428059
0.428365
0.428456
0.428408
0.428299
0.4282
0.428204
0.428103
0.428113
0.42827
0.42825
0.428356
0.428465
0.428355
0.428426
0.428506
0.4285
0.428494
0.428293
0.428255
0.428437
0.428482
0.428378
0.428461
0.42856
0.428337
0.428365
0.428545
0.428585
0.428547
0.42838
0.428482
0.42869
0.428643
0.428652
0.428697
0.428698
0.428673
0.428643
0.428347
0.381251
0.394754
0.408239
0.418585
0.425138
0.428455
0.429344
0.429368
0.429297
0.429397
0.429584
0.429399
0.42947
0.429644
0.429655
0.429649
0.429673
0.429713
0.429608
0.429653
0.429667
0.429556
0.429652
0.429856
0.42981
0.429839
0.429893
0.429861
0.42981
0.429808
0.429736
0.429696
0.429609
0.42953
0.429419
0.429168
0.429046
0.428985
0.428889
0.428835
0.428792
0.428754
0.428737
0.42871
0.428673
0.428613
0.428491
0.428205
0.428215
0.428346
0.42836
0.428363
0.428225
0.428295
0.428397
0.428395
0.428395
0.428203
0.428261
0.428385
0.428364
0.4283
0.428337
0.428551
0.428459
0.428545
0.42859
0.428555
0.428503
0.428418
0.428377
0.428304
0.428254
0.428466
0.428671
0.428642
0.428641
0.428562
0.428629
0.428655
0.428618
0.428586
0.428377
0.428462
0.428618
0.428586
0.428522
0.428446
0.428473
0.428363
0.381249
0.394766
0.4082
0.418678
0.425
0.42847
0.429677
0.429816
0.42977
0.429583
0.429618
0.429722
0.429534
0.429617
0.429736
0.429528
0.429577
0.429745
0.429627
0.429578
0.4297
0.429767
0.429654
0.429754
0.429938
0.429833
0.429825
0.429849
0.429847
0.429812
0.429792
0.429792
0.429784
0.429758
0.429653
0.429389
0.429225
0.429124
0.429069
0.42902
0.428975
0.42893
0.428871
0.428828
0.428748
0.428547
0.428499
0.428446
0.42847
0.428479
0.428372
0.428273
0.428454
0.429035
0.428963
0.429073
0.429234
0.429218
0.429217
0.42913
0.42915
0.429095
0.429132
0.429146
0.429086
0.429086
0.429055
0.428836
0.428806
0.428935
0.42888
0.428898
0.428891
0.42891
0.42887
0.428706
0.428738
0.428836
0.428805
0.428812
0.42883
0.42882
0.428633
0.428588
0.428763
0.428819
0.428772
0.428767
0.428712
0.428451
0.381249
0.394762
0.408214
0.418642
0.425047
0.42849
0.429474
0.429416
0.429521
0.429687
0.429516
0.42958
0.429663
0.429626
0.429505
0.429513
0.429652
0.429553
0.42951
0.429547
0.429529
0.429678
0.429873
0.429713
0.429809
0.429898
0.429901
0.4299
0.429853
0.429848
0.429802
0.429756
0.429575
0.429467
0.429394
0.429262
0.429192
0.429092
0.428869
0.42867
0.428756
0.428817
0.428783
0.428749
0.428661
0.428604
0.428432
0.428486
0.42858
0.428584
0.428585
0.428372
0.428393
0.428847
0.428978
0.428854
0.428947
0.429152
0.429144
0.429091
0.428892
0.428848
0.428905
0.428775
0.428831
0.428973
0.428923
0.428923
0.428895
0.428881
0.428743
0.428828
0.428962
0.428858
0.428924
0.428949
0.428905
0.428906
0.428854
0.42871
0.428563
0.428543
0.428446
0.428516
0.428677
0.428582
0.428666
0.428708
0.42865
0.428443
0.381253
0.394747
0.408255
0.418556
0.425172
0.428436
0.429335
0.429575
0.429546
0.42938
0.429438
0.429475
0.429289
0.429302
0.429541
0.42962
0.429579
0.42958
0.429572
0.429446
0.429539
0.429714
0.429711
0.429713
0.429639
0.429617
0.429556
0.429454
0.429545
0.429681
0.429671
0.429669
0.429621
0.429628
0.429594
0.429548
0.429499
0.429421
0.429272
0.428999
0.428845
0.428787
0.428712
0.428662
0.428624
0.428542
0.428262
0.428239
0.428469
0.428513
0.428463
0.428285
0.428318
0.428839
0.428976
0.428959
0.428903
0.428951
0.429171
0.429179
0.429129
0.428924
0.428929
0.429067
0.42908
0.429048
0.42904
0.429
0.428927
0.42875
0.428782
0.428983
0.428986
0.428942
0.428857
0.428792
0.428758
0.428657
0.428747
0.428953
0.428942
0.428905
0.428804
0.428783
0.428769
0.428697
0.428582
0.428612
0.428627
0.428471
0.381264
0.394739
0.408174
0.418727
0.425225
0.428145
0.428791
0.428793
0.428702
0.428711
0.428989
0.429088
0.429071
0.429082
0.429037
0.42888
0.428974
0.42919
0.429056
0.429038
0.429253
0.429647
0.429633
0.429561
0.429498
0.429577
0.429616
0.42947
0.429548
0.429617
0.429604
0.4296
0.42954
0.429536
0.429494
0.42943
0.429214
0.429141
0.429044
0.428739
0.428726
0.428792
0.428693
0.428667
0.428709
0.428726
0.428587
0.428631
0.428663
0.428506
0.42857
0.428676
0.428687
0.428649
0.428551
0.428547
0.428512
0.428469
0.428219
0.428247
0.428549
0.428578
0.428527
0.428346
0.42834
0.428624
0.428712
0.428695
0.428696
0.428644
0.428547
0.428547
0.428533
0.428683
0.428856
0.428669
0.428744
0.42884
0.428658
0.428733
0.428804
0.428789
0.428784
0.428581
0.428598
0.428783
0.428797
0.428815
0.428793
0.428524
0.381275
0.394783
0.408106
0.418707
0.425287
0.428048
0.429059
0.429129
0.429112
0.42911
0.429087
0.429077
0.428942
0.428859
0.42905
0.429264
0.4292
0.429212
0.429219
0.429203
0.429106
0.42928
0.429677
0.429664
0.429622
0.429432
0.429414
0.429481
0.429453
0.429471
0.429473
0.429439
0.429247
0.429193
0.429155
0.429123
0.429005
0.428961
0.428914
0.428844
0.428774
0.428737
0.428732
0.428737
0.428737
0.428681
0.42864
0.428659
0.428667
0.428625
0.428576
0.428304
0.428277
0.428365
0.428369
0.428303
0.42832
0.42851
0.428635
0.428747
0.428741
0.428741
0.428636
0.428704
0.428742
0.428701
0.428572
0.428616
0.428721
0.428518
0.428552
0.428754
0.428761
0.428752
0.428631
0.428557
0.428703
0.428797
0.428727
0.428725
0.428704
0.42851
0.428482
0.42864
0.428661
0.428614
0.428435
0.428478
0.428545
0.428343
0.381267
0.394796
0.408103
0.418696
0.425293
0.428067
0.429074
0.429136
0.428896
0.428939
0.429027
0.428995
0.428993
0.428856
0.428995
0.429321
0.429332
0.429286
0.429111
0.429201
0.429474
0.429432
0.429443
0.42941
0.429518
0.429566
0.429548
0.429556
0.42952
0.429483
0.429373
0.429121
0.429155
0.429261
0.42916
0.429151
0.42915
0.429141
0.429053
0.429008
0.428949
0.428909
0.42885
0.428736
0.428468
0.428375
0.428376
0.428379
0.428376
0.428227
0.42835
0.428521
0.428444
0.428663
0.428949
0.42895
0.428935
0.42871
0.428684
0.428805
0.428777
0.428829
0.428841
0.428811
0.42881
0.428785
0.428585
0.428598
0.428757
0.428754
0.428763
0.428782
0.428777
0.428612
0.428539
0.42864
0.428744
0.428724
0.428714
0.428678
0.428617
0.428621
0.428573
0.42855
0.42853
0.428405
0.428359
0.428511
0.428552
0.428399
0.381249
0.394764
0.40821
0.418651
0.425036
0.428469
0.429584
0.429693
0.429652
0.429507
0.42957
0.429709
0.429556
0.429648
0.429741
0.429701
0.429607
0.429552
0.4296
0.429508
0.429492
0.42957
0.42952
0.429636
0.429754
0.429592
0.429678
0.429728
0.429698
0.429698
0.429651
0.42956
0.429264
0.429161
0.42911
0.429058
0.429041
0.428943
0.428908
0.428869
0.428834
0.428789
0.428707
0.42867
0.428517
0.428578
0.428757
0.428561
0.42859
0.428804
0.428854
0.428823
0.428795
0.428763
0.4286
0.428472
0.428527
0.428537
0.428591
0.428685
0.428679
0.428657
0.428679
0.428639
0.42851
0.428489
0.428606
0.428681
0.428659
0.428585
0.428722
0.428834
0.428835
0.428836
0.428766
0.428683
0.428669
0.42874
0.428726
0.428726
0.428696
0.428527
0.428466
0.428687
0.428765
0.428716
0.428539
0.428559
0.428648
0.428428
0.381249
0.394782
0.408202
0.418656
0.424969
0.428463
0.429549
0.429556
0.429672
0.429719
0.429551
0.429628
0.429729
0.429717
0.429695
0.429694
0.429763
0.429729
0.429782
0.429803
0.429831
0.429834
0.429801
0.429663
0.429737
0.429805
0.42971
0.429719
0.429683
0.429628
0.429632
0.429633
0.429595
0.429555
0.429358
0.429267
0.429199
0.429157
0.429095
0.428951
0.428926
0.428892
0.42884
0.428645
0.428625
0.428664
0.428649
0.428586
0.42855
0.428646
0.428598
0.428672
0.42874
0.428699
0.428562
0.42861
0.428792
0.428791
0.428798
0.428728
0.428683
0.428526
0.428552
0.428766
0.428676
0.428741
0.428922
0.42884
0.428915
0.428944
0.428913
0.4289
0.428781
0.428838
0.428936
0.428924
0.428921
0.428838
0.428724
0.428708
0.428757
0.428754
0.428766
0.428713
0.428515
0.428457
0.428545
0.428572
0.428525
0.428346
0.381227
0.394834
0.408157
0.418597
0.425203
0.42838
0.429111
0.429095
0.429116
0.429115
0.429061
0.428961
0.428981
0.428987
0.428926
0.429029
0.429186
0.42916
0.42906
0.429077
0.429301
0.429279
0.429376
0.429472
0.429409
0.429411
0.429414
0.42939
0.429186
0.429227
0.429329
0.429307
0.429291
0.429085
0.429117
0.429143
0.42903
0.429027
0.42902
0.429019
0.428984
0.428927
0.42881
0.42848
0.428408
0.428428
0.428448
0.428449
0.42829
0.428418
0.428552
0.428559
0.42856
0.428477
0.428465
0.428377
0.428346
0.428628
0.428892
0.428776
0.428839
0.428864
0.428841
0.428858
0.428811
0.428648
0.428713
0.428826
0.42871
0.428714
0.428703
0.42857
0.428623
0.428743
0.428526
0.428552
0.428693
0.428699
0.428701
0.428574
0.428683
0.428765
0.428689
0.428717
0.428678
0.4286
0.428547
0.428604
0.428628
0.428475
0.38125
0.394761
0.408218
0.418627
0.425084
0.428412
0.429578
0.42973
0.429658
0.429657
0.429581
0.429663
0.429718
0.42949
0.429532
0.429644
0.42946
0.429544
0.429717
0.429513
0.429564
0.429715
0.429595
0.42969
0.429757
0.429747
0.429742
0.429612
0.429547
0.429501
0.429367
0.429422
0.429446
0.429391
0.429381
0.429343
0.429319
0.429196
0.429084
0.429005
0.428904
0.428832
0.428701
0.428515
0.428449
0.428416
0.42832
0.428282
0.428243
0.428314
0.428646
0.428729
0.428718
0.428708
0.428546
0.428509
0.42861
0.428624
0.428511
0.428518
0.428604
0.428485
0.42845
0.428538
0.428556
0.428473
0.428521
0.428567
0.428438
0.428478
0.428753
0.428796
0.428792
0.428792
0.428742
0.428652
0.428667
0.428701
0.428658
0.428522
0.428526
0.42867
0.428688
0.42869
0.428657
0.428649
0.42848
0.428525
0.428583
0.428393
0.381251
0.394735
0.408175
0.418775
0.425233
0.428088
0.42865
0.428625
0.428598
0.428759
0.428993
0.428973
0.428938
0.428741
0.428773
0.429147
0.429205
0.429114
0.429149
0.429395
0.429427
0.429341
0.429455
0.429709
0.429587
0.429693
0.429769
0.429764
0.429758
0.429613
0.429594
0.429526
0.429494
0.429403
0.429096
0.429091
0.429122
0.429056
0.429053
0.42904
0.429029
0.428988
0.428947
0.428908
0.42885
0.428631
0.428667
0.428798
0.428811
0.428771
0.428719
0.428707
0.428601
0.428391
0.42844
0.428561
0.428554
0.428552
0.428385
0.428445