/*--------------------------------*- C++ -*----------------------------------*\
  =========                 |
  \\      /  F ield         | OpenFOAM: The Open Source CFD Toolbox
   \\    /   O peration     | Website:  https://openfoam.org
    \\  /    A nd           | Version:  11
     \\/     M anipulation  |
\*---------------------------------------------------------------------------*/
FoamFile
{
    format      ascii;
    class       volScalarField;
    location    "0.068";
    object      nut;
}
// * * * * * * * * * * * * * * * * * * * * * * * * * * * * * * * * * * * * * //

dimensions      [0 2 -1 0 0 0 0];

internalField   nonuniform List<scalar> 
287084
(
0.000835777
0.000866341
0.000897582
0.000922719
0.000938519
0.000945836
0.000947705
0.000948105
0.000948158
0.000948203
0.000948474
0.000948361
0.00094859
0.000948755
0.000948705
0.00094864
0.000948415
0.000948307
0.000947848
0.000947811
0.000948217
0.000948
0.000948183
0.000948475
0.000948402
0.00094832
0.00094791
0.000948001
0.000948354
0.000948339
0.000948495
0.000948675
0.00094882
0.000948922
0.000949086
0.000949128
0.000948834
0.000948984
0.000949163
0.000949245
0.00094908
0.000949253
0.000949451
0.000949501
0.000949617
0.000949635
0.000949629
0.000949407
0.000949492
0.000949409
0.000949555
0.00095007
0.00095022
0.000950178
0.000950122
0.000949784
0.000949661
0.000949669
0.000949388
0.000949605
0.000949842
0.000949758
0.000949525
0.00094948
0.000950077
0.000950175
0.000950047
0.00094971
0.000949613
0.000949868
0.000949906
0.000949785
0.000949448
0.000949503
0.000949815
0.000949979
0.000949922
0.00094978
0.000949701
0.000949521
0.000949505
0.000949446
0.000949734
0.000949967
0.000949961
0.000949928
0.000949519
0.000949373
0.00094927
0.000948925
0.00118142
0.00122324
0.00126522
0.00129879
0.00131974
0.00132925
0.0013313
0.00133106
0.0013312
0.00133205
0.0013323
0.00133219
0.00133219
0.001332
0.00133172
0.00133119
0.00133073
0.00133078
0.00133092
0.00133073
0.0013304
0.00133071
0.00133181
0.00133182
0.00133185
0.00133176
0.00133171
0.00133169
0.00133122
0.00133104
0.00133123
0.00133122
0.00133171
0.00133206
0.00133203
0.00133234
0.00133248
0.00133257
0.00133227
0.00133275
0.00133333
0.00133351
0.00133368
0.0013332
0.00133346
0.00133398
0.00133377
0.00133411
0.00133432
0.00133437
0.00133441
0.00133383
0.00133368
0.00133359
0.00133342
0.00133349
0.00133349
0.00133352
0.00133317
0.00133302
0.00133293
0.00133337
0.0013339
0.00133388
0.00133385
0.00133324
0.00133343
0.00133397
0.00133394
0.00133391
0.00133346
0.0013338
0.00133427
0.0013341
0.00133412
0.00133398
0.00133363
0.00133331
0.00133326
0.00133318
0.00133339
0.00133345
0.00133333
0.00133308
0.0013333
0.00133362
0.0013334
0.00133344
0.00133329
0.00133262
0.00118148
0.0012234
0.00126541
0.00129905
0.00131959
0.00132946
0.00133209
0.00133226
0.00133221
0.00133207
0.00133209
0.00133178
0.00133184
0.00133182
0.00133162
0.0013313
0.00133135
0.00133188
0.00133171
0.00133149
0.00133084
0.0013308
0.00133112
0.00133154
0.00133181
0.00133169
0.00133173
0.00133175
0.00133165
0.00133171
0.0013319
0.00133195
0.00133217
0.00133235
0.00133261
0.00133264
0.00133253
0.00133263
0.00133242
0.00133285
0.00133332
0.00133296
0.00133339
0.00133373
0.00133386
0.001334
0.00133351
0.00133384
0.00133432
0.00133442
0.00133449
0.00133438
0.0013344
0.00133418
0.00133353
0.00133361
0.00133385
0.00133347
0.00133334
0.00133336
0.00133334
0.00133364
0.00133372
0.00133361
0.00133336
0.00133347
0.00133437
0.00133436
0.00133423
0.00133406
0.00133388
0.00133376
0.00133371
0.00133318
0.00133321
0.00133334
0.00133309
0.00133297
0.00133303
0.00133305
0.00133257
0.00133265
0.00133325
0.00133329
0.00133329
0.0013334
0.00133345
0.00133338
0.00133332
0.00133255
0.00118142
0.0012236
0.00126572
0.0012991
0.00131986
0.00132992
0.00133264
0.00133274
0.00133263
0.0013323
0.00133253
0.00133269
0.00133253
0.00133238
0.0013317
0.00133178
0.0013321
0.00133161
0.00133167
0.00133167
0.0013314
0.00133138
0.00133127
0.0013307
0.00133079
0.00133091
0.00133075
0.0013308
0.00133059
0.00133118
0.00133208
0.00133224
0.00133247
0.00133249
0.00133259
0.00133285
0.00133314
0.00133316
0.0013327
0.00133279
0.0013331
0.00133333
0.00133341
0.00133332
0.0013335
0.00133363
0.00133398
0.00133414
0.00133407
0.0013336
0.00133376
0.00133397
0.00133401
0.00133403
0.00133388
0.00133387
0.00133374
0.00133335
0.00133351
0.00133426
0.00133427
0.00133426
0.00133396
0.00133381
0.00133331
0.00133351
0.00133411
0.00133351
0.00133364
0.00133413
0.00133407
0.00133395
0.00133377
0.0013336
0.00133311
0.00133316
0.00133391
0.00133429
0.00133411
0.00133413
0.0013341
0.00133377
0.00133348
0.00133368
0.00133381
0.00133366
0.00133318
0.00133329
0.00133344
0.00133273
0.00118142
0.00122372
0.0012658
0.00129911
0.00132032
0.00132977
0.00133177
0.00133221
0.0013325
0.00133235
0.001332
0.00133203
0.00133225
0.00133202
0.0013317
0.00133134
0.00133121
0.00133084
0.00133091
0.0013309
0.00133071
0.00133036
0.00133036
0.00133103
0.00133105
0.00133089
0.00133098
0.00133085
0.00133094
0.00133132
0.00133158
0.00133169
0.00133181
0.00133195
0.00133214
0.00133211
0.00133203
0.00133286
0.00133364
0.00133391
0.00133415
0.00133406
0.00133424
0.00133427
0.00133442
0.00133446
0.00133443
0.00133442
0.00133434
0.00133406
0.00133356
0.00133365
0.00133376
0.00133355
0.00133357
0.00133355
0.00133356
0.00133323
0.00133348
0.00133372
0.00133347
0.00133346
0.00133334
0.00133335
0.00133315
0.00133304
0.00133287
0.00133319
0.00133345
0.00133336
0.00133316
0.00133312
0.00133404
0.00133434
0.00133428
0.0013343
0.00133417
0.00133391
0.0013338
0.0013337
0.00133362
0.00133353
0.00133332
0.00133283
0.00133269
0.00133323
0.00133347
0.00133341
0.00133335
0.00133276
0.00118142
0.00122366
0.00126584
0.00129955
0.00132031
0.00132899
0.00133092
0.00133125
0.00133223
0.00133241
0.00133215
0.00133203
0.00133186
0.00133153
0.00133081
0.00133082
0.00133102
0.00133111
0.00133111
0.00133086
0.00133079
0.00133066
0.0013302
0.00133032
0.00133067
0.00133006
0.00133003
0.00133092
0.00133139
0.00133148
0.00133165
0.00133175
0.00133182
0.00133192
0.00133166
0.00133211
0.00133263
0.00133246
0.00133293
0.0013334
0.0013335
0.00133375
0.00133396
0.00133402
0.00133401
0.00133376
0.00133346
0.00133374
0.00133407
0.00133412
0.00133417
0.00133392
0.00133373
0.00133403
0.00133432
0.00133427
0.00133425
0.00133389
0.00133376
0.00133403
0.00133424
0.00133414
0.00133409
0.00133389
0.00133326
0.00133325
0.0013341
0.00133434
0.00133423
0.00133412
0.00133403
0.00133385
0.00133327
0.00133318
0.00133365
0.00133354
0.00133374
0.00133398
0.00133392
0.00133393
0.00133373
0.00133323
0.00133295
0.00133338
0.00133377
0.00133366
0.00133343
0.00133338
0.00133324
0.00133275
0.00118135
0.00122372
0.00126592
0.00129957
0.00132044
0.00132901
0.00133202
0.00133216
0.00133209
0.00133198
0.00133141
0.00133101
0.00133163
0.0013326
0.00133204
0.00133205
0.00133288
0.00133282
0.00133254
0.00133218
0.00133197
0.00133175
0.00133156
0.00133122
0.00133148
0.00133174
0.00133165
0.00133121
0.00133132
0.00133166
0.00133161
0.00133178
0.00133196
0.00133195
0.00133241
0.00133281
0.00133294
0.00133277
0.00133287
0.00133364
0.00133405
0.00133413
0.00133375
0.00133403
0.00133444
0.0013345
0.00133455
0.00133425
0.00133435
0.00133462
0.00133455
0.00133402
0.00133417
0.00133429
0.00133423
0.00133427
0.00133406
0.00133411
0.00133395
0.00133414
0.00133418
0.00133399
0.00133356
0.0013334
0.00133363
0.00133343
0.00133361
0.00133373
0.00133356
0.00133311
0.00133322
0.00133353
0.00133341
0.00133317
0.00133322
0.00133377
0.00133358
0.00133355
0.00133353
0.00133346
0.00133314
0.0013333
0.00133358
0.00133354
0.00133352
0.00133298
0.00133308
0.00133361
0.00133356
0.00133312
0.0011814
0.00122371
0.00126615
0.00129913
0.00131989
0.00133055
0.00133399
0.00133468
0.00133445
0.00133435
0.00133403
0.00133403
0.00133397
0.00133372
0.00133354
0.00133326
0.00133309
0.00133289
0.00133263
0.00133198
0.00133205
0.00133221
0.00133199
0.00133197
0.00133185
0.0013318
0.00133166
0.00133164
0.00133174
0.00133203
0.00133223
0.00133251
0.00133265
0.00133255
0.00133263
0.00133282
0.001333
0.00133285
0.00133336
0.00133431
0.00133451
0.00133464
0.00133422
0.00133441
0.00133483
0.00133482
0.00133494
0.00133504
0.00133504
0.00133485
0.00133476
0.00133445
0.00133479
0.00133527
0.00133509
0.00133505
0.00133465
0.00133487
0.001335
0.00133493
0.00133489
0.00133467
0.00133415
0.00133392
0.00133378
0.00133365
0.00133335
0.00133347
0.00133392
0.00133354
0.00133371
0.001334
0.00133394
0.00133389
0.00133326
0.00133329
0.00133418
0.00133424
0.00133404
0.00133401
0.00133389
0.00133329
0.00133305
0.00133366
0.00133392
0.00133376
0.00133322
0.00133327
0.00133353
0.0013328
0.00118139
0.0012237
0.00126599
0.0012996
0.00132017
0.00132979
0.00133223
0.00133225
0.00133206
0.0013318
0.00133136
0.00133161
0.00133288
0.00133275
0.00133239
0.00133228
0.00133208
0.00133176
0.00133202
0.00133242
0.00133203
0.00133193
0.00133183
0.00133137
0.00133155
0.00133182
0.00133182
0.00133197
0.00133204
0.00133218
0.00133223
0.00133248
0.00133255
0.00133227
0.0013323
0.00133254
0.00133282
0.00133321
0.0013335
0.00133334
0.00133376
0.00133451
0.0013341
0.00133431
0.00133497
0.00133515
0.00133513
0.00133533
0.00133545
0.00133544
0.00133543
0.00133492
0.00133478
0.00133469
0.00133446
0.00133374
0.00133368
0.00133431
0.00133436
0.0013342
0.00133357
0.0013336
0.0013343
0.0013343
0.00133416
0.00133408
0.00133385
0.00133328
0.0013331
0.00133392
0.00133429
0.00133422
0.00133418
0.00133386
0.00133374
0.00133318
0.00133311
0.00133412
0.00133445
0.0013343
0.00133432
0.00133432
0.00133421
0.00133341
0.00133333
0.00133362
0.00133333
0.00133331
0.00133328
0.00133275
0.00118147
0.00122342
0.0012663
0.00129958
0.00132014
0.00132964
0.00133167
0.00133166
0.00133144
0.00133147
0.0013323
0.00133223
0.0013319
0.00133117
0.00133106
0.00133148
0.0013311
0.00133109
0.0013311
0.00133079
0.00133015
0.00133019
0.00133045
0.00133018
0.00133025
0.00133015
0.00133005
0.00133005
0.00133071
0.0013313
0.00133133
0.00133162
0.00133194
0.00133176
0.00133223
0.00133286
0.00133304
0.00133347
0.00133381
0.00133416
0.00133445
0.00133459
0.00133471
0.00133479
0.00133431
0.00133375
0.00133383
0.00133417
0.00133416
0.00133399
0.00133367
0.00133391
0.00133409
0.00133392
0.00133338
0.00133343
0.00133368
0.00133333
0.00133309
0.00133359
0.00133415
0.0013341
0.00133404
0.00133368
0.00133353
0.00133306
0.00133281
0.00133316
0.00133331
0.00133346
0.00133347
0.0013333
0.00133286
0.00133294
0.00133331
0.00133299
0.00133277
0.00133323
0.00133368
0.00133367
0.00133365
0.00133301
0.0013331
0.00133395
0.00133402
0.00133391
0.00133379
0.00133369
0.00133348
0.00133278
0.00118144
0.00122364
0.00126604
0.00129947
0.0013204
0.00132995
0.00133195
0.00133193
0.0013317
0.00133178
0.00133198
0.0013317
0.00133135
0.00133135
0.00133152
0.00133078
0.00133075
0.00133133
0.00133085
0.00133104
0.00133127
0.00133114
0.00133102
0.00133029
0.00133048
0.00133076
0.00133014
0.00133046
0.00133089
0.00133096
0.00133124
0.00133128
0.00133196
0.00133269
0.00133305
0.0013335
0.00133381
0.00133409
0.00133433
0.00133454
0.00133473
0.00133483
0.00133438
0.00133428
0.00133421
0.00133363
0.00133372
0.0013345
0.00133479
0.00133472
0.00133435
0.0013346
0.00133472
0.00133455
0.00133407
0.0013341
0.00133417
0.0013339
0.0013336
0.00133375
0.00133417
0.00133407
0.00133399
0.00133344
0.00133366
0.00133388
0.00133373
0.00133354
0.0013331
0.0013333
0.00133365
0.00133352
0.00133321
0.00133342
0.0013336
0.00133347
0.00133343
0.00133293
0.00133306
0.0013337
0.00133352
0.00133333
0.00133361
0.00133399
0.00133385
0.00133335
0.00133342
0.0013336
0.00133345
0.00133295
0.00118136
0.00122377
0.00126596
0.00129955
0.00132032
0.00132984
0.00133276
0.00133291
0.00133274
0.00133258
0.00133192
0.00133178
0.00133241
0.00133302
0.0013328
0.0013321
0.00133185
0.00133161
0.00133103
0.0013309
0.0013312
0.00133101
0.00133096
0.00133082
0.00133049
0.00133082
0.0013313
0.0013314
0.00133169
0.00133179
0.00133202
0.00133234
0.00133278
0.00133313
0.00133354
0.00133382
0.00133414
0.00133428
0.00133418
0.00133414
0.00133414
0.00133416
0.00133419
0.00133373
0.00133401
0.00133439
0.00133443
0.0013345
0.00133419
0.00133428
0.00133416
0.00133449
0.00133511
0.00133498
0.00133494
0.00133483
0.00133441
0.00133417
0.00133401
0.0013338
0.00133363
0.00133349
0.00133321
0.0013334
0.00133429
0.00133425
0.00133416
0.00133383
0.00133343
0.00133383
0.00133418
0.00133405
0.00133384
0.00133342
0.00133363
0.00133386
0.0013337
0.00133343
0.00133298
0.00133334
0.00133365
0.00133354
0.00133319
0.0013333
0.00133371
0.00133374
0.00133373
0.00133344
0.00133336
0.00133266
0.00118141
0.0012237
0.00126625
0.00129904
0.00132009
0.00133065
0.00133356
0.0013336
0.00133316
0.00133324
0.0013336
0.00133276
0.00133251
0.00133265
0.00133206
0.00133204
0.00133248
0.00133231
0.00133195
0.00133109
0.00133109
0.00133149
0.00133101
0.00133071
0.00133106
0.00133138
0.0013311
0.00133146
0.00133176
0.00133194
0.00133216
0.00133244
0.00133264
0.00133289
0.0013328
0.00133307
0.00133366
0.00133413
0.00133449
0.00133429
0.0013345
0.00133489
0.00133518
0.00133528
0.00133483
0.00133505
0.00133552
0.00133543
0.00133562
0.00133566
0.00133559
0.00133562
0.00133546
0.00133507
0.00133455
0.00133458
0.00133484
0.00133462
0.00133411
0.00133386
0.00133438
0.00133471
0.00133461
0.00133461
0.00133446
0.00133422
0.00133359
0.0013336
0.0013339
0.00133353
0.00133371
0.00133392
0.00133385
0.00133381
0.00133324
0.00133336
0.0013341
0.0013341
0.00133395
0.00133334
0.00133343
0.00133387
0.00133384
0.00133385
0.00133367
0.00133328
0.00133336
0.00133351
0.00133337
0.0013329
0.00118143
0.0012236
0.00126597
0.0012998
0.00132043
0.0013291
0.00133185
0.00133192
0.0013312
0.0013313
0.00133145
0.00133074
0.00133078
0.00133074
0.00132994
0.00132976
0.00133019
0.00132975
0.00132988
0.00133018
0.00132967
0.00132929
0.0013294
0.0013295
0.00132976
0.00133052
0.00133012
0.00133055
0.00133101
0.00133119
0.00133124
0.00133167
0.00133204
0.00133241
0.00133268
0.00133307
0.00133359
0.0013336
0.00133421
0.0013348
0.00133498
0.00133534
0.00133559
0.00133571
0.0013358
0.0013359
0.00133546
0.00133566
0.00133583
0.00133582
0.0013358
0.00133536
0.00133497
0.00133475
0.00133481
0.00133476
0.00133459
0.00133413
0.00133433
0.00133455
0.00133443
0.00133434
0.00133372
0.00133383
0.001334
0.00133385
0.00133354
0.00133342
0.00133374
0.00133359
0.00133386
0.00133398
0.00133389
0.00133383
0.00133329
0.00133318
0.00133297
0.00133317
0.00133392
0.00133346
0.00133362
0.00133423
0.00133428
0.00133429
0.00133412
0.00133361
0.00133371
0.00133413
0.00133401
0.00133344
0.00118141
0.00122372
0.00126617
0.0012992
0.00131986
0.00133068
0.00133405
0.00133415
0.00133365
0.0013337
0.00133396
0.00133311
0.00133307
0.00133318
0.00133247
0.00133214
0.00133184
0.00133122
0.00133104
0.00133119
0.00133064
0.00133065
0.0013311
0.00133097
0.00133076
0.00133087
0.00133098
0.00133111
0.00133144
0.00133169
0.00133198
0.00133235
0.00133277
0.00133322
0.00133369
0.00133427
0.00133465
0.00133489
0.00133478
0.00133485
0.00133492
0.00133459
0.00133432
0.00133486
0.00133537
0.00133538
0.00133545
0.00133534
0.00133478
0.00133463
0.00133481
0.00133456
0.00133436
0.00133483
0.00133513
0.00133486
0.00133477
0.00133473
0.00133463
0.00133415
0.00133392
0.00133447
0.00133487
0.00133468
0.00133419
0.0013343
0.00133466
0.00133459
0.0013345
0.00133369
0.00133371
0.001334
0.00133386
0.00133371
0.0013331
0.00133332
0.00133407
0.00133406
0.00133399
0.00133334
0.00133344
0.00133388
0.00133356
0.00133365
0.00133366
0.00133353
0.00133307
0.00133319
0.00133336
0.00133272
0.00118146
0.00122384
0.0012658
0.00129942
0.00132051
0.00132947
0.00133272
0.00133287
0.00133237
0.00133188
0.00133184
0.001332
0.00133161
0.00133088
0.00133051
0.00133104
0.00133104
0.00133061
0.00132987
0.00132974
0.00132977
0.00132902
0.00132895
0.00132937
0.00132932
0.00132921
0.0013296
0.00133011
0.00132974
0.00133013
0.00133086
0.00133112
0.00133149
0.00133233
0.00133304
0.00133356
0.00133413
0.00133457
0.00133504
0.00133542
0.0013357
0.00133594
0.00133601
0.0013361
0.00133615
0.00133603
0.00133549
0.00133483
0.0013347
0.0013344
0.00133468
0.00133508
0.00133503
0.00133496
0.00133438
0.00133468
0.00133517
0.00133498
0.00133568
0.00133606
0.00133593
0.00133582
0.00133525
0.00133526
0.00133526
0.00133485
0.00133508
0.00133519
0.00133508
0.00133502
0.0013348
0.00133442
0.00133386
0.00133395
0.00133406
0.0013339
0.00133347
0.00133354
0.00133359
0.00133308
0.00133295
0.00133357
0.00133403
0.001334
0.00133397
0.0013334
0.00133347
0.00133355
0.00133339
0.0013329
0.00118141
0.00122378
0.00126613
0.00129923
0.00131965
0.00133047
0.00133456
0.00133482
0.00133456
0.00133435
0.00133379
0.00133381
0.00133377
0.00133334
0.00133302
0.00133274
0.00133235
0.0013314
0.00133081
0.00133071
0.00133058
0.00133039
0.00133012
0.00132965
0.00132984
0.00133039
0.00133039
0.00133061
0.00133088
0.0013313
0.00133149
0.00133193
0.00133253
0.00133308
0.00133359
0.00133405
0.00133454
0.00133496
0.00133533
0.00133565
0.00133579
0.00133563
0.00133489
0.00133489
0.00133505
0.00133517
0.00133522
0.0013349
0.0013348
0.00133429
0.00133442
0.00133498
0.0013349
0.00133485
0.00133442
0.00133464
0.00133563
0.0013355
0.00133496
0.00133469
0.0013347
0.00133433
0.00133444
0.00133481
0.00133451
0.00133446
0.00133432
0.00133416
0.001334
0.00133391
0.00133347
0.00133325
0.00133374
0.00133408
0.00133401
0.00133395
0.00133328
0.00133325
0.00133367
0.00133351
0.00133372
0.00133382
0.00133367
0.00133342
0.00133305
0.00133301
0.00133288
0.00133285
0.00133303
0.00133272
0.0011814
0.00122375
0.0012661
0.00129935
0.00131959
0.00133069
0.00133458
0.00133477
0.00133426
0.0013343
0.00133422
0.00133389
0.00133359
0.00133264
0.00133251
0.00133248
0.00133146
0.00133124
0.00133139
0.00133068
0.00133028
0.00133041
0.00133045
0.00133
0.00133021
0.00133046
0.0013306
0.00133084
0.00133098
0.00133142
0.00133185
0.0013324
0.00133289
0.00133345
0.00133398
0.00133449
0.00133495
0.00133516
0.00133518
0.00133526
0.00133545
0.0013354
0.00133527
0.00133531
0.00133526
0.00133517
0.00133468
0.00133474
0.00133557
0.00133565
0.00133552
0.00133542
0.001335
0.00133468
0.00133484
0.0013354
0.00133551
0.00133488
0.00133505
0.00133541
0.00133484
0.00133503
0.00133519
0.00133506
0.00133496
0.00133425
0.00133417
0.00133416
0.00133375
0.00133362
0.00133424
0.00133458
0.00133453
0.00133449
0.00133435
0.00133428
0.00133394
0.00133384
0.00133377
0.00133375
0.0013336
0.00133314
0.00133334
0.00133391
0.00133389
0.00133382
0.00133311
0.00133321
0.00133347
0.00133276
0.00118141
0.00122377
0.00126618
0.0012991
0.00131981
0.0013305
0.00133395
0.00133453
0.00133427
0.00133358
0.00133351
0.00133352
0.00133314
0.00133274
0.00133217
0.00133181
0.00133121
0.00133072
0.00133061
0.00133061
0.00133031
0.00132992
0.0013294
0.00132952
0.00132978
0.00132955
0.00132978
0.00132987
0.00133021
0.00133064
0.00133122
0.00133173
0.0013321
0.0013325
0.00133299
0.00133302
0.00133377
0.00133482
0.00133528
0.00133565
0.00133595
0.00133627
0.00133641
0.00133656
0.00133642
0.00133618
0.00133599
0.00133555
0.00133468
0.00133483
0.00133548
0.00133539
0.00133514
0.00133461
0.00133431
0.00133469
0.00133578
0.00133561
0.00133504
0.00133514
0.00133547
0.00133486
0.00133504
0.00133523
0.00133509
0.00133498
0.0013344
0.00133444
0.00133448
0.00133394
0.00133408
0.00133431
0.00133365
0.00133384
0.00133413
0.00133405
0.001334
0.00133347
0.00133366
0.00133397
0.00133394
0.00133392
0.00133375
0.0013335
0.00133294
0.00133303
0.00133324
0.00133317
0.00133314
0.00133253
0.00118132
0.001224
0.00126586
0.00129926
0.00132012
0.00133033
0.00133308
0.00133321
0.00133293
0.00133231
0.00133228
0.00133223
0.00133179
0.00133105
0.00133063
0.0013307
0.00133005
0.00133002
0.0013301
0.00132959
0.00132929
0.00132889
0.00132921
0.00132947
0.00132977
0.00132994
0.0013301
0.00133037
0.00133059
0.00133107
0.00133157
0.00133225
0.00133282
0.00133347
0.001334
0.00133454
0.00133494
0.0013353
0.00133567
0.00133588
0.00133589
0.00133599
0.00133586
0.00133563
0.00133556
0.00133503
0.00133513
0.00133522
0.00133512
0.00133505
0.00133454
0.00133522
0.00133682
0.00133671
0.00133649
0.00133656
0.00133692
0.00133678
0.00133666
0.00133624
0.00133583
0.00133576
0.00133569
0.00133537
0.00133547
0.00133548
0.00133529
0.00133489
0.00133485
0.00133505
0.00133492
0.00133492
0.00133489
0.0013348
0.00133406
0.0013341
0.00133424
0.00133388
0.00133387
0.00133361
0.00133348
0.0013335
0.00133347
0.00133305
0.00133305
0.00133315
0.00133295
0.00133295
0.00133293
0.00133246
0.00118144
0.00122369
0.00126596
0.00129951
0.00132039
0.00132955
0.00133135
0.00133099
0.00133091
0.00133155
0.00133148
0.00133115
0.00133082
0.00132992
0.00132978
0.00133019
0.00132969
0.0013293
0.00132874
0.00132864
0.00132997
0.00133033
0.00132975
0.00132986
0.00132992
0.00132989
0.00133009
0.00133024
0.00133047
0.00133089
0.00133139
0.00133197
0.00133259
0.00133319
0.00133368
0.00133362
0.00133387
0.00133455
0.00133514
0.00133554
0.00133568
0.00133593
0.00133619
0.00133627
0.00133584
0.00133544
0.00133568
0.0013359
0.00133563
0.00133564
0.00133568
0.00133552
0.00133529
0.00133492
0.00133468
0.00133413
0.00133417
0.00133434
0.00133395
0.00133383
0.00133367
0.00133369
0.00133364
0.00133345
0.00133296
0.00133304
0.00133353
0.00133343
0.00133311
0.00133307
0.00133373
0.00133359
0.00133389
0.00133418
0.00133415
0.00133411
0.00133343
0.00133346
0.00133391
0.00133367
0.00133383
0.00133387
0.0013337
0.00133323
0.00133327
0.00133335
0.00133274
0.00133291
0.00133333
0.00133264
0.00118142
0.00122369
0.00126626
0.00129897
0.00132007
0.0013306
0.00133359
0.00133365
0.00133342
0.00133318
0.00133247
0.00133233
0.00133257
0.00133218
0.00133187
0.00133134
0.0013309
0.00133046
0.00133008
0.00132946
0.00132942
0.00132998
0.00132953
0.00132949
0.00132975
0.00132976
0.00132998
0.00133028
0.00133056
0.00133105
0.00133142
0.00133144
0.00133199
0.00133259
0.00133332
0.00133396
0.00133443
0.00133504
0.00133551
0.00133595
0.00133616
0.00133633
0.0013364
0.00133647
0.00133641
0.00133612
0.00133533
0.00133513
0.00133542
0.00133559
0.0013354
0.0013347
0.00133471
0.00133624
0.00133677
0.00133657
0.00133615
0.00133631
0.00133677
0.00133634
0.00133625
0.00133613
0.00133567
0.0013358
0.001336
0.00133552
0.00133541
0.00133517
0.00133451
0.00133439
0.0013347
0.00133435
0.00133452
0.00133503
0.00133473
0.00133497
0.00133512
0.00133472
0.00133494
0.00133502
0.00133494
0.00133488
0.00133426
0.00133368
0.00133371
0.00133379
0.00133361
0.0013336
0.00133349
0.00133272
0.0011814
0.00122373
0.00126614
0.00129923
0.0013197
0.00133073
0.00133385
0.00133359
0.00133374
0.00133403
0.0013333
0.00133311
0.00133284
0.00133237
0.00133162
0.00133144
0.00133161
0.00133078
0.00133024
0.00133029
0.00133035
0.00132996
0.00132962
0.00132988
0.00133024
0.00132991
0.00133025
0.0013306
0.00133095
0.00133156
0.00133211
0.00133267
0.00133317
0.00133374
0.00133426
0.00133437
0.00133481
0.00133517
0.00133505
0.00133502
0.0013357
0.0013362
0.00133637
0.00133645
0.00133637
0.00133625
0.00133567
0.00133583
0.00133618
0.00133611
0.00133602
0.00133521
0.00133504
0.0013362
0.00133669
0.00133692
0.0013372
0.00133682
0.00133691
0.00133685
0.00133659
0.00133599
0.00133607
0.00133632
0.0013357
0.00133545
0.00133536
0.00133487
0.0013349
0.00133528
0.00133497
0.00133522
0.00133536
0.00133488
0.00133512
0.00133528
0.0013352
0.00133515
0.00133446
0.00133459
0.00133468
0.00133427
0.00133443
0.00133449
0.00133433
0.00133409
0.0013335
0.00133357
0.00133366
0.00133301
0.00118147
0.0012236
0.00126595
0.00129979
0.00131998
0.00132969
0.00133192
0.0013319
0.00133173
0.00133112
0.00133111
0.00133097
0.00133034
0.0013298
0.00133004
0.0013306
0.00132992
0.00133005
0.00133091
0.00133039
0.00133004
0.00132972
0.00132949
0.00132932
0.00132927
0.00132934
0.00132922
0.00132973
0.00133031
0.00133057
0.00133128
0.00133201
0.00133286
0.00133358
0.00133422
0.00133487
0.00133537
0.00133561
0.00133517
0.00133519
0.00133546
0.00133541
0.00133594
0.00133629
0.00133612
0.00133625
0.00133615
0.00133583
0.00133564
0.00133555
0.00133537
0.00133506
0.00133499
0.00133516
0.00133492
0.00133433
0.00133437
0.00133481
0.00133437
0.0013344
0.00133432
0.00133409
0.00133389
0.00133435
0.00133506
0.00133491
0.00133472
0.00133447
0.00133437
0.00133383
0.00133403
0.00133431
0.00133417
0.00133396
0.00133382
0.00133385
0.00133352
0.00133333
0.00133351
0.00133359
0.00133368
0.00133363
0.00133348
0.00133308
0.00133329
0.00133379
0.00133373
0.00133373
0.00133357
0.00133291
0.00118135
0.00122387
0.00126597
0.00129917
0.0013203
0.00133013
0.00133318
0.0013332
0.00133295
0.00133255
0.00133243
0.00133246
0.0013321
0.00133163
0.00133121
0.00133076
0.0013304
0.00132975
0.00132959
0.00132957
0.00132915
0.00132861
0.00132837
0.00132879
0.00132859
0.00132858
0.00132925
0.00132993
0.00133037
0.00133095
0.0013314
0.00133161
0.00133192
0.00133266
0.00133336
0.00133404
0.00133469
0.00133525
0.00133581
0.00133613
0.00133609
0.0013362
0.00133628
0.00133618
0.00133567
0.00133522
0.00133518
0.00133531
0.00133517
0.00133455
0.00133441
0.00133525
0.00133541
0.00133513
0.00133465
0.0013342
0.00133408
0.00133363
0.00133353
0.0013339
0.00133372
0.00133394
0.00133417
0.00133373
0.00133386
0.00133402
0.00133392
0.00133382
0.00133313
0.00133294
0.00133345
0.00133353
0.00133315
0.00133336
0.00133363
0.00133289
0.00133294
0.00133347
0.00133356
0.00133341
0.00133286
0.00133315
0.00133378
0.00133362
0.00133362
0.00133375
0.00133374
0.00133365
0.00133355
0.00133257
0.00118141
0.00122371
0.00126621
0.00129905
0.00131998
0.00133061
0.00133345
0.00133344
0.00133304
0.00133311
0.00133342
0.00133254
0.00133242
0.0013326
0.00133225
0.00133182
0.00133148
0.00133119
0.00133045
0.0013302
0.00132989
0.00132923
0.00132929
0.00132976
0.00132956
0.00132973
0.00133008
0.00133031
0.00133062
0.0013312
0.00133168
0.00133234
0.0013329
0.00133351
0.00133402
0.00133405
0.00133444
0.00133495
0.00133527
0.00133563
0.00133593
0.00133617
0.00133638
0.0013365
0.00133651
0.00133639
0.00133602
0.00133511
0.00133508
0.00133541
0.00133535
0.00133524
0.00133469
0.00133477
0.00133495
0.00133481
0.00133467
0.00133394
0.001334
0.00133426
0.00133408
0.00133376
0.00133377
0.00133434
0.00133396
0.00133414
0.0013342
0.00133401
0.00133378
0.00133345
0.00133326
0.00133298
0.00133276
0.00133338
0.00133397
0.00133384
0.0013338
0.00133352
0.00133369
0.00133374
0.0013336
0.00133348
0.00133281
0.00133305
0.00133352
0.0013334
0.00133319
0.00133294
0.00133302
0.00133262
0.0011814
0.00122374
0.00126609
0.00129934
0.00131955
0.00133066
0.00133449
0.00133483
0.00133451
0.0013337
0.00133354
0.00133355
0.00133263
0.00133253
0.00133251
0.00133147
0.00133121
0.00133132
0.00133054
0.00133
0.00133002
0.00132992
0.00132933
0.00132948
0.00133
0.00132974
0.00132991
0.00133031
0.00133077
0.00133124
0.00133187
0.00133264
0.00133344
0.00133421
0.00133473
0.00133472
0.00133498
0.00133536
0.0013358
0.00133618
0.00133647
0.00133668
0.00133677
0.00133683
0.00133671
0.00133615
0.00133602
0.00133583
0.00133586
0.0013358
0.00133537
0.00133494
0.00133538
0.00133707
0.00133671
0.00133691
0.00133728
0.0013371
0.00133697
0.00133658
0.00133652
0.00133624
0.00133625
0.00133619
0.00133591
0.00133582
0.00133565
0.00133489
0.00133472
0.00133506
0.00133483
0.00133483
0.00133475
0.00133476
0.00133459
0.00133404
0.0013341
0.00133437
0.00133424
0.00133424
0.00133426
0.00133421
0.0013336
0.00133344
0.00133397
0.00133413
0.00133397
0.00133394
0.00133376
0.0013329
0.0011814
0.00122373
0.00126613
0.00129923
0.0013197
0.00133073
0.00133386
0.0013336
0.00133375
0.00133404
0.00133324
0.00133313
0.00133306
0.00133259
0.00133183
0.00133146
0.00133149
0.00133077
0.00133023
0.00132996
0.00132955
0.00132971
0.00133008
0.00132943
0.00132967
0.00133001
0.00133021
0.00133053
0.00133084
0.00133139
0.00133193
0.00133254
0.00133279
0.00133329
0.0013339
0.0013343
0.00133484
0.00133521
0.00133513
0.00133503
0.00133573
0.00133628
0.00133644
0.00133653
0.00133638
0.00133628
0.00133576
0.00133591
0.00133616
0.00133609
0.00133599
0.00133521
0.00133516
0.00133645
0.00133673
0.00133621
0.00133636
0.00133687
0.00133673
0.00133644
0.0013357
0.00133545
0.00133553
0.00133503
0.00133511
0.00133546
0.00133523
0.00133515
0.001335
0.00133489
0.00133439
0.0013346
0.00133497
0.0013346
0.00133476
0.00133479
0.00133462
0.00133458
0.00133439
0.00133391
0.00133343
0.00133334
0.00133302
0.00133322
0.0013337
0.00133339
0.00133364
0.00133376
0.00133357
0.00133287
0.00118142
0.00122368
0.00126626
0.00129896
0.0013201
0.00133057
0.00133344
0.0013341
0.00133384
0.0013331
0.00133302
0.00133284
0.00133193
0.00133162
0.00133199
0.00133185
0.00133132
0.00133093
0.0013305
0.00132974
0.00132968
0.00132993
0.00132969
0.00132954
0.00132925
0.00132925
0.00132924
0.00132923
0.00132995
0.00133093
0.00133156
0.00133229
0.00133294
0.00133378
0.0013345
0.00133514
0.00133573
0.00133617
0.0013363
0.00133597
0.00133593
0.00133609
0.00133613
0.00133617
0.00133618
0.001336
0.00133515
0.00133507
0.00133574
0.00133581
0.00133556
0.00133489
0.00133488
0.00133638
0.00133668
0.0013365
0.00133619
0.00133622
0.00133678
0.00133669
0.00133642
0.00133567
0.00133559
0.00133592
0.00133587
0.00133569
0.00133558
0.00133538
0.00133509
0.00133447
0.00133451
0.00133508
0.00133504
0.00133485
0.00133454
0.0013343
0.00133416
0.00133381
0.00133406
0.00133467
0.00133461
0.00133447
0.00133413
0.00133405
0.00133399
0.00133375
0.00133337
0.00133346
0.00133349
0.00133295
0.00118145
0.00122366
0.00126601
0.0012995
0.00132027
0.00132967
0.00133176
0.00133168
0.00133123
0.00133104
0.00133165
0.00133167
0.0013313
0.00133099
0.00133048
0.00132962
0.00132952
0.00132981
0.00132901
0.00132859
0.00132892
0.00132985
0.00132958
0.00132921
0.00132895
0.00132925
0.00132955
0.00132939
0.00133005
0.0013308
0.0013314
0.00133211
0.00133269
0.00133347
0.00133414
0.00133472
0.00133477
0.00133521
0.0013355
0.00133506
0.00133544
0.001336
0.00133596
0.00133607
0.00133634
0.00133647
0.00133607
0.0013362
0.00133626
0.0013357
0.00133581
0.00133604
0.00133597
0.00133573
0.0013353
0.00133516
0.00133493
0.00133467
0.00133378
0.00133375
0.00133458
0.00133457
0.00133431
0.00133365
0.00133355
0.00133435
0.00133455
0.00133442
0.00133436
0.00133413
0.00133377
0.00133372
0.00133362
0.00133404
0.00133454