/*--------------------------------*- C++ -*----------------------------------*\
  =========                 |
  \\      /  F ield         | OpenFOAM: The Open Source CFD Toolbox
   \\    /   O peration     | Website:  https://openfoam.org
    \\  /    A nd           | Version:  11
     \\/     M anipulation  |
\*---------------------------------------------------------------------------*/
FoamFile
{
    format      ascii;
    class       volScalarField;
    location    "0.068";
    object      omega;
}
// * * * * * * * * * * * * * * * * * * * * * * * * * * * * * * * * * * * * * //

dimensions      [0 0 -1 0 0 0 0];

internalField   nonuniform List<scalar> 
287084
(
54.9895
55.9716
56.9169
57.6245
58.036
58.2004
58.2259
58.2242
58.2153
58.2151
58.2268
58.2223
58.2293
58.2344
58.2339
58.2338
58.2284
58.2274
58.2169
58.2194
58.2351
58.2285
58.2351
58.2414
58.2415
58.2414
58.2271
58.2302
58.241
58.2397
58.2402
58.2412
58.241
58.2348
58.2314
58.2274
58.215
58.2151
58.2153
58.2119
58.2018
58.2026
58.2042
58.2013
58.2009
58.1976
58.1921
58.1857
58.1894
58.1843
58.1876
58.2015
58.2056
58.2034
58.1998
58.189
58.1884
58.192
58.1827
58.1898
58.1965
58.194
58.1875
58.1888
58.2081
58.2097
58.2071
58.1948
58.1947
58.2046
58.2051
58.2044
58.1941
58.1966
58.2047
58.2108
58.2091
58.2053
58.2056
58.2002
58.2007
58.199
58.2079
58.2143
58.2141
58.2138
58.2
58.1946
58.1937
58.1857
54.9931
55.9672
56.9017
57.6131
58.0316
58.2046
58.2332
58.2232
58.2253
58.2427
58.247
58.2451
58.2435
58.2409
58.2367
58.227
58.2225
58.2274
58.2323
58.2315
58.2259
58.2361
58.2613
58.2604
58.2583
58.2581
58.2562
58.2534
58.2393
58.2353
58.2393
58.2342
58.2397
58.2417
58.2351
58.2348
58.2341
58.2301
58.2191
58.226
58.2331
58.2315
58.2304
58.2168
58.2197
58.2279
58.2206
58.2248
58.2266
58.2256
58.2245
58.2086
58.2038
58.2037
58.2019
58.2042
58.2017
58.1992
58.1946
58.1946
58.1932
58.2029
58.2139
58.2133
58.2131
58.2016
58.2071
58.219
58.2179
58.217
58.2093
58.2181
58.228
58.2237
58.2235
58.2226
58.2131
58.2079
58.2103
58.2089
58.2124
58.2132
58.2113
58.2064
58.2126
58.2192
58.2133
58.2128
58.2113
58.1974
54.9934
55.9662
56.901
57.6126
58.0233
58.2071
58.2463
58.2466
58.2462
58.2401
58.2386
58.2355
58.2395
58.2405
58.2389
58.2342
58.2392
58.2501
58.2504
58.2503
58.2369
58.2384
58.2453
58.2534
58.2619
58.2605
58.261
58.2566
58.2523
58.2524
58.2533
58.2512
58.252
58.2486
58.246
58.2408
58.2329
58.2303
58.2228
58.2278
58.2326
58.2205
58.2252
58.228
58.2269
58.2266
58.2138
58.2189
58.2267
58.2267
58.2266
58.2227
58.2217
58.2148
58.2015
58.2043
58.2092
58.1994
58.1979
58.202
58.2017
58.2072
58.2085
58.2061
58.2013
58.207
58.2255
58.2258
58.2235
58.2174
58.2164
58.2166
58.2157
58.2035
58.2047
58.2082
58.2013
58.1996
58.2019
58.2024
58.1937
58.1967
58.2109
58.2094
58.2094
58.2125
58.2134
58.2116
58.2095
58.1947
54.9914
55.9682
56.9019
57.6059
58.0211
58.2098
58.2518
58.2522
58.2518
58.2452
58.2512
58.2555
58.2534
58.2518
58.2409
58.2461
58.2553
58.2482
58.2512
58.2532
58.2512
58.2533
58.2506
58.2382
58.2408
58.2428
58.2372
58.237
58.2321
58.2428
58.2578
58.256
58.2535
58.2486
58.2485
58.2488
58.2494
58.244
58.2248
58.2245
58.2292
58.2272
58.2211
58.2171
58.2204
58.2199
58.2228
58.2232
58.2202
58.2076
58.21
58.2133
58.213
58.213
58.2087
58.2082
58.2044
58.1968
58.2033
58.2201
58.2189
58.2165
58.2102
58.2093
58.2006
58.2066
58.2199
58.2069
58.2112
58.2225
58.2204
58.2154
58.2115
58.2107
58.2023
58.2053
58.2215
58.2295
58.2274
58.2289
58.2277
58.2171
58.2124
58.2184
58.2209
58.2178
58.2073
58.2102
58.2136
58.1993
54.9911
55.9689
56.9006
57.6033
58.0277
58.2012
58.2293
58.2364
58.2457
58.2427
58.2369
58.2412
58.2479
58.245
58.2379
58.2353
58.2383
58.2326
58.2358
58.2375
58.2352
58.2298
58.2333
58.2472
58.2478
58.2462
58.2477
58.2423
58.2424
58.2457
58.2471
58.2445
58.2424
58.2426
58.2386
58.2287
58.2236
58.2388
58.2484
58.2481
58.2478
58.2398
58.2391
58.2354
58.2334
58.2307
58.2273
58.2245
58.2205
58.212
58.2029
58.2049
58.2065
58.2032
58.204
58.2033
58.2038
58.1959
58.2009
58.2058
58.2024
58.2036
58.1986
58.1968
58.1955
58.1966
58.1931
58.2003
58.2055
58.2041
58.2005
58.2021
58.2233
58.2283
58.2269
58.2258
58.2231
58.2172
58.2167
58.2149
58.2121
58.2104
58.207
58.1959
58.1957
58.21
58.2139
58.2124
58.2092
58.1991
54.991
55.9672
56.9012
57.6107
58.0226
58.1796
58.2075
58.2142
58.2384
58.2435
58.2419
58.2423
58.2389
58.2309
58.2209
58.226
58.2308
58.2355
58.241
58.2405
58.2417
58.239
58.2301
58.2345
58.2422
58.2287
58.2287
58.2467
58.2522
58.2501
58.2469
58.2441
58.2401
58.2385
58.2284
58.2325
58.2371
58.2279
58.2316
58.2356
58.234
58.2348
58.2318
58.2259
58.2215
58.2124
58.2063
58.2116
58.2165
58.2155
58.2152
58.2078
58.2041
58.2118
58.2172
58.2154
58.2153
58.2064
58.2051
58.2128
58.2171
58.215
58.2119
58.2092
58.1979
58.2006
58.2197
58.2242
58.2227
58.2182
58.2159
58.2145
58.204
58.2044
58.2168
58.2134
58.2171
58.2222
58.2208
58.2198
58.2166
58.204
58.2007
58.2128
58.2204
58.2181
58.2103
58.2087
58.2082
58.2001
54.9892
55.968
56.9018
57.6098
58.0237
58.18
58.2316
58.2334
58.233
58.2327
58.2212
58.2168
58.2377
58.2601
58.251
58.2558
58.2762
58.2771
58.2744
58.2667
58.2643
58.2641
58.2618
58.2561
58.2634
58.2682
58.2648
58.253
58.254
58.258
58.2497
58.2463
58.2449
58.2411
58.245
58.2465
58.2426
58.2291
58.2273
58.24
58.2419
58.2384
58.225
58.2274
58.2325
58.2298
58.2251
58.2191
58.2209
58.2256
58.2225
58.2097
58.2127
58.2148
58.2133
58.2127
58.2106
58.2143
58.2107
58.2138
58.2148
58.2117
58.2
58.1996
58.2088
58.2041
58.2074
58.2102
58.2074
58.1981
58.2019
58.2088
58.2057
58.2013
58.2052
58.2182
58.2146
58.2148
58.2142
58.2098
58.204
58.2093
58.2153
58.2143
58.2138
58.2035
58.2068
58.2191
58.2172
58.2078
54.9905
55.9678
56.9059
57.598
58.0135
58.2163
58.2752
58.2886
58.2864
58.2873
58.2825
58.2844
58.286
58.2838
58.2835
58.2836
58.2826
58.2789
58.2759
58.2672
58.2728
58.2782
58.2747
58.274
58.2717
58.269
58.2677
58.2678
58.2672
58.2697
58.2664
58.2638
58.2621
58.2522
58.2457
58.2428
58.2402
58.2321
58.2381
58.249
58.249
58.2487
58.2332
58.2342
58.2401
58.2366
58.2369
58.2342
58.2295
58.2238
58.2234
58.2181
58.2255
58.2352
58.2299
58.2292
58.2227
58.228
58.2306
58.2296
58.2295
58.2254
58.2117
58.2103
58.2106
58.2054
58.2
58.2051
58.2153
58.2085
58.2124
58.2189
58.2177
58.2167
58.2049
58.2077
58.2271
58.2275
58.2255
58.2259
58.2215
58.205
58.2027
58.2192
58.2233
58.2199
58.2079
58.2103
58.2162
58.2006
54.9901
55.9672
56.9027
57.6085
58.0172
58.1957
58.2329
58.2333
58.2328
58.2267
58.2212
58.234
58.2621
58.2634
58.259
58.2585
58.2578
58.2575
58.2696
58.2808
58.2765
58.2777
58.2776
58.2675
58.2718
58.2768
58.2751
58.2746
58.2726
58.2723
58.2676
58.2672
58.2614
58.2452
58.2411
58.2415
58.2397
58.2411
58.2379
58.2271
58.2314
58.242
58.2274
58.2288
58.2381
58.2384
58.2377
58.2382
58.2389
58.2372
58.2357
58.2226
58.2185
58.2163
58.2123
58.1991
58.2009
58.2144
58.2152
58.2143
58.2001
58.2033
58.2179
58.2182
58.2157
58.2121
58.2091
58.1966
58.1959
58.218
58.2245
58.223
58.2223
58.215
58.2122
58.2027
58.2042
58.2275
58.2327
58.2316
58.233
58.2308
58.2262
58.2108
58.2118
58.2192
58.2121
58.2127
58.2116
58.2
54.9916
55.961
56.91
57.6071
58.0158
58.1911
58.2222
58.222
58.219
58.2233
58.2438
58.245
58.2424
58.23
58.2337
58.2479
58.2434
58.2464
58.2502
58.2478
58.2367
58.2412
58.2488
58.2435
58.2432
58.2432
58.2392
58.2373
58.25
58.2568
58.2528
58.2534
58.2518
58.2385
58.2408
58.2458
58.2428
58.2448
58.2418
58.2394
58.2389
58.2388
58.236
58.2315
58.2155
58.2031
58.2047
58.2106
58.2074
58.1995
58.1945
58.201
58.2043
58.2009
58.1892
58.1918
58.198
58.1891
58.1856
58.2002
58.212
58.2109
58.2101
58.2022
58.1991
58.1892
58.1873
58.1977
58.199
58.2032
58.2055
58.2026
58.1937
58.1972
58.2059
58.1973
58.1939
58.2069
58.2159
58.2154
58.2152
58.2027
58.2065
58.2241
58.225
58.2227
58.2176
58.2165
58.2125
58.1994
54.9914
55.9656
56.9033
57.6055
58.0219
58.1977
58.2281
58.2279
58.2249
58.229
58.2364
58.2331
58.2301
58.236
58.2438
58.2328
58.2382
58.2561
58.2493
58.2574
58.2654
58.2651
58.2651
58.2516
58.2566
58.2618
58.2469
58.2513
58.256
58.2542
58.2542
58.2467
58.2531
58.2593
58.2574
58.2554
58.2528
58.25
58.247
58.2469
58.2439
58.2375
58.2216
58.215
58.2106
58.1971
58.1994
58.2139
58.2153
58.2154
58.2085
58.2135
58.2156
58.2124
58.2023
58.2041
58.2063
58.2003
58.1954
58.2014
58.2111
58.2091
58.206
58.1976
58.2048
58.2099
58.2069
58.2005
58.1946
58.2018
58.2096
58.2077
58.2016
58.2074
58.2112
58.2086
58.2082
58.1991
58.2035
58.2184
58.2117
58.2085
58.2167
58.2246
58.2216
58.2106
58.2128
58.2167
58.2135
58.2033
54.9894
55.9686
56.9014
57.607
58.0198
58.1964
58.2448
58.2474
58.2457
58.2453
58.2361
58.2386
58.2575
58.2716
58.2735
58.2645
58.2652
58.2647
58.256
58.2584
58.2699
58.2665
58.2656
58.2637
58.2601
58.2688
58.2768
58.2753
58.2744
58.2735
58.274
58.2702
58.2697
58.2674
58.266
58.2617
58.2577
58.2509
58.2398
58.231
58.224
58.2184
58.2143
58.2021
58.2055
58.2106
58.209
58.2084
58.2024
58.2055
58.2022
58.2092
58.2224
58.2215
58.222
58.2178
58.2067
58.2023
58.2011
58.1976
58.1943
58.1937
58.1914
58.1985
58.2195
58.2192
58.2163
58.207
58.2017
58.2138
58.2211
58.218
58.2113
58.2055
58.2126
58.2175
58.2139
58.2055
58.199
58.2096
58.2158
58.2135
58.2063
58.21
58.2191
58.219
58.2189
58.2119
58.21
58.1972
54.9906
55.9672
56.9073
57.595
58.0166
58.216
58.2624
58.2627
58.2571
58.2624
58.274
58.2599
58.2606
58.27
58.2607
58.2661
58.2781
58.2781
58.2782
58.2653
58.2707
58.2828
58.2729
58.2694
58.2797
58.2854
58.2782
58.2819
58.2829
58.2797
58.2741
58.2712
58.2654
58.2609
58.2476
58.2456
58.2513
58.2513
58.2485
58.2319
58.2313
58.2341
58.2346
58.2344
58.2194
58.2222
58.2305
58.2278
58.2294
58.2296
58.2281
58.2265
58.2257
58.2167
58.2077
58.2111
58.2178
58.2144
58.2013
58.1995
58.2151
58.2218
58.2204
58.219
58.2168
58.2121
58.2022
58.2054
58.2132
58.2064
58.2107
58.2157
58.2144
58.2142
58.2038
58.2082
58.223
58.2234
58.2225
58.2086
58.212
58.2222
58.2202
58.2177
58.2134
58.2082
58.2111
58.2145
58.2115
58.2021
54.991
55.9646
56.9024
57.613
58.0208
58.1787
58.2246
58.226
58.2136
58.2199
58.2268
58.2169
58.2228
58.2267
58.2154
58.2185
58.2349
58.23
58.2383
58.2491
58.2408
58.2374
58.2444
58.2468
58.2547
58.2724
58.2612
58.2668
58.2707
58.2674
58.2572
58.2563
58.2563
58.2538
58.2451
58.2442
58.2473
58.2353
58.2383
58.2421
58.24
58.242
58.2389
58.237
58.2379
58.2376
58.2246
58.2274
58.2303
58.2297
58.2293
58.2189
58.2095
58.2091
58.2148
58.2132
58.2076
58.2008
58.2086
58.2142
58.2125
58.2118
58.2009
58.2046
58.2091
58.2072
58.2017
58.2022
58.2114
58.2081
58.2139
58.2166
58.2149
58.2139
58.2042
58.2042
58.1998
58.2053
58.2225
58.2116
58.2163
58.2304
58.23
58.2298
58.2272
58.2162
58.2198
58.2292
58.2261
58.214
54.9905
55.9678
56.9057
57.5984
58.0116
58.2181
58.2745
58.2756
58.269
58.2738
58.2833
58.27
58.2748
58.2824
58.2736
58.2737
58.2736
58.2654
58.2677
58.2771
58.2697
58.2747
58.2881
58.2876
58.2836
58.2841
58.2841
58.2827
58.2812
58.2787
58.2757
58.273
58.273
58.2729
58.2685
58.2661
58.262
58.2552
58.2424
58.235
58.2286
58.2139
58.2059
58.2154
58.2222
58.219
58.2187
58.2165
58.2007
58.1998
58.2077
58.1991
58.1967
58.2107
58.2173
58.2145
58.2148
58.213
58.2115
58.2017
58.2
58.2166
58.2249
58.2223
58.2126
58.2172
58.2261
58.2249
58.2236
58.2077
58.2098
58.214
58.214
58.214
58.2002
58.2069
58.2237
58.2227
58.2203
58.2076
58.2118
58.2218
58.2154
58.2165
58.2167
58.2162
58.2055
58.2078
58.2115
58.1991
54.9921
55.9698
56.8976
57.6049
58.024
58.1886
58.2455
58.248
58.2381
58.2326
58.2379
58.2462
58.2435
58.2333
58.2337
58.2522
58.2567
58.2538
58.2439
58.2477
58.2535
58.2427
58.2459
58.258
58.2579
58.2546
58.2599
58.2659
58.2514
58.2526
58.2589
58.2498
58.2461
58.252
58.2535
58.2512
58.2483
58.2462
58.2455
58.2447
58.2427
58.2402
58.236
58.2337
58.2313
58.2269
58.2121
58.1969
58.1945
58.1912
58.2001
58.2092
58.209
58.209
58.1994
58.2085
58.22
58.2191
58.2371
58.245
58.2431
58.2404
58.2318
58.2339
58.2353
58.2293
58.2352
58.2379
58.2364
58.2363
58.2318
58.2216
58.2131
58.2174
58.2203
58.2175
58.2088
58.211
58.2125
58.2003
58.1993
58.2161
58.2248
58.2237
58.2232
58.212
58.2133
58.215
58.2118
58.2019
54.9906
55.969
56.905
57.599
58.0068
58.2149
58.2878
58.2916
58.2881
58.2877
58.2824
58.2881
58.2925
58.2913
58.2914
58.2895
58.2865
58.2712
58.2675
58.2732
58.2735
58.2744
58.2745
58.2684
58.2737
58.2846
58.2833
58.2836
58.2798
58.2767
58.2725
58.2726
58.2696
58.2646
58.2613
58.2573
58.2546
58.2513
58.2481
58.245
58.2391
58.2273
58.2056
58.2055
58.2086
58.2064
58.2052
58.1968
58.1938
58.1858
58.1916
58.2049
58.2036
58.2014
58.1967
58.2065
58.2298
58.2287
58.215
58.2127
58.2181
58.2107
58.2146
58.2243
58.2199
58.2211
58.2163
58.2144
58.2148
58.2132
58.201
58.1991
58.213
58.22
58.2186
58.2174
58.2047
58.2062
58.217
58.2133
58.2172
58.2191
58.2159
58.2079
58.2027
58.2051
58.1996
58.1995
58.2068
58.1999
54.9905
55.9682
56.9045
57.6017
58.0058
58.2202
58.2882
58.2909
58.2841
58.2889
58.2916
58.2897
58.2895
58.2761
58.2805
58.2866
58.2718
58.2756
58.2861
58.2743
58.2728
58.2829
58.2869
58.2815
58.2864
58.2904
58.2901
58.29
58.285
58.2844
58.2817
58.281
58.2767
58.2724
58.2686
58.265
58.2605
58.2516
58.2405
58.2324
58.2277
58.2191
58.2109
58.2076
58.2032
58.2
58.1905
58.1939
58.2115
58.2131
58.2111
58.21
58.2015
58.1981
58.2059
58.2172
58.2236
58.2127
58.2191
58.2284
58.2185
58.2244
58.2291
58.2275
58.2269
58.2138
58.2142
58.2154
58.2055
58.2048
58.2222
58.2288
58.2283
58.2282
58.2256
58.2226
58.2156
58.214
58.2133
58.2132
58.2132
58.2051
58.2106
58.223
58.2214
58.2189
58.2053
58.2084
58.2139
58.1997
54.9906
55.9688
56.9059
57.5964
58.0111
58.215
58.2745
58.2866
58.2841
58.2733
58.2776
58.2834
58.2809
58.276
58.2737
58.2762
58.2674
58.2651
58.2716
58.2754
58.2777
58.2762
58.2688
58.2748
58.281
58.2739
58.2734
58.2725
58.2747
58.271
58.2684
58.2668
58.259
58.2504
58.2459
58.2335
58.2366
58.2432
58.2433
58.2431
58.238
58.2377
58.2346
58.2318
58.2253
58.2177
58.2123
58.2017
58.1865
58.1936
58.2062
58.2076
58.205
58.1926
58.1903
58.2046
58.2295
58.2281
58.217
58.222
58.2306
58.2199
58.2258
58.2312
58.2293
58.2275
58.218
58.2204
58.2223
58.2129
58.2169
58.2224
58.2095
58.215
58.2214
58.2198
58.2194
58.2098
58.2148
58.2214
58.221
58.2209
58.2169
58.2087
58.1998
58.2035
58.2081
58.2062
58.2054
58.1944
54.9889
55.9738
56.8986
57.6011
58.0174
58.2097
58.254
58.2574
58.2553
58.2461
58.2515
58.2559
58.2531
58.2437
58.2443
58.2549
58.247
58.2544
58.263
58.2609
58.2616
58.2583
58.27
58.2749
58.2821
58.2874
58.2871
58.287
58.2827
58.2826
58.28
58.2786
58.2747
58.2718
58.2668
58.2622
58.2557
58.2499
58.2455
58.2389
58.2302
58.2251
58.2161
58.207
58.2032
58.1925
58.1944
58.1963
58.1945
58.1945
58.1864
58.2066
58.2417
58.2417
58.2392
58.2429
58.2532
58.2532
58.2527
58.2424
58.2367
58.2379
58.2385
58.2352
58.2379
58.2393
58.2368
58.2297
58.2314
58.2375
58.2364
58.238
58.2377
58.2356
58.2194
58.2216
58.2252
58.2168
58.215
58.2126
58.213
58.2125
58.2109
58.2033
58.2041
58.2069
58.2036
58.2043
58.2033
58.1931
54.9913
55.9667
56.9019
57.607
58.0222
58.1896
58.2173
58.2103
58.2129
58.2312
58.234
58.2325
58.2323
58.221
58.227
58.2444
58.2416
58.2418
58.2373
58.2438
58.2814
58.2922
58.2849
58.2899
58.2916
58.2894
58.2878
58.2843
58.28
58.2777
58.2749
58.2722
58.2692
58.2649
58.2592
58.2399
58.2332
58.2345
58.2348
58.2322
58.2263
58.2268
58.2244
58.2191
58.2057
58.1982
58.2046
58.209
58.2055
58.2057
58.2061
58.2072
58.2038
58.1956
58.1932
58.1863
58.191
58.1966
58.1922
58.1928
58.1915
58.192
58.1929
58.1926
58.183
58.1871
58.1996
58.1979
58.1921
58.1943
58.2114
58.2082
58.2149
58.2215
58.2212
58.221
58.2077
58.2103
58.2215
58.2162
58.219
58.2197
58.2172
58.2068
58.2081
58.21
58.1975
58.202
58.2109
58.1968
54.9907
55.9671
56.9077
57.5941
58.0177
58.2168
58.2662
58.2676
58.266
58.2655
58.2573
58.2614
58.274
58.2709
58.2707
58.27
58.2703
58.2666
58.2662
58.2624
58.27
58.2881
58.2835
58.2856
58.2926
58.2924
58.2935
58.2925
58.2859
58.2844
58.2778
58.2606
58.2557
58.2516
58.2501
58.2495
58.2432
58.2432
58.2403
58.2362
58.2313
58.2275
58.2233
58.2207
58.2162
58.2072
58.1896
58.1895
58.1985
58.1999
58.2001
58.188
58.193
58.2306
58.2415
58.2397
58.2331
58.2405
58.2524
58.2463
58.2479
58.2453
58.2372
58.243
58.2487
58.2382
58.2357
58.2326
58.2219
58.2227
58.2319
58.2242
58.229
58.2409
58.2357
58.2411
58.2443
58.2377
58.2424
58.2441
58.2425
58.2413
58.2259
58.2156
58.2177
58.2198
58.2181
58.2186
58.214
58.1975
54.9905
55.9679
56.9053
57.5996
58.0095
58.2207
58.2748
58.2685
58.2753
58.2858
58.2764
58.2777
58.2787
58.2766
58.2684
58.2739
58.2858
58.274
58.2717
58.2833
58.2878
58.288
58.288
58.2966
58.3045
58.2969
58.2991
58.2993
58.2972
58.2966
58.2947
58.2891
58.2816
58.2761
58.2693
58.2542
58.2479
58.2409
58.2245
58.2161
58.2236
58.2263
58.2234
58.2183
58.2137
58.2102
58.1994
58.2046
58.2129
58.2126
58.2125
58.1978
58.1986
58.2289
58.2367
58.2444
58.2556
58.2513
58.2549
58.2555
58.2523
58.2414
58.2463
58.2533
58.2394
58.2373
58.2399
58.2297
58.2323
58.2423
58.2366
58.2427
58.2459
58.2374
58.2436
58.2471
58.2455
58.2451
58.2316
58.2351
58.2372
58.23
58.2331
58.2344
58.2308
58.2225
58.2125
58.2157
58.2176
58.2051
54.992
55.9645
56.9023
57.6128
58.0131
58.1948
58.2311
58.2295
58.2294
58.2226
58.2279
58.2308
58.2229
58.2197
58.2368
58.256
58.2504
58.2638
58.2899
58.2872
58.2875
58.2869
58.287
58.2867
58.287
58.2866
58.2791
58.2822
58.2846
58.2794
58.2811
58.2777
58.2756
58.2745
58.2698
58.2651
58.2592
58.249
58.2256
58.2157
58.215
58.2085
58.2142
58.2169
58.2095
58.2089
58.2084
58.2012
58.1993
58.2017
58.197
58.1929
58.1954
58.2019
58.1991
58.1889
58.194
58.2061
58.1995
58.2016
58.202
58.1988
58.197
58.2122
58.2253
58.2254
58.2254
58.2187
58.2176
58.209
58.2151
58.2218
58.2199
58.2136
58.2135
58.218
58.2075
58.2051
58.2107
58.2113
58.2139
58.2144
58.2119
58.2034
58.2096
58.2203
58.2184
58.2182
58.2162
58.2024
54.9894
55.971
56.9014
57.5995
58.0219
58.206
58.2575
58.2581
58.2571
58.2537
58.2572
58.2643
58.2628
58.2605
58.2623
58.2584
58.2563
58.2537
58.2607
58.268
58.2664
58.261
58.2627
58.2766
58.2692
58.2679
58.2807
58.2873
58.2864
58.286
58.2801
58.2649
58.254
58.2525
58.2495
58.2467
58.246
58.2431
58.2414
58.2371
58.226
58.2209
58.2166
58.21
58.1954
58.1876
58.1885
58.1922
58.1897
58.1771
58.1783
58.1997
58.2035
58.1997
58.1891
58.1849
58.1883
58.1803
58.1816
58.1934
58.191
58.1973
58.2038
58.1973
58.2015
58.2063
58.2054
58.2046
58.189
58.1884
58.2029
58.2043
58.1986
58.2038
58.2098
58.1947
58.1977
58.208
58.2082
58.2082
58.198
58.2058
58.2191
58.2171
58.2172
58.2178
58.2187
58.2165
58.2135
58.1941
54.9906
55.9675
56.9068
57.5959
58.0158
58.2174
58.263
58.2634
58.2604
58.2671
58.279
58.2665
58.2718
58.283
58.2827
58.282
58.2838
58.2862
58.2803
58.2818
58.2821
58.2759
58.2825
58.2955
58.2937
58.294
58.2944
58.295
58.2914
58.2894
58.2845
58.2815
58.2758
58.2707
58.2632
58.246
58.2386
58.2349
58.2286
58.2254
58.2228
58.2204
58.2195
58.2176
58.215
58.2113
58.2016
58.1848
58.1881
58.1973
58.1968
58.1968
58.1886
58.1931
58.1994
58.1988
58.1986
58.1863
58.1906
58.1985
58.1959
58.1917
58.1964
58.2114
58.2045
58.2096
58.2119
58.2086
58.2022
58.1964
58.1946
58.1894
58.1881
58.2058
58.2179
58.2147
58.2144
58.2111
58.2147
58.2159
58.2127
58.2074
58.1958
58.2039
58.2139
58.2112
58.2038
58.201
58.2061
58.1973
54.9905
55.9682
56.9045
57.6019
58.0059
58.2206
58.2879
58.2946
58.2913
58.2782
58.2814
58.2882
58.2756
58.2814
58.2887
58.2746
58.2786
58.2899
58.2785
58.276
58.2857
58.289
58.2825
58.2893
58.301
58.2948
58.2952
58.2946
58.2944
58.2947
58.2937
58.2943
58.2912
58.2866
58.2797
58.2611
58.2505
58.2444
58.2412
58.2381
58.2352
58.2322
58.2284
58.2254
58.2203
58.2062
58.203
58.2024
58.2045
58.2048
58.196
58.1902
58.2072
58.2461
58.2398
58.247
58.257
58.255
58.2549
58.2482
58.2474
58.2462
58.2494
58.25
58.2478
58.2483
58.2438
58.2282
58.2286
58.2387
58.2336
58.2354
58.2321
58.2305
58.2301
58.2203
58.2228
58.2295
58.2284
58.2293
58.2278
58.2262
58.2118
58.2109
58.225
58.2272
58.2232
58.2231
58.2206
58.2016
54.9905
55.9679
56.9053
57.5996
58.0094
58.2208
58.275
58.2687
58.2755
58.286
58.2747
58.2788
58.2838
58.2812
58.2727
58.2747
58.2846
58.2739
58.2716
58.2771
58.2752
58.2849
58.2967
58.2861
58.2927
58.2979
58.2978
58.2977
58.2943
58.2937
58.2904
58.2872
58.2739
58.2664
58.2616
58.253
58.2487
58.242
58.2262
58.2163
58.2244
58.228
58.2251
58.22
58.2139
58.2107
58.2014
58.2063
58.2122
58.212
58.212
58.1981
58.2014
58.2337
58.2394
58.2317
58.2384
58.2488
58.25
58.2474
58.23
58.2293
58.2366
58.2259
58.2297
58.2392
58.234
58.2338
58.2316
58.2292
58.222
58.2292
58.2376
58.2315
58.2351
58.2361
58.2325
58.2322
58.2298
58.2168
58.2088
58.2105
58.2031
58.2078
58.2184
58.2125
58.2174
58.2195
58.2156
58.201
54.9907
55.967
56.9079
57.594
58.0182
58.2159
58.2635
58.2785
58.277
58.2649
58.2689
58.2709
58.2588
58.261
58.2763
58.2804
58.2794
58.2796
58.277
58.2676
58.275
58.2859
58.2848
58.2838
58.2781
58.275
58.2706
58.2669
58.2752
58.284
58.2828
58.2825
58.2793
58.2782
58.276
58.2731
58.2699
58.2644
58.2535
58.235
58.2257
58.2222
58.2172
58.2141
58.2117
58.2064
58.1892
58.1905
58.2058
58.2073
58.2041
58.1914
58.1965
58.2333
58.2393
58.2379
58.234
58.2386
58.2511
58.2524
58.2498
58.235
58.2368
58.2442
58.2454
58.2428
58.2395
58.239
58.2328
58.2217
58.2262
58.2373
58.2386
58.2359
58.2272
58.222
58.2195
58.2155
58.2238
58.2344
58.2354
58.2327
58.226
58.2269
58.2238
58.2156
58.2102
58.2131
58.2138
58.2043
54.9915
55.966
56.903
57.6065
58.0196
58.1931
58.2266
58.2259
58.219
58.2208
58.2397
58.2446
58.2428
58.2405
58.238
58.2295
58.2375
58.2512
58.2395
58.2392
58.2576
58.2824
58.2813
58.2729
58.2699
58.2765
58.2786
58.2699
58.2751
58.2793
58.2783
58.278
58.2738
58.2729
58.27
58.266
58.2505
58.2455
58.2395
58.221
58.2225
58.2276
58.2182
58.2174
58.221
58.2218
58.2135
58.2158
58.2175
58.2078
58.212
58.216
58.216
58.2161
58.2086
58.2081
58.2053
58.2017
58.1862
58.1907
58.2101
58.2112
58.2079
58.1951
58.1969
58.2163
58.2204
58.2186
58.2181
58.2136
58.2081
58.2112
58.21
58.22
58.2304
58.2178
58.223
58.2289
58.217
58.2221
58.2263
58.2248
58.2242
58.2113
58.2139
58.2275
58.2272
58.2257
58.2246
58.2067
54.9926
55.9688
56.898
57.6057
58.0235
58.1874
58.2443
58.2473
58.2456
58.2455
58.2438
58.2428
58.232
58.2279
58.244
58.2567
58.2532
58.2533
58.2535
58.252
58.2448
58.259
58.2816
58.2816
58.2806
58.2666
58.2669
58.2723
58.27
58.2719
58.2693
58.2648
58.2513
58.251
58.2513
58.2469
58.2362
58.236
58.2329
58.226
58.2242
58.2244
58.2243
58.2222
58.2218
58.2173
58.2156
58.2173
58.2177
58.2141
58.2082
58.1917
58.1926
58.1994
58.1982
58.1933
58.1956
58.2075
58.2134
58.2232
58.2222
58.2222
58.2166
58.2204
58.2223
58.2194
58.2105
58.2142
58.221
58.2074
58.211
58.2254
58.2252
58.2235
58.2121
58.2088
58.2209
58.226
58.2227
58.2232
58.22
58.2059
58.2061
58.216
58.2162
58.2138
58.201
58.2043
58.2085
58.1951
54.992
55.9697
56.8976
57.605
58.0241
58.1887
58.2453
58.2477
58.2315
58.2348
58.2404
58.2402
58.2402
58.2295
58.2403
58.2584
58.2603
58.2579
58.2451
58.253
58.2709
58.2684
58.2695
58.2668
58.2729
58.2753
58.2737
58.2731
58.2705
58.2665
58.2582
58.2445
58.2491
58.2564
58.2511
58.2516
58.2515
58.2502
58.2415
58.237
58.2332
58.2306
58.2263
58.2181
58.1996
58.1971
58.2002
58.2002
58.1995
58.1884
58.1976
58.2082
58.2041
58.2205
58.238
58.2369
58.2345
58.2203
58.2206
58.2301
58.2271
58.2287
58.229
58.2288
58.2262
58.2225
58.211
58.2139
58.2254
58.2253
58.2261
58.2248
58.2235
58.2107
58.2075
58.2162
58.2224
58.2203
58.2168
58.2158
58.2114
58.2104
58.2099
58.2109
58.208
58.1961
58.1952
58.2074
58.2088
58.1994
54.9905
55.968
56.9051
57.6001
58.0085
58.22
58.281
58.2861
58.2832
58.2731
58.2785
58.2875
58.2775
58.2837
58.2891
58.2863
58.2766
58.275
58.2814
58.2709
58.2705
58.2791
58.2743
58.2816
58.2886
58.2782
58.2839
58.2866
58.2843
58.2835
58.2799
58.2724
58.2515
58.2455
58.2453
58.2417
58.2407
58.2336
58.23
58.2275
58.2271
58.2251
58.2178
58.2145
58.2067
58.2128
58.2245
58.2111
58.2143
58.2273
58.2276
58.228
58.2259
58.2215
58.2092
58.2034
58.2082
58.2083
58.2128
58.2161
58.2179
58.2163
58.215
58.2148
58.2048
58.2046
58.2142
58.2182
58.2158
58.2108
58.2223
58.2287
58.2283
58.2282
58.2224
58.2174
58.2184
58.2237
58.2231
58.2232
58.219
58.204
58.2024
58.2203
58.2236
58.2202
58.2077
58.2102
58.2164
58.2008
54.9906
55.9693
56.9045
57.6002
58.0038
58.2197
58.2806
58.2789
58.2855
58.2877
58.2771
58.2825
58.2885
58.288
58.2864
58.2873
58.2923
58.2898
58.2915
58.2917
58.2936
58.2939
58.2938
58.2833
58.2879
58.2919
58.2843
58.2829
58.2803
58.2798
58.2805
58.2808
58.2806
58.2763
58.2597
58.2533
58.2492
58.2466
58.2432
58.2333
58.2324
58.23
58.2264
58.2155
58.216
58.2191
58.217
58.2097
58.2092
58.2195
58.2149
58.2187
58.2227
58.2199
58.2104
58.2151
58.2275
58.2258
58.2234
58.2182
58.2174
58.2083
58.2113
58.2269
58.2194
58.2239
58.2361
58.2306
58.2347
58.2359
58.2333
58.2293
58.224
58.2294
58.2356
58.2341
58.2335
58.2266
58.22
58.2208
58.2246
58.2226
58.2203
58.2186
58.2035
58.2018
58.2091
58.2101
58.2078
58.1948
54.9891
55.9729
56.9008
57.5975
58.0199
58.2109
58.2489
58.2471
58.2489
58.2479
58.2408
58.2351
58.2371
58.2372
58.235
58.2414
58.2512
58.2492
58.242
58.2448
58.2611
58.2585
58.2638
58.2694
58.2667
58.2674
58.267
58.2633
58.2495
58.2534
58.2603
58.2582
58.2568
58.2442
58.2467
58.2485
58.2425
58.2435
58.2406
58.2379
58.2373
58.2342
58.2234
58.1998
58.1992
58.2037
58.2025
58.2023
58.1926
58.202
58.2101
58.21
58.21
58.2034
58.2025
58.1958
58.1951
58.2183
58.2338
58.2262
58.2295
58.2307
58.2288
58.2272
58.2243
58.2155
58.2211
58.2283
58.2213
58.2226
58.2199
58.2103
58.2148
58.2225
58.2077
58.2105
58.2205
58.2188
58.2169
58.2105
58.2191
58.2237
58.2175
58.2171
58.2169
58.2108
58.208
58.2128
58.2139
58.2046
54.9905
55.9679
56.9055
57.5987
58.0117
58.2158
58.281
58.2889
58.2826
58.2819
58.2791
58.2847
58.2877
58.2724
58.2756
58.2829
58.2703
58.2765
58.2874
58.2734
58.2774
58.2874
58.2793
58.2852
58.2888
58.2877
58.2871
58.2769
58.271
58.2687
58.2623
58.267
58.2684
58.2642
58.2642
58.2614
58.2575
58.2488
58.2413
58.2361
58.2294
58.2245
58.2151
58.2027
58.199
58.1966
58.193
58.1931
58.1905
58.1958
58.2172
58.2219
58.2206
58.2194
58.2069
58.2062
58.2143
58.2143
58.2081
58.2089
58.2153
58.2033
58.202
58.209
58.2094
58.2055
58.2075
58.2102
58.2026
58.2063
58.2237
58.2258
58.2253
58.2252
58.2209
58.2152
58.2169
58.2191
58.2161
58.2067
58.2088
58.2194
58.2182
58.2181
58.2182
58.2175
58.2046
58.2074
58.211
58.1986
54.9905
55.9658
56.9034
57.6098
58.0197
58.1885
58.2165
58.212
58.2104
58.2242
58.236
58.2363
58.2363
58.2213
58.2251
58.2503
58.2521
58.2474
58.2502
58.2655
58.2667
58.2625
58.2705
58.2868
58.2786
58.2856
58.2898
58.2892
58.2886
58.2775
58.2761
58.2713
58.2692
58.2633
58.244
58.2451
58.2475
58.2448
58.2454
58.2419
58.2385
58.2356
58.233
58.2303
58.2281
58.2148
58.2181
58.2241
58.2242
58.2242
58.2203
58.2191
58.2102
58.1974
58.2026
58.2104
58.2094
58.2089
58.1987
58.2029
58.2097
58.2071
58.1984
58.202
58.2125
58.2135
58.2109
58.197
58.198
58.207
58.2011
58.2071
58.2127
58.213
58.213
58.1995
58.2038
58.2102
58.2021
58.1972
58.2074
58.2203
58.2151
58.2191
58.2206
58.2175
58.2188
58.219
58.2163
58.1976
54.9906
55.9675
56.9067
57.5957
58.0162
58.2155
58.2636
58.279
58.2839
58.2825
58.2822
58.2677
58.271
58.2779
58.2658
58.2708
58.277
58.2687
58.2736
58.2755
58.263
58.2648
58.2729
58.2688
58.2735
58.2782
58.2733
58.2731
58.2728
58.2665
58.2568
58.2604
58.2638
58.2611
58.2581
58.2513
58.2469
58.234
58.2369
58.2435
58.2435
58.2433
58.2351
58.2348
58.2307
58.2212
58.2151
58.2258
58.2329
58.2315
58.2319
58.2281
58.2256
58.2235
58.2206
58.2186
58.2141
58.1992
58.198
58.205
58.2065
58.2047
58.2029
58.2027
58.2029
58.1953
58.1998
58.2144
58.2115
58.2059
58.2117
58.2211
58.2214
58.2214
58.2066
58.2105
58.2239
58.2225
58.22
58.2076
58.2121
58.2221
58.2156
58.2166
58.2168
58.2163
58.2057
58.208
58.2116
58.1991
54.9894
55.9686
56.9014
57.607
58.0198
58.1964
58.2447
58.2473
58.2456
58.2452
58.2362
58.2382
58.2559
58.2627
58.2799
58.2806
58.2779
58.2742
58.266
58.2645
58.2571
58.2575
58.2651
58.2646
58.2723
58.2759
58.2661
58.2716
58.2758
58.2753
58.2751
58.2712
58.2705
58.2659
58.2647
58.2606
58.2531
58.2396
58.2342
58.2201
58.2209
58.2311
58.2287
58.2211
58.2238
58.2306
58.231
58.231
58.2269
58.217
58.2122
58.2116
58.2091
58.2105
58.2085
58.2059
58.2029
58.2026
58.1996
58.1902
58.193
58.2049
58.204
58.1976
58.2007
58.2065
58.205
58.2049
58.1984
58.2084
58.2183
58.2155
58.2082
58.2033
58.2122
58.216
58.2134
58.2095
58.2003
58.2116
58.2237
58.2237
58.2238
58.2183
58.2168
58.2082
58.2022
58.212
58.2166
58.2061
54.9911
55.9641
56.9038
57.6104
58.0223
58.184
58.2071
58.2012
58.2121
58.2439
58.237
58.243
58.2572
58.2453
58.2509
58.2593
58.2461
58.2516
58.261
58.247
58.2512
58.2617
58.25
58.2555
58.26
58.2585
58.2586
58.25
58.2562
58.2614
58.258
58.2598
58.2586
58.2577
58.2578
58.2567
58.2546
58.2523
58.2503
58.2465
58.2438
58.2409
58.2351
58.2229
58.204
58.2038
58.2054
58.195
58.2003
58.2073
58.2
58.1959
58.2065
58.2166
58.217
58.217
58.2028
58.2039
58.2159
58.218
58.2159
58.2161
58.2129
58.1986
58.2008
58.2037
58.1925
58.1927
58.2115
58.221
58.2183
58.2187
58.2177
58.212
58.1999
58.1979
58.1967
58.2016
58.2259
58.232
58.2288
58.2289
58.2291
58.2277
58.2224
58.2198
58.2149
58.2131
58.2091
58.1963
54.9904
55.9686
56.9015
57.606
58.0212
58.1853
58.2349
58.2357
58.2326
58.2266
58.2242
58.2386
58.2463
58.2451
58.244
58.2418
58.2352
58.2427
58.2608
58.2608
58.2574
58.2446
58.2486
58.2622
58.2583
58.2602
58.2613
58.2589
58.2453
58.247
58.2524
58.2513
58.2508
58.2438
58.2419
58.2372
58.2348
58.2315
58.2213
58.2225
58.2226
58.219
58.2082
58.2085
58.2093
58.1956
58.1962
58.2203
58.2258
58.2187
58.2213
58.2251
58.2235
58.221
58.2071
58.2018
58.207
58.2085
58.206
58.1987
58.2072
58.2162
58.2162
58.2161
58.2069
58.2039
58.2213
58.2349
58.2332
58.2301
58.2325
58.2337
58.2309
58.2307
58.2277
58.2241
58.2107
58.2181
58.2291
58.2265
58.2191
58.216
58.2225
58.2239
58.2211
58.2161
58.2125
58.2099
58.2069
58.198
54.9919
55.9658
56.9035
57.6063
58.015
58.1985
58.2416
58.242
58.2397
58.2371
58.2283
58.2341
58.2565
58.2685
58.2717
58.2575
58.2611
58.2723
58.2604
58.2652
58.2809
58.2813
58.2778
58.2637
58.2659
58.2698
58.2585
58.2627
58.2644
58.2575
58.2608
58.2614
58.2573
58.2471