/*--------------------------------*- C++ -*----------------------------------*\
  =========                 |
  \\      /  F ield         | OpenFOAM: The Open Source CFD Toolbox
   \\    /   O peration     | Website:  https://openfoam.org
    \\  /    A nd           | Version:  11
     \\/     M anipulation  |
\*---------------------------------------------------------------------------*/
FoamFile
{
    format      ascii;
    class       volScalarField;
    location    "0.068";
    object      p;
}
// * * * * * * * * * * * * * * * * * * * * * * * * * * * * * * * * * * * * * //

dimensions      [0 2 -2 0 0 0 0];

internalField   nonuniform List<scalar> 
287084
(
1.69758
1.41085
1.35233
1.28413
1.21443
1.16201
1.11226
1.06623
1.02205
0.978563
0.934993
0.891831
0.849081
0.805299
0.760325
0.715003
0.669482
0.62373
0.577934
0.532369
0.487193
0.442824
0.399295
0.357237
0.31607
0.276882
0.242843
0.212645
0.185333
0.162422
0.140276
0.120979
0.103747
0.0886544
0.0780817
0.0705842
0.0658366
0.0635448
0.0633829
0.0650468
0.0682461
0.0727
0.0781179
0.0842665
0.0909054
0.0978283
0.104874
0.111769
0.118552
0.12464
0.130164
0.136644
0.143327
0.148324
0.152657
0.155594
0.157937
0.160166
0.161853
0.162812
0.163016
0.162756
0.161896
0.160584
0.15867
0.156228
0.153307
0.149866
0.146094
0.141491
0.137022
0.132704
0.127293
0.121281
0.115322
0.109024
0.102633
0.0957201
0.0885462
0.0813912
0.0737714
0.0659987
0.0579836
0.0497748
0.0414618
0.0321191
0.0207749
0.0115595
0.00544046
0.00230956
1.56167
1.36986
1.32151
1.2636
1.20281
1.15403
1.10678
1.06223
1.01895
0.976013
0.932958
0.890093
0.846837
0.802669
0.757803
0.712461
0.66678
0.620837
0.574831
0.529026
0.483637
0.439061
0.395372
0.353311
0.312281
0.273668
0.240254
0.210734
0.182111
0.155759
0.132878
0.113085
0.0966835
0.0832853
0.0732678
0.0662062
0.0618162
0.0598453
0.0599855
0.0619433
0.0654212
0.0701424
0.0758152
0.0822035
0.0890667
0.0962029
0.103436
0.110595
0.117557
0.124216
0.13047
0.136499
0.142236
0.147076
0.151223
0.154837
0.157501
0.159765
0.161495
0.16244
0.162746
0.162512
0.161755
0.160424
0.158547
0.156152
0.153197
0.149863
0.146018
0.141814
0.137133
0.132183
0.127035
0.121293
0.115155
0.108861
0.102613
0.095789
0.0885733
0.0813597
0.0737457
0.0659998
0.0582107
0.0499441
0.0409284
0.032104
0.0235153
0.0156109
0.00810794
0.00266684
1.53539
1.36346
1.31371
1.25787
1.19936
1.15099
1.10408
1.05954
1.01604
0.972933
0.92968
0.886451
0.84294
0.798528
0.753392
0.707688
0.661568
0.615154
0.568661
0.522347
0.476465
0.431406
0.387411
0.344954
0.304346
0.266152
0.230983
0.19889
0.170096
0.144421
0.122057
0.102941
0.0869454
0.0740291
0.0643831
0.0577527
0.0538679
0.0524248
0.0531176
0.0556312
0.0596544
0.0648978
0.0710803
0.0779467
0.0852583
0.0928156
0.100426
0.10794
0.115214
0.122123
0.12859
0.134754
0.140602
0.145716
0.150095
0.153773
0.156674
0.159103
0.160846
0.161898
0.162331
0.162173
0.161399
0.160121
0.158242
0.155862
0.153023
0.149685
0.145881
0.141655
0.137047
0.132164
0.12686
0.121083
0.11511
0.108914
0.102407
0.0955896
0.0885745
0.0813138
0.0738757
0.0662701
0.0584172
0.0503605
0.0418655
0.0329063
0.0242001
0.0159278
0.00767046
0.0024708
1.48792
1.32899
1.28492
1.23434
1.18157
1.13692
1.09296
1.05047
1.00836
0.966144
0.923537
0.880412
0.836626
0.791925
0.746479
0.700328
0.653644
0.606596
0.559405
0.51235
0.465735
0.419915
0.375241
0.33217
0.291031
0.252265
0.216715
0.184399
0.155077
0.12904
0.106427
0.0873366
0.0717722
0.0596181
0.0507398
0.0449349
0.0418837
0.0413008
0.0428524
0.0462221
0.0510775
0.0571194
0.0640572
0.0716379
0.0796156
0.087788
0.0959716
0.104009
0.111782
0.119184
0.126157
0.132647
0.138595
0.143792
0.14829
0.152233
0.15543
0.157941
0.159816
0.161036
0.161582
0.161512
0.160876
0.159639
0.157866
0.155572
0.152708
0.14942
0.145675
0.1415
0.136943
0.132002
0.126724
0.121052
0.115084
0.108824
0.102324
0.0955346
0.0884455
0.0811873
0.073742
0.066069
0.0582746
0.0502405
0.0419369
0.033527
0.0249933
0.0165195
0.00824201
0.00294767
1.46498
1.31444
1.27289
1.22434
1.17367
1.12988
1.08649
1.0442
1.00207
0.959697
0.91686
0.873343
0.829025
0.783795
0.73771
0.690822
0.643323
0.595351
0.547202
0.499134
0.451482
0.40466
0.359009
0.315033
0.273113
0.233716
0.197298
0.164146
0.134458
0.108331
0.0859641
0.0673475
0.052405
0.0410202
0.0330281
0.0281827
0.0261812
0.0266882
0.0293491
0.0338201
0.0397595
0.0468484
0.0547876
0.063307
0.0721624
0.0811456
0.090073
0.0987977
0.107179
0.115131
0.122564
0.129425
0.135695
0.141275
0.14614
0.150339
0.153762
0.156498
0.158552
0.159914
0.160623
0.160697
0.160137
0.159007
0.157299
0.155048
0.15232
0.149085
0.145383
0.141264
0.136727
0.131805
0.126549
0.120912
0.114959
0.10874
0.102251
0.0954783
0.0884813
0.0812532
0.0738284
0.0662403
0.0584289
0.0504428
0.0422614
0.033854
0.0254325
0.016843
0.00824388
0.0028054
1.44068
1.29189
1.25204
1.20578
1.15761
1.11588
1.07427
1.03333
0.992097
0.950286
0.907666
0.864033
0.819365
0.773567
0.726773
0.679026
0.630512
0.581451
0.532091
0.482766
0.433838
0.385705
0.338832
0.293656
0.250685
0.210338
0.173147
0.13938
0.109298
0.0830847
0.0608618
0.0426556
0.0283895
0.0179362
0.0110428
0.00743697
0.0067539
0.00864031
0.0127008
0.0185649
0.0258615
0.034254
0.0434294
0.053111
0.0630458
0.0730257
0.0828668
0.0924166
0.101553
0.110176
0.118218
0.125617
0.132341
0.13832
0.143539
0.14803
0.151768
0.154767
0.157042
0.158607
0.15948
0.159688
0.159276
0.158252
0.156653
0.154513
0.151828
0.148645
0.145005
0.140916
0.136424
0.131539
0.1263
0.120709
0.114799
0.108602
0.102121
0.0953857
0.0884043
0.0812089
0.0738284
0.0662508
0.0585024
0.0506014
0.0424837
0.0341712
0.0257516
0.0170452
0.00836939
0.00293728
1.42268
1.27646
1.23835
1.19346
1.14669
1.10579
1.06477
1.02407
0.98289
0.940916
0.897963
0.853842
0.808496
0.761886
0.714117
0.665243
0.615503
0.565052
0.514246
0.463393
0.412896
0.363225
0.314812
0.268234
0.223946
0.182486
0.144329
0.109844
0.0793728
0.0530715
0.0311201
0.0134956
0.000106308
-0.00923477
-0.0148163
-0.0169652
-0.0160842
-0.0125694
-0.00685542
0.000645692
0.00954127
0.0194704
0.030105
0.0411567
0.0523621
0.063508
0.0744166
0.0849398
0.0949483
0.104357
0.113092
0.121105
0.128362
0.134824
0.140481
0.145356
0.149424
0.152711
0.15524
0.157032
0.158113
0.158505
0.158242
0.157357
0.155873
0.153817
0.151237
0.148147
0.14458
0.140563
0.136126
0.131284
0.126077
0.12052
0.11464
0.108462
0.102012
0.0952987
0.0883482
0.0811781
0.0738131
0.0662723
0.0585483
0.0506739
0.0426105
0.0343513
0.0259146
0.0171432
0.00841847
0.00294649
1.40594
1.26008
1.22258
1.17875
1.13298
1.09302
1.05278
1.01266
0.971776
0.929848
0.886678
0.842071
0.796037
0.748513
0.699647
0.649506
0.598309
0.546308
0.4938
0.44118
0.388878
0.337372
0.287214
0.23894
0.193155
0.150377
0.111162
0.0759251
0.0450209
0.0186855
-0.00295857
-0.01991
-0.0323036
-0.0403599
-0.0444125
-0.0448571
-0.0421471
-0.0367392
-0.0291111
-0.0197127
-0.00897317
0.00272112
0.0150262
0.0276378
0.0402885
0.0527653
0.0648855
0.0765023
0.0875007
0.0977971
0.107325
0.116037
0.123913
0.130922
0.137066
0.142357
0.146806
0.150431
0.153254
0.155299
0.1566
0.157185
0.157091
0.156355
0.155001
0.153064
0.150582
0.147574
0.144078
0.140122
0.135739
0.13095
0.125788
0.120274
0.114433
0.108294
0.101873
0.095191
0.0882694
0.0811301
0.0737926
0.0662782
0.0585884
0.050748
0.0427168
0.0344809
0.0260337
0.0171875
0.00844807
0.0029864
1.39132
1.24617
1.20943
1.16624
1.12117
1.08167
1.04174
1.0017
0.960716
0.918471
0.87479
0.829485
0.782522
0.733895
0.683717
0.632079
0.579244
0.525415
0.470989
0.416344
0.361959
0.308401
0.256206
0.20606
0.158542
0.114294
0.0738989
0.0378118
0.00648791
-0.0198857
-0.0411143
-0.0572662
-0.0684793
-0.0750419
-0.0773519
-0.0758569
-0.0710848
-0.0635438
-0.0537666
-0.0422444
-0.0294397
-0.0157754
-0.00161456
0.0127343
0.0269891
0.0409335
0.0543925
0.0672201
0.0793076
0.0905772
0.100971
0.110455
0.11901
0.126625
0.133305
0.13907
0.143934
0.147919
0.151058
0.153383
0.154933
0.155737
0.155834
0.155256
0.154045
0.152232
0.149857
0.146946
0.143541
0.139662
0.13534
0.130607
0.12549
0.120019
0.114216
0.108109
0.101725
0.0950717
0.0881779
0.0810646
0.0737529
0.0662633
0.0585921
0.0507726
0.0427858
0.0346029
0.0262195
0.0173587
0.00843991
0.00292958
1.37789
1.23289
1.19644
1.15365
1.10894
1.06977
1.03003
0.990043
0.948905
0.906295
0.86203
0.8159
0.76792
0.718039
0.666409
0.613118
0.558421
0.5026
0.446014
0.389132
0.332456
0.276583
0.222175
0.169897
0.120491
0.0746053
0.0329135
-0.00404506
-0.0358421
-0.0621822
-0.0829423
-0.0981625
-0.108046
-0.112935
-0.113281
-0.109629
-0.102554
-0.0926466
-0.0804886
-0.0666257
-0.0515633
-0.0357438
-0.0195553
-0.00332612
0.0126682
0.0282092
0.043114
0.0572498
0.0705121
0.0828345
0.0941702
0.104483
0.113771
0.122033
0.129285
0.135551
0.140855
0.14523
0.148716
0.151343
0.153151
0.154183
0.154477
0.154078
0.15302
0.151341
0.149084
0.146276
0.142954
0.13915
0.134897
0.130224
0.125163
0.119742
0.11398
0.10791
0.101556
0.0949373
0.0880733
0.0809895
0.0737022
0.0662372
0.0585906
0.0507967
0.0428035
0.0346116
0.0261793
0.0172909
0.0084759
0.00298356
1.36558
1.22074
1.18452
1.14198
1.09748
1.05839
1.01865
0.978463
0.936988
0.893832
0.848799
0.801723
0.752548
0.701278
0.648014
0.59289
0.536177
0.478133
0.419207
0.359858
0.300657
0.242284
0.185407
0.13086
0.0793671
0.031729
-0.0113421
-0.0492594
-0.0814864
-0.107783
-0.127949
-0.142112
-0.15049
-0.15351
-0.151704
-0.145677
-0.136098
-0.12362
-0.108894
-0.0925148
-0.0750219
-0.0568952
-0.0385409
-0.020296
-0.00244719
0.0147825
0.0312258
0.0467425
0.0612445
0.0746731
0.0869923
0.0981855
0.108247
0.117195
0.125054
0.131854
0.137625
0.142407
0.146251
0.149193
0.151278
0.152549
0.153057
0.152842
0.151944
0.150405
0.148269
0.145566
0.14234
0.138621
0.134438
0.129829
0.124821
0.119448
0.11373
0.107699
0.101379
0.0947895
0.0879581
0.080899
0.0736342
0.0661946
0.0585651
0.0507829
0.0428132
0.0346476
0.0262167
0.0173174
0.00849407
0.00300384
1.35416
1.20936
1.17323
1.13079
1.08631
1.04719
1.00729
0.966818
0.924889
0.881066
0.835189
0.787024
0.736562
0.683752
0.628738
0.571641
0.512729
0.452333
0.390868
0.328894
0.266992
0.205911
0.14644
0.0894119
0.0357289
-0.0137888
-0.0583194
-0.097196
-0.129881
-0.156039
-0.175553
-0.188527
-0.195261
-0.196251
-0.192099
-0.183521
-0.171247
-0.156024
-0.138559
-0.119504
-0.0994463
-0.0788858
-0.0582557
-0.0379078
-0.0181256
0.000870449
0.0189059
0.0358628
0.0516588
0.0662411
0.0795857
0.0916862
0.102553
0.112208
0.120689
0.128032
0.134283
0.139491
0.143705
0.146972
0.149344
0.150865
0.15159
0.151569
0.150835
0.149438
0.147425
0.144835
0.141707
0.13807
0.133962
0.129415
0.124464
0.119142
0.113469
0.107478
0.10119
0.0946346
0.0878333
0.0808021
0.073563
0.0661366
0.0585269
0.0507653
0.0428045
0.0346522
0.0262731
0.017361
0.00846371
0.00296519
1.34358
1.19878
1.16264
1.12023
1.07569
1.0364
0.996234
0.95534
0.91284
0.868272
0.821407
0.772078
0.720199
0.665764
0.608871
0.549678
0.488457
0.425535
0.361411
0.296623
0.23188
0.167957
0.105709
0.0461243
-0.00988683
-0.061346
-0.107376
-0.147238
-0.180312
-0.206307
-0.225041
-0.236715
-0.241657
-0.240457
-0.233813
-0.222522
-0.20742
-0.18932
-0.169003
-0.147171
-0.124449
-0.101377
-0.0783994
-0.0558837
-0.0341133
-0.0133101
0.00636243
0.0247892
0.0418999
0.057656
0.0720433
0.0850679
0.0967503
0.10713
0.116248
0.124154
0.130897
0.136534
0.141123
0.144721
0.147382
0.149155
0.150099
0.150264
0.149701
0.148453
0.146571
0.144093
0.141058
0.137508
0.133476
0.129
0.124106
0.118831
0.113204
0.107254
0.101004
0.0944772
0.0876984
0.0806935
0.0734782
0.0660767
0.0584801
0.0507288
0.0427782
0.0346095
0.0261737
0.0173028
0.00852275
0.00304557
1.33374
1.18891
1.15274
1.11026
1.06552
1.02601
0.985482
0.944082
0.900956
0.855543
0.80765
0.757049
0.703697
0.647534
0.588696
0.527314
0.463678
0.398162
0.331248
0.263586
0.195861
0.128997
0.0639059
0.00163566
-0.0567416
-0.1102
-0.157743
-0.19856
-0.232016
-0.257747
-0.27564
-0.285897
-0.28894
-0.285443
-0.276189
-0.262086
-0.244049
-0.222986
-0.199733
-0.175057
-0.149626
-0.123999
-0.0986447
-0.0739333
-0.0501584
-0.0275342
-0.00621555
0.0136954
0.0321318
0.0490686
0.0645026
0.0784535
0.0909595
0.102062
0.111816
0.120277
0.12751
0.133581
0.138546
0.142469
0.145415
0.14744
0.148607
0.148968
0.148572
0.147471
0.145715
0.143349
0.140413
0.136948
0.132991
0.128577
0.123743
0.118518
0.112935
0.107024
0.100807
0.0943167
0.0875669
0.0805834
0.0733922
0.0660047
0.0584228
0.0506874
0.0427382
0.0345999
0.0261611
0.0172714
0.00850708
0.00303832
1.32464
1.17977
1.1435
1.10091
1.05598
1.01616
0.975207
0.933234
0.8894
0.843082
0.794089
0.74219
0.687296
0.629376
0.56852
0.504898
0.438795
0.370601
0.300867
0.230219
0.159499
0.0896204
0.0216258
-0.0433324
-0.104119
-0.159555
-0.208592
-0.250333
-0.284087
-0.309501
-0.326451
-0.335214
-0.336271
-0.33039
-0.318461
-0.301485
-0.280477
-0.256423
-0.230224
-0.202697
-0.174552
-0.146377
-0.118648
-0.0917551
-0.0659869
-0.0415565
-0.0186094
0.0027614
0.0225046
0.0406095
0.0570774
0.0719423
0.085255
0.0970719
0.10745
0.116463
0.124178
0.130668
0.136003
0.140253
0.14349
0.145764
0.147145
0.147689
0.147458
0.146505
0.144875
0.142617
0.139773
0.136393
0.132512
0.128165
0.123387
0.118211
0.112674
0.106801
0.100619
0.0941538
0.0874286
0.080473
0.0733
0.0659361
0.0583688
0.0506495
0.0427164
0.0345856
0.0261634
0.0172667
0.00850434
0.00304162
1.31626
1.17135
1.13497
1.09222
1.04701
1.00686
0.965428
0.922861
0.878273
0.831054
0.780938
0.727704
0.671256
0.611549
0.548686
0.482806
0.41423
0.343367
0.270772
0.197188
0.123422
0.0505595
-0.0203308
-0.087974
-0.151124
-0.20851
-0.258982
-0.301587
-0.335584
-0.360599
-0.376556
-0.383763
-0.38279
-0.374503
-0.359888
-0.340046
-0.316082
-0.28906
-0.259947
-0.229614
-0.198803
-0.16813
-0.13809
-0.109067
-0.0813565
-0.0551651
-0.0306314
-0.00783458
0.0131806
0.0324149
0.0498901
0.065642
0.0797384
0.0922417
0.103229
0.112778
0.12096
0.127859
0.133552
0.138112
0.141614
0.144127
0.145722
0.146453
0.146382
0.145567
0.14406
0.14191
0.139161
0.135861
0.132047
0.12776
0.123041
0.117915
0.112416
0.106578
0.100427
0.0939921
0.0872944
0.0803593
0.0732082
0.065858
0.0583058
0.050592
0.0426698
0.0345181
0.026113
0.0172628
0.00851384
0.00306214
1.30862
1.16366
1.12715
1.08422
1.03877
0.998229
0.956331
0.913068
0.86779
0.819645
0.768388
0.713825
0.655843
0.594373
0.529509
0.461415
0.390395
0.316895
0.241519
0.165002
0.0882991
0.012479
-0.0612244
-0.131471
-0.196903
-0.256137
-0.307969
-0.351337
-0.385501
-0.410057
-0.424968
-0.430598
-0.4276
-0.416926
-0.399671
-0.377028
-0.350191
-0.320295
-0.288371
-0.255334
-0.221962
-0.188892
-0.156627
-0.125564
-0.0959953
-0.0681211
-0.0420734
-0.017919
0.00430749
0.0246185
0.0430473
0.0596455
0.0744811
0.0876433
0.0992099
0.109266
0.117892
0.125176
0.13121
0.136074
0.13984
0.142583
0.144377
0.145279
0.145359
0.144675
0.143283
0.141235
0.138575
0.135351
0.131607
0.127384
0.122713
0.117632
0.112174
0.106369
0.100251
0.0938432
0.0871691
0.080258
0.0731201
0.0657906
0.0582507
0.0505588
0.0426516
0.0345308
0.0261402
0.0172517
0.00848055
0.00302941
1.30174
1.15671
1.12006
1.07698
1.03121
0.990331
0.947923
0.904099
0.858058
0.808949
0.756609
0.700776
0.641298
0.578135
0.511358
0.44112
0.367766
0.29174
0.213665
0.134371
0.0548067
-0.0237978
-0.100213
-0.172917
-0.240503
-0.301474
-0.354533
-0.398586
-0.432829
-0.456886
-0.470735
-0.474808
-0.469838
-0.456869
-0.437089
-0.411776
-0.382212
-0.349595
-0.315011
-0.279424
-0.243638
-0.208311
-0.173961
-0.140986
-0.109675
-0.0802252
-0.0527564
-0.0273299
-0.00397005
0.0173445
0.0366648
0.0540525
0.0695905
0.0833633
0.095466
0.105993
0.115031
0.122682
0.129037
0.134173
0.13818
0.141136
0.143114
0.14418
0.144401
0.143843
0.14256
0.140605
0.138029
0.134882
0.131201
0.127027
0.122405
0.117364
0.111944
0.106171
0.10008
0.093696
0.0870435
0.0801505
0.0730293
0.0657141
0.0581915
0.05051
0.0426111
0.0345234
0.026159
0.0172842
0.00845445
0.00298367
1.29564
1.15054
1.11375
1.07049
1.02446
0.983215
0.940355
0.895888
0.849151
0.79924
0.74584
0.68878
0.62791
0.56314
0.494556
0.422316
0.346749
0.268351
0.187765
0.105843
0.0236458
-0.0576019
-0.136494
-0.211487
-0.281042
-0.343569
-0.397733
-0.44233
-0.476601
-0.500112
-0.512923
-0.5155
-0.508667
-0.49354
-0.471402
-0.44361
-0.411519
-0.376395
-0.339369
-0.301442
-0.263444
-0.226053
-0.189795
-0.155072
-0.122169
-0.0912763
-0.0625139
-0.0359305
-0.0115343
0.010704
0.0308361
0.0489453
0.0651123
0.0794459
0.0920459
0.103007
0.112426
0.120403
0.127047
0.132441
0.13667
0.13982
0.14197
0.143183
0.143533
0.143086
0.141902
0.140032
0.137532
0.134448
0.130824
0.126702
0.122124
0.117124
0.111737
0.105994
0.099928
0.0935693
0.0869404
0.0800651
0.0729572
0.0656575
0.0581427
0.0504759
0.0425965
0.0345078
0.0261444
0.0172358
0.00844179
0.00301306
1.29032
1.14519
1.10829
1.06483
1.01854
0.976958
0.933664
0.888716
0.841243
0.79049
0.73619
0.678042
0.615889
0.549668
0.479445
0.405372
0.32782
0.247252
0.164377
0.0800898
-0.00453301
-0.0881186
-0.169287
-0.246303
-0.317618
-0.381523
-0.436613
-0.481677
-0.51589
-0.538871
-0.550693
-0.551885
-0.543344
-0.526263
-0.502001
-0.471987
-0.437643
-0.400274
-0.361064
-0.321043
-0.28107
-0.241835
-0.203875
-0.167591
-0.133268
-0.101094
-0.071174
-0.0435583
-0.018244
0.00480941
0.0256731
0.0444257
0.0611607
0.0759842
0.0890121
0.100353
0.110108
0.118383
0.125281
0.130898
0.135326
0.138648
0.140945
0.142292
0.142757
0.142413
0.141313
0.139522
0.13709
0.134065
0.130491
0.126412
0.121873
0.116904
0.111548
0.105834
0.0997889
0.0934468
0.0868329
0.0799727
0.0728801
0.0655895
0.0580882
0.0504276
0.0425501
0.0344733
0.0260995
0.0172076
0.00844249
0.00302419
1.28587
1.14066
1.1036
1.06006
1.0135
0.971632
0.927929
0.882494
0.834446
0.783043
0.727899
0.668767
0.605497
0.537987
0.46632
0.390651
0.311326
0.228868
0.143994
0.057627
-0.0290735
-0.114744
-0.197851
-0.276629
-0.349453
-0.414502
-0.470368
-0.515759
-0.549901
-0.572363
-0.583288
-0.583252
-0.573209
-0.554421
-0.528314
-0.496373
-0.460073
-0.420773
-0.379685
-0.33787
-0.296201
-0.255386
-0.215965
-0.178344
-0.142803
-0.109524
-0.0786167
-0.0501158
-0.0240129
-0.000256811
0.0212211
0.0405193
0.0577396
0.0729965
0.0864007
0.0980719
0.108119
0.116648
0.12377
0.129579
0.134176
0.137644
0.140073
0.141531
0.142097
0.141839
0.140815
0.139085
0.136711
0.133739
0.130208
0.126169
0.121663
0.116725
0.111391
0.105696
0.0996741
0.0933532
0.0867557
0.0799078
0.0728269
0.0655491
0.058053
0.0504062
0.0425365
0.0344624
0.0261074
0.017215
0.0084404
0.00301502
1.28225
1.13701
1.09986
1.05617
1.00942
0.967279
0.923263
0.877419
0.828884
0.776882
0.721054
0.661119
0.596907
0.528337
0.455469
0.378455
0.297684
0.21364
0.127096
0.0390036
-0.0494583
-0.136803
-0.221556
-0.30176
-0.375822
-0.441809
-0.498235
-0.543882
-0.577918
-0.599933
-0.6101
-0.609024
-0.597728
-0.577528
-0.549898
-0.516375
-0.478478
-0.43759
-0.394962
-0.351669
-0.308607
-0.266493
-0.225871
-0.18715
-0.150611
-0.116436
-0.0847121
-0.0554818
-0.0287307
-0.00440077
0.0175902
0.0373405
0.0549641
0.0705656
0.0842724
0.0962089
0.106491
0.11523
0.122531
0.128498
0.133232
0.136822
0.139355
0.14091
0.141552
0.141361
0.140399
0.138726
0.136396
0.133463
0.12997
0.125961
0.121486
0.116571
0.111261
0.105586
0.0995761
0.0932667
0.0866793
0.0798428
0.0727706
0.0654957
0.058011
0.0503632
0.0425032
0.0344149
0.0260606
0.0172041
0.00843982
0.00302566
1.27951
1.13425
1.09701
1.05322
1.0063
0.963988
0.919693
0.873562
0.824628
0.772185
0.715819
0.655251
0.590316
0.520908
0.447103
0.36906
0.28714
0.201878
0.11405
0.0246231
-0.0651751
-0.153844
-0.239831
-0.321119
-0.396184
-0.462783
-0.519638
-0.565447
-0.599412
-0.621053
-0.630612
-0.628737
-0.616472
-0.595183
-0.566383
-0.531646
-0.492522
-0.450427
-0.406621
-0.362202
-0.318079
-0.274975
-0.233439
-0.193881
-0.156578
-0.12171
-0.0893709
-0.0595856
-0.0323414
-0.0075711
0.0148078
0.0349012
0.0528273
0.0687001
0.0826422
0.0947881
0.105247
0.114139
0.121582
0.12767
0.132512
0.136193
0.138809
0.140429
0.141136
0.141002
0.140088
0.138454
0.136162
0.13326
0.129793
0.125811
0.12135
0.116455
0.11116
0.105498
0.0995037
0.0932031
0.0866282
0.0798023
0.0727385
0.065475
0.0579935
0.0503547
0.0424881
0.0344083
0.0260301
0.0171581
0.00845253
0.00304777
1.27768
1.13239
1.0951
1.05124
1.00421
0.961742
0.917283
0.870908
0.82176
0.769027
0.712272
0.651277
0.58584
0.515882
0.441443
0.362684
0.280003
0.193908
0.105192
0.0148579
-0.0758791
-0.165415
-0.252288
-0.334295
-0.410118
-0.477133
-0.53406
-0.579961
-0.613929
-0.635322
-0.644477
-0.642046
-0.629128
-0.607101
-0.577511
-0.541956
-0.502008
-0.459095
-0.414495
-0.369316
-0.324475
-0.2807
-0.238543
-0.19842
-0.160603
-0.125271
-0.0925133
-0.0623559
-0.0347741
-0.00970944
0.0129314
0.033258
0.051387
0.0674361
0.0815385
0.0938202
0.104407
0.113409
0.120944
0.127116
0.132027
0.135773
0.138444
0.140117
0.140863
0.140761
0.139874
0.138269
0.135997
0.133114
0.12967
0.125701
0.121259
0.116378
0.111094
0.105441
0.0994512
0.093163
0.0865921
0.0797683
0.0727086
0.0654455
0.0579728
0.0503335
0.0424828
0.0344169
0.0260856
0.0172256
0.00842073
0.0030029
1.27676
1.13146
1.09414
1.05024
1.00316
0.960622
0.916074
0.869477
0.820343
0.767539
0.710499
0.649274
0.58359
0.513331
0.438562
0.359452
0.276369
0.189857
0.1007
0.00990826
-0.0812777
-0.17128
-0.258559
-0.340964
-0.417181
-0.484414
-0.54124
-0.587298
-0.621257
-0.64251
-0.651457
-0.648751
-0.635495
-0.613096
-0.583106
-0.547138
-0.506771
-0.463449
-0.418451
-0.372894
-0.327694
-0.283582
-0.241117
-0.200708
-0.162631
-0.127062
-0.0940943
-0.0637481
-0.0360017
-0.0107847
0.0119938
0.0324385
0.0506672
0.0668058
0.080987
0.093341
0.103984
0.113038
0.120624
0.126836
0.131784
0.135559
0.138254
0.139946
0.140718
0.140636
0.139768
0.138175
0.135918
0.133049
0.129609
0.12565
0.121213
0.116338
0.111057
0.10541
0.0994319
0.0931418
0.0865749
0.0797538
0.0726982
0.0654444
0.0579693
0.0503341
0.0424775
0.0344022
0.0260511
0.0171701
0.00842255
0.00302707
1.27676
1.13146
1.09414
1.05025
1.00317
0.960617
0.916071
0.869456
0.820356
0.767559
0.710497
0.649283
0.583593
0.513345
0.438578
0.359466
0.276391
0.189871
0.100715
0.00992408
-0.0812691
-0.171263
-0.25855
-0.340951
-0.417166
-0.484401
-0.541215
-0.587288
-0.621237
-0.64249
-0.651435
-0.648727
-0.635475
-0.613076
-0.583089
-0.547121
-0.506755
-0.463431
-0.418433
-0.372876
-0.327676
-0.283567
-0.241102
-0.200695
-0.16262
-0.127056
-0.0940907
-0.063744
-0.0359944
-0.01078
0.0119923
0.0324319
0.0506623
0.0668027
0.0809862
0.0933384
0.103983
0.113039
0.120624
0.126835
0.131784
0.135564
0.138261
0.139954
0.140724
0.140642
0.139769
0.138176
0.135916
0.133043
0.129608
0.125649
0.121216
0.11634
0.11106
0.105414
0.0994297
0.0931419
0.0865732
0.0797516
0.0726948
0.0654332
0.0579655
0.0503309
0.0424735
0.034403
0.0260409
0.0171748
0.00843561
0.00302979
1.27768
1.1324
1.09511
1.05125
1.00423
0.961754
0.917299
0.870836
0.821795
0.769122
0.712303
0.651294
0.585863
0.515897
0.441448
0.362704
0.280013
0.193927
0.10521
0.01489
-0.0758345
-0.165374
-0.252232
-0.334236
-0.410069
-0.47704
-0.53397
-0.579934
-0.61387
-0.635257
-0.644409
-0.641981
-0.629065
-0.607044
-0.577458
-0.541907
-0.501959
-0.459048
-0.414452
-0.369279
-0.324443
-0.28067
-0.238517
-0.198394
-0.16058
-0.125251
-0.0924939
-0.0623371
-0.0347595
-0.0096941
0.0129474
0.0332762
0.0514089
0.0674557
0.0815532
0.0938344
0.104415
0.113412
0.120946
0.127117
0.132029
0.135775
0.138443
0.14011
0.14086
0.140757
0.139873
0.138268
0.136
0.133118
0.129668
0.125703
0.121257
0.116376
0.11109
0.10544
0.0994581
0.093165
0.0865932
0.0797675
0.0727076
0.0654488
0.057973
0.0503429
0.0424815
0.034413
0.0260476
0.0171585
0.0084207
0.00302814
1.27952
1.13426
1.09703
1.05322
1.00632
0.963988
0.919704
0.873559
0.824648
0.772229
0.715841
0.655284
0.590344
0.520947
0.447144
0.3691
0.287195
0.201929
0.114104
0.0246851
-0.0651182
-0.153766
-0.239764
-0.321036
-0.396101
-0.462662
-0.51953
-0.565374
-0.599308
-0.620952
-0.630505
-0.628631
-0.616368
-0.595083
-0.566288
-0.531558
-0.492441
-0.450351
-0.406551
-0.362138
-0.318018
-0.27492
-0.233388
-0.193834
-0.156535
-0.121672
-0.0893376
-0.0595566
-0.0323156
-0.00754916
0.0148265
0.0349165
0.0528411
0.0687088
0.0826479
0.0947894
0.105252
0.114147
0.121589
0.127677
0.132517
0.136204
0.138816
0.140438
0.141149
0.141012
0.140091
0.138458
0.136162
0.133256
0.129794
0.125811
0.121352
0.116457
0.111161
0.105499
0.0995043
0.0932049
0.0866252
0.0797943
0.0727344
0.065467
0.0579927
0.0503532
0.0424943
0.0344221
0.0260698
0.0171979
0.00843756
0.00303474
1.28226
1.13703
1.09988
1.05618
1.00944
0.967299
0.923282
0.877401
0.828922
0.776956
0.721102
0.66116
0.596951
0.528388
0.455512
0.378516
0.297729
0.213703
0.127162
0.0390776
-0.0493619
-0.136717
-0.221439
-0.301656
-0.375694
-0.441677
-0.498099
-0.543742
-0.577769
-0.599782
-0.609948
-0.608877
-0.597588
-0.577394
-0.54977
-0.516256
-0.478365
-0.437488
-0.394871
-0.351585
-0.30853
-0.26642
-0.225803
-0.187086
-0.150552
-0.116383
-0.0846674
-0.0554421
-0.028697
-0.00437078
0.0176145
0.037363
0.0549867
0.0705873
0.0842913
0.0962253
0.106505
0.11524
0.122541
0.128508
0.13324
0.136828
0.139362
0.140912
0.14156
0.141367
0.140405
0.138732
0.136399
0.133465
0.129973
0.125966
0.121484
0.116569
0.111258
0.105586
0.0995821
0.093271
0.0866851
0.0798463
0.0727716
0.0655012
0.0580162
0.0503773
0.0425022
0.0344342
0.0260648
0.0171712
0.0084342
0.00302926
1.28588
1.14068
1.10365
1.06006
1.01353
0.971639
0.927952
0.882501
0.834476
0.783103
0.727942
0.668821
0.605549
0.538049
0.466387
0.390717
0.311416
0.228953
0.144086
0.0577355
-0.0289691
-0.11461
-0.197726
-0.276487
-0.349298
-0.414342
-0.470187
-0.515592
-0.549711
-0.572183
-0.583102
-0.583071
-0.573029
-0.554251
-0.528151
-0.496222
-0.459936
-0.420647
-0.37957
-0.337763
-0.296097
-0.25529
-0.215875
-0.178258
-0.142725
-0.109457
-0.0785586
-0.0500638
-0.0239675
-0.000216889
0.021259
0.0405513
0.0577691
0.0730189
0.086417
0.0980842
0.108127
0.116656
0.123779
0.129593
0.13419
0.137659
0.140082
0.141541
0.142111
0.141852
0.140824
0.139095
0.136716
0.133737
0.13021
0.126171
0.121664
0.116727
0.111394
0.1057
0.0996778
0.0933503
0.0867502
0.0799042
0.0728236
0.0655414
0.0580504
0.0503987
0.0425318
0.0344594
0.0260973
0.0172128
0.00843797
0.00302139
1.29034
1.14522
1.10831
1.06486
1.01856
0.976986
0.933693
0.888721
0.841277
0.790573
0.736257
0.678102
0.615956
0.549747
0.479522
0.405467
0.327907
0.24735
0.164489
0.0801993
-0.00438362
-0.0879869
-0.169114
-0.246147
-0.317432
-0.381337
-0.436412
-0.481465
-0.515678
-0.538654
-0.55048
-0.551674
-0.543139
-0.526065
-0.501809
-0.471808
-0.437473
-0.400115
-0.360921
-0.320909
-0.280945
-0.241719
-0.203768
-0.167493
-0.133178
-0.101014
-0.0711045
-0.0434988
-0.0181938
0.00485164
0.0257009
0.0444466
0.0611815
0.0760067
0.0890325
0.100371
0.110128
0.118404
0.125304
0.130918
0.135342
0.13866
0.140959
0.142303
0.142771
0.142422
0.141326
0.139535
0.137096
0.13407
0.130499
0.126421
0.121877
0.116909
0.11155
0.10584
0.0997991
0.0934548
0.086838
0.0799767
0.07288
0.0655922
0.0580924
0.0504356
0.0425461
0.0344663
0.0260701
0.0171733
0.00845388
0.0030313
1.29566
1.15058
1.11379
1.07052
1.02449
0.983238
0.940388
0.895966
0.849213
0.799251
0.745882
0.688849
0.627982
0.563224
0.494655
0.422416
0.34687
0.268471
0.187894
0.105997
0.0237974
-0.0574204
-0.136315
-0.211291
-0.28083
-0.343358
-0.397496
-0.442105
-0.476354
-0.499874
-0.512681
-0.51526
-0.508429
-0.493311
-0.471184
-0.443406
-0.411332
-0.376223
-0.339209
-0.301295
-0.263304
-0.225925
-0.189678
-0.154965
-0.122068
-0.0911821
-0.062428
-0.0358542
-0.0114693
0.0107603
0.0308876
0.048989
0.0651563
0.0794831
0.0920683
0.103022
0.112438
0.12042
0.127064
0.132457
0.136686
0.139836
0.141981
0.143194
0.143548
0.143103
0.141917
0.14005
0.137545
0.134457
0.130832
0.126708
0.122126
0.117125
0.111742
0.106
0.0999332
0.0935688
0.086936
0.0800593
0.0729514
0.0656488
0.058136
0.0504675
0.0425703
0.0344784
0.0260644
0.0171732
0.00847247
0.00304955
1.30179
1.15674
1.12007
1.07703
1.03125
0.990357
0.947981
0.904043
0.858118
0.809096
0.756696
0.700857
0.641391
0.578234
0.51146
0.441235
0.367891
0.291863
0.213818
0.13451
0.0549959
-0.0236323
-0.0999985
-0.172714
-0.240271
-0.301237
-0.354282
-0.398321
-0.432567
-0.456615
-0.470472
-0.474547
-0.469589
-0.456622
-0.436849
-0.41155
-0.381996
-0.349392
-0.314824
-0.27925
-0.24348
-0.208164
-0.173829
-0.140865
-0.109564
-0.0801207
-0.0526632
-0.0272531
-0.00389983
0.0174072
0.0367151
0.0540943
0.0696237
0.0833908
0.0954874
0.106013
0.115057
0.122707
0.12906
0.134194
0.138201
0.141152
0.14313
0.144195
0.144419
0.143861
0.142578
0.140622
0.138043
0.134894
0.131212
0.127038
0.122412
0.117371
0.111949
0.106181
0.100089
0.0937033
0.0870479
0.0801543
0.0730295
0.0657139
0.058193
0.0505126
0.042611
0.0345072
0.0261331
0.0172474
0.00846732
0.0030279
1.30865
1.1637
1.12719
1.08427
1.0388
0.998282
0.956367
0.91317
0.867845
0.819714
0.768451
0.713913
0.655933
0.594472
0.529627
0.461537
0.390538
0.317053
0.241679
0.165189
0.0884877
0.0126874
-0.0609995
-0.131241
-0.196649
-0.255886
-0.307694
-0.351063
-0.385217
-0.40977
-0.424684
-0.430314
-0.427325
-0.416663
-0.399421
-0.376789
-0.349965
-0.320085
-0.288172
-0.255151
-0.221788
-0.188733
-0.156486
-0.125438
-0.0958766
-0.0680106
-0.0419718
-0.0178282
0.00438938
0.0246904
0.0431068
0.0596996
0.0745309
0.0876816
0.0992383
0.10929
0.117914
0.125201
0.131234
0.136094
0.139858
0.142599
0.144396
0.145299
0.145378
0.144699
0.143307
0.141255
0.138595
0.135369
0.13162
0.127393
0.122721
0.117639
0.11218
0.106374
0.100254
0.0938431
0.0871684
0.0802545
0.0731139
0.0657828
0.0582433
0.0505475
0.0426367
0.0345104
0.0261165
0.0172121
0.00847347
0.00305224
1.31632
1.17139
1.13498
1.09229
1.04707
1.00691
0.965487
0.922915
0.878346
0.831128
0.781019
0.727797
0.671357
0.611665
0.54881
0.482942
0.414385
0.343512
0.270963
0.197354
0.123643
0.0507589
-0.0200929
-0.0877332
-0.150862
-0.208238
-0.258699
-0.301291
-0.335287
-0.360295
-0.376257
-0.383461
-0.382506
-0.37422
-0.359616
-0.339787
-0.315837
-0.288831
-0.259735
-0.229418
-0.198625
-0.167966
-0.137944
-0.108932
-0.0812301
-0.055045
-0.0305186
-0.00773753
0.01327
0.0324919
0.0499512
0.0656955
0.0797817
0.0922798
0.103262
0.112805
0.120991
0.127889
0.133578
0.138136
0.141638