/*--------------------------------*- C++ -*----------------------------------*\
  =========                 |
  \\      /  F ield         | OpenFOAM: The Open Source CFD Toolbox
   \\    /   O peration     | Website:  https://openfoam.org
    \\  /    A nd           | Version:  11
     \\/     M anipulation  |
\*---------------------------------------------------------------------------*/
FoamFile
{
    format      ascii;
    class       volScalarField;
    location    "0.028";
    object      k;
}
// * * * * * * * * * * * * * * * * * * * * * * * * * * * * * * * * * * * * * //

dimensions      [0 2 -2 0 0 0 0];

internalField   nonuniform List<scalar> 
287084
(
0.382994
0.393563
0.397961
0.398985
0.399008
0.398963
0.398804
0.39882
0.399017
0.39902
0.399021
0.399021
0.398877
0.398899
0.399111
0.399006
0.399118
0.399246
0.399129
0.399203
0.39923
0.399155
0.399159
0.399139
0.398944
0.398914
0.399087
0.399169
0.399113
0.39887
0.398929
0.399041
0.398784
0.398854
0.399
0.398972
0.398886
0.398898
0.398997
0.398801
0.398896
0.398976
0.398736
0.398817
0.398953
0.398706
0.398772
0.399004
0.398996
0.398954
0.398955
0.398868
0.398815
0.398869
0.398744
0.398852
0.398925
0.3989
0.398833
0.398886
0.399023
0.398798
0.398881
0.399009
0.398918
0.398911
0.398797
0.398908
0.398984
0.398955
0.398869
0.398872
0.399
0.398991
0.399002
0.399017
0.399016
0.398857
0.398943
0.398992
0.398978
0.398975
0.398729
0.398752
0.398887
0.39871
0.398811
0.398925
0.398895
0.398807
0.383012
0.393442
0.39795
0.399029
0.399032
0.399044
0.399042
0.399053
0.399027
0.399026
0.39902
0.398858
0.398912
0.399005
0.398752
0.398829
0.398996
0.398891
0.398816
0.398996
0.399256
0.399226
0.399239
0.399225
0.399223
0.399068
0.399151
0.399196
0.39899
0.399055
0.399089
0.398848
0.398927
0.399065
0.398823
0.398872
0.399057
0.398964
0.399029
0.399052
0.398996
0.39881
0.398838
0.399017
0.399024
0.399004
0.398738
0.398787
0.398896
0.398644
0.398683
0.398872
0.398888
0.39889
0.398738
0.398862
0.398972
0.398788
0.398892
0.398976
0.398916
0.398846
0.398897
0.398983
0.39885
0.398917
0.399002
0.39896
0.398827
0.398921
0.399076
0.39904
0.399033
0.398847
0.398932
0.399067
0.398958
0.398972
0.398974
0.39896
0.398912
0.398871
0.398777
0.398804
0.398833
0.398791
0.398675
0.398772
0.398927
0.398679
0.383012
0.393435
0.39794
0.399023
0.39898
0.399111
0.399189
0.399031
0.399107
0.399214
0.399206
0.399202
0.399071
0.398952
0.399012
0.399123
0.399107
0.399105
0.398924
0.398969
0.399166
0.399116
0.399171
0.399183
0.399198
0.399197
0.399063
0.399121
0.399178
0.398966
0.399074
0.399201
0.398976
0.399077
0.399216
0.399008
0.39912
0.399246
0.399115
0.39914
0.399084
0.399049
0.399067
0.399101
0.399082
0.398984
0.399032
0.399068
0.399029
0.399009
0.398855
0.398888
0.398935
0.398825
0.398922
0.398998
0.398757
0.39884
0.398954
0.398939
0.398885
0.398891
0.399047
0.398918
0.399005
0.399039
0.399
0.398891
0.398947
0.399014
0.398864
0.398875
0.398788
0.39887
0.398929
0.39874
0.39885
0.399047
0.398931
0.398922
0.398916
0.398975
0.398984
0.398828
0.398901
0.398972
0.398747
0.398829
0.398891
0.39866
0.383008
0.393447
0.397881
0.399085
0.399104
0.39925
0.399315
0.399239
0.399247
0.399231
0.399229
0.399199
0.399096
0.399098
0.399212
0.399215
0.399157
0.398943
0.399024
0.399182
0.39905
0.399069
0.39901
0.398976
0.398963
0.398971
0.398856
0.398947
0.39914
0.399148
0.399144
0.398877
0.398942
0.399077
0.398843
0.398908
0.399087
0.398914
0.399005
0.399128
0.398996
0.398998
0.39905
0.399037
0.399048
0.399042
0.398806
0.398827
0.398949
0.39886
0.398858
0.398827
0.398836
0.398745
0.398867
0.398992
0.398799
0.398898
0.398983
0.398925
0.39893
0.398849
0.39901
0.399091
0.399046
0.399026
0.399039
0.399065
0.399023
0.398963
0.398857
0.398947
0.39901
0.398878
0.398972
0.399101
0.399114
0.399067
0.399012
0.399001
0.398801
0.398894
0.398984
0.398962
0.398957
0.398762
0.39885
0.398913
0.398874
0.398758
0.383008
0.393442
0.397885
0.399127
0.399233
0.399197
0.399088
0.399172
0.399241
0.399093
0.399151
0.399166
0.399132
0.399118
0.399037
0.399057
0.399054
0.398874
0.398855
0.39902
0.398994
0.399151
0.399256
0.39914
0.399175
0.399128
0.39897
0.399056
0.399168
0.398923
0.398949
0.399119
0.399012
0.399119
0.399235
0.399096
0.399166
0.399186
0.399164
0.399158
0.398943
0.398988
0.399047
0.399024
0.399019
0.398841
0.398921
0.398975
0.398812
0.398917
0.399004
0.398752
0.398815
0.398981
0.398805
0.398893
0.39903
0.398946
0.398977
0.398931
0.398785
0.398884
0.399021
0.398795
0.398886
0.398991
0.398768
0.39884
0.399004
0.398817
0.398906
0.399043
0.398981
0.398976
0.398861
0.398959
0.399027
0.398895
0.398898
0.398898
0.398783
0.398883
0.399006
0.398839
0.398941
0.398997
0.39883
0.398935
0.398997
0.398728
0.383
0.393483
0.397822
0.398813
0.398832
0.398717
0.39882
0.398991
0.398978
0.398975
0.39877
0.398879
0.399128
0.398967
0.39908
0.399173
0.399049
0.39906
0.399047
0.399061
0.399014
0.398872
0.398967
0.399081
0.398836
0.398893
0.399089
0.39909
0.399089
0.39893
0.399048
0.399212
0.399112
0.399128
0.399081
0.398895
0.398954
0.399044
0.398792
0.39887
0.399029
0.398806
0.398902
0.399058
0.398845
0.398949
0.399097
0.398982
0.399014
0.398968
0.398821
0.398898
0.39902
0.399005
0.398992
0.398726
0.398722
0.398924
0.398943
0.398902
0.398697
0.398705
0.398948
0.39902
0.398984
0.39894
0.398837
0.398809
0.398947
0.398924
0.399049
0.399107
0.398959
0.399033
0.399061
0.398861
0.398954
0.399044
0.398836
0.398918
0.399025
0.398903
0.398991
0.39903
0.398993
0.398981
0.398998
0.399024
0.398958
0.39874
0.382976
0.393533
0.397816
0.398896
0.398935
0.398773
0.398874
0.398943
0.39879
0.39876
0.398993
0.399536
0.399561
0.399509
0.399514
0.399532
0.399539
0.399457
0.399426
0.399433
0.399459
0.399414
0.399257
0.39929
0.399314
0.39926
0.399097
0.39913
0.399216
0.399189
0.399116
0.399151
0.399218
0.398981
0.399077
0.399211
0.399
0.399093
0.39921
0.399144
0.399135
0.399009
0.399111
0.399178
0.399054
0.399043
0.399051
0.399084
0.399002
0.39896
0.398904
0.398971
0.398992
0.398752
0.398811
0.39899
0.398983
0.398964
0.398712
0.398749
0.398901
0.398728
0.398835
0.39892
0.39888
0.398813
0.398773
0.398838
0.398728
0.398835
0.398905
0.398701
0.398781
0.398996
0.398965
0.398923
0.398734
0.398847
0.39902
0.398909
0.398974
0.398991
0.398847
0.39892
0.399005
0.398991
0.398945
0.398951
0.39898
0.398717
0.383006
0.393453
0.397831
0.399222
0.399585
0.399668
0.399684
0.39969
0.399693
0.399702
0.399664
0.399631
0.399592
0.399562
0.399564
0.399539
0.399451
0.399427
0.399444
0.399438
0.399456
0.399409
0.399258
0.399284
0.399317
0.399262
0.399091
0.399109
0.399184
0.398977
0.399085
0.399216
0.39899
0.39909
0.399224
0.399013
0.399025
0.399302
0.399336
0.399289
0.399283
0.399171
0.399253
0.399303
0.399154
0.399145
0.399226
0.399295
0.39927
0.399248
0.399261
0.399195
0.399146
0.399082
0.398984
0.398987
0.399005
0.398954
0.398798
0.398779
0.399015
0.399081
0.399067
0.399107
0.399058
0.398837
0.398919
0.399001
0.398855
0.398871
0.39882
0.398784
0.398674
0.398735
0.399016
0.399026
0.398958
0.398778
0.398715
0.398944
0.399064
0.398976
0.398974
0.398967
0.398882
0.398774
0.398881
0.398981
0.398928
0.398741
0.38299
0.393509
0.397825
0.398903
0.398992
0.398967
0.398924
0.398869
0.398797
0.398971
0.399519
0.39955
0.399498
0.399506
0.399485
0.399457
0.39943
0.399418
0.399418
0.399378
0.399379
0.399359
0.399299
0.399305
0.399324
0.399278
0.399072
0.399108
0.399193
0.398984
0.399093
0.399221
0.398993
0.399092
0.399224
0.399012
0.39902
0.399286
0.399359
0.39933
0.399331
0.399289
0.399247
0.399197
0.399148
0.399105
0.399089
0.39888
0.398916
0.398969
0.398733
0.398815
0.398894
0.398662
0.398702
0.398944
0.39896
0.398919
0.398697
0.398708
0.398921
0.398953
0.398913
0.39874
0.398697
0.398932
0.399045
0.398994
0.399005
0.399016
0.399002
0.398793
0.398852
0.399082
0.399073
0.399076
0.39905
0.399016
0.398963
0.398961
0.398895
0.398982
0.399084
0.399026
0.399029
0.399019
0.398814
0.398833
0.398918
0.398681
0.382967
0.393555
0.397822
0.398702
0.39898
0.398977
0.398725
0.398742
0.39906
0.399104
0.399043
0.398834
0.398817
0.399103
0.399147
0.399086
0.398879
0.398898
0.399062
0.398953
0.399049
0.399093
0.398918
0.398943
0.399128
0.399131
0.399052
0.399145
0.399221
0.398972
0.399058
0.39921
0.399171
0.399093
0.399095
0.399108
0.399065
0.398947
0.398968
0.398999
0.398739
0.398812
0.398949
0.398712
0.398796
0.398909
0.398672
0.398739
0.398918
0.398806
0.398832
0.398777
0.398739
0.398627
0.398733
0.398873
0.398637
0.398703
0.398874
0.398872
0.39887
0.398642
0.398711
0.398903
0.398859
0.398802
0.398859
0.398927
0.398791
0.398782
0.398781
0.398674
0.398765
0.398892
0.398655
0.398717
0.398938
0.398914
0.398872
0.398665
0.39874
0.398906
0.398897
0.398895
0.398784
0.398711
0.398854
0.399007
0.398962
0.398799
0.382986
0.393493
0.397877
0.398947
0.399056
0.399006
0.398808
0.398817
0.399065
0.399067
0.399072
0.399049
0.399177
0.399252
0.399094
0.399165
0.399267
0.399263
0.399261
0.39914
0.399035
0.399101
0.399211
0.399156
0.398952
0.398978
0.399133
0.399055
0.399049
0.398959
0.399081
0.399233
0.399153
0.399167
0.399115
0.398917
0.398962
0.399035
0.398778
0.398854
0.399006
0.398783
0.398879
0.399033
0.39882
0.398913
0.399052
0.399054
0.399052
0.398809
0.398882
0.398959
0.398731
0.398801
0.398951
0.39892
0.398876
0.398778
0.398831
0.398857
0.398806
0.398639
0.398727
0.398896
0.398857
0.39885
0.398664
0.398731
0.39901
0.398957
0.398971
0.398945
0.399033
0.399067
0.3989
0.398996
0.399089
0.39898
0.399035
0.399062
0.398977
0.399046
0.399064
0.398817
0.398888
0.398995
0.398833
0.398822
0.398819
0.398696
0.382982
0.393511
0.397836
0.399011
0.399093
0.399081
0.39908
0.399011
0.398911
0.398994
0.399478
0.399589
0.399546
0.399559
0.399566
0.399543
0.399461
0.39942
0.399351
0.399395
0.39941
0.399315
0.399387
0.399422
0.399354
0.399122
0.399102
0.39917
0.398958
0.399041
0.399129
0.398876
0.398955
0.399085
0.398838
0.398916
0.399066
0.398838
0.39893
0.399076
0.398858
0.398958
0.399098
0.398981
0.399011
0.398964
0.398814
0.398897
0.398964
0.398956
0.398955
0.39886
0.398754
0.398815
0.398909
0.398805
0.398835
0.39884
0.398717
0.398776
0.398939
0.398968
0.398924
0.398863
0.398882
0.398847
0.398724
0.398832
0.398985
0.398976
0.398972
0.398722
0.398795
0.398926
0.398877
0.398867
0.398679
0.398801
0.399006
0.398896
0.398895
0.398814
0.3989
0.398938
0.398853
0.398846
0.398792
0.398904
0.398957
0.398708
0.383006
0.393453
0.39783
0.399219
0.399583
0.399665
0.399686
0.399644
0.399594
0.399612
0.399636
0.39963
0.399596
0.399568
0.399571
0.399548
0.399466
0.399422
0.399389
0.399373
0.39934
0.399331
0.399342
0.399357
0.399381
0.399321
0.399113
0.399158
0.399239
0.399018
0.39912
0.399239
0.399049
0.399017
0.399241
0.399304
0.399291
0.399287
0.39911
0.39918
0.39926
0.399165
0.399159
0.399094
0.399167
0.3992
0.399162
0.399115
0.399039
0.399044
0.399057
0.399017
0.398824
0.398904
0.399021
0.398979
0.398972
0.398802
0.398927
0.399065
0.399014
0.399007
0.398846
0.398959
0.399055
0.398836
0.398925
0.399007
0.398858
0.398871
0.398819
0.398782
0.398672
0.398733
0.399014
0.399024
0.398959
0.39873
0.398726
0.398938
0.398958
0.398916
0.398754
0.398713
0.398944
0.399071
0.398985
0.398979
0.398965
0.398742
0.382971
0.393536
0.397855
0.398752
0.398764
0.398729
0.398867
0.39905
0.398921
0.39892
0.398919
0.398812
0.398881
0.399048
0.399034
0.399069
0.399032
0.398942
0.398984
0.399212
0.399099
0.399203
0.399334
0.399241
0.399262
0.399267
0.399225
0.399186
0.399171
0.399031
0.399118
0.399241
0.399052
0.399013
0.399229
0.399305
0.399254
0.399255
0.399234
0.39921
0.399187
0.399196
0.399189
0.39917
0.399164
0.399174
0.399134
0.398913
0.398832
0.398899
0.398826
0.398938
0.398995
0.398963
0.398956
0.398786
0.398847
0.39896
0.398918
0.398912
0.398756
0.398839
0.398998
0.398847
0.398833
0.398787
0.398895
0.398941
0.398867
0.398857
0.398739
0.39883
0.399044
0.39889
0.398982
0.399124
0.399026
0.39909
0.399111
0.399077
0.399059
0.398983
0.398941
0.39883
0.39892
0.399067
0.399024
0.39902
0.398962
0.398771
0.383006
0.393452
0.39783
0.39922
0.399583
0.399666
0.399683
0.399689
0.399693
0.399704
0.399668
0.399635
0.399597
0.39957
0.399573
0.39955
0.399472
0.399434
0.399461
0.399475
0.399375
0.39936
0.399422
0.39943
0.399403
0.399137
0.399153
0.399238
0.399094
0.399082
0.399077
0.398949
0.399018
0.399102
0.398842
0.398915
0.399059
0.398827
0.398918
0.39906
0.39884
0.398941
0.399077
0.398973
0.398961
0.398847
0.398934
0.399047
0.399022
0.399032
0.398969
0.398965
0.398988
0.399015
0.398953
0.398796
0.39873
0.399016
0.399167
0.399096
0.399138
0.399214
0.399175
0.399141
0.399116
0.39888
0.39893
0.399001
0.398853
0.398868
0.398818
0.398781
0.39867
0.398732
0.399013
0.399024
0.398958
0.398729
0.398725
0.398937
0.398956
0.398914
0.398709
0.398754
0.39891
0.398839
0.398885
0.398912
0.398868
0.398666
0.38303
0.393396
0.39787
0.399065
0.399115
0.399032
0.399126
0.399185
0.399112
0.399146
0.399105
0.399054
0.398951
0.399049
0.399148
0.399096
0.398911
0.398918
0.399078
0.399062
0.399086
0.399058
0.399143
0.399168
0.399023
0.399102
0.399208
0.398958
0.399001
0.399181
0.399189
0.399153
0.399199
0.399231
0.399069
0.399075
0.399002
0.398965
0.398953
0.398794
0.398848
0.39894
0.39869
0.398743
0.398928
0.398744
0.398829
0.399044
0.399028
0.398986
0.398992
0.398944
0.398792
0.398963
0.399353
0.399364
0.399392
0.399364
0.399314
0.399288
0.399242
0.399247
0.399272
0.399294
0.399251
0.399211
0.39915
0.398957
0.399004
0.399058
0.398821
0.398907
0.398995
0.398988
0.398987
0.398873
0.398901
0.398907
0.398791
0.398873
0.399058
0.399023
0.398981
0.398809
0.39891
0.398996
0.398904
0.398897
0.398881
0.398725
0.383025
0.39342
0.397789
0.399197
0.399575
0.399664
0.399684
0.39969
0.399694
0.399705
0.399669
0.399636
0.399652
0.399623
0.399547
0.399506
0.399508
0.399436
0.399455
0.399463
0.399267
0.399322
0.399371
0.399322
0.399275
0.399285
0.399296
0.399036
0.399096
0.399192
0.399183
0.399175
0.398903
0.398961
0.399019
0.39901
0.399003
0.398738
0.398807
0.398941
0.398699
0.398779
0.398939
0.398906
0.398897
0.398681
0.398765
0.39895
0.398929
0.398931
0.398895
0.398866
0.398759
0.399007
0.399258
0.399179
0.399242
0.399264
0.399193
0.399236
0.399244
0.399177
0.399193
0.39916
0.399073
0.399055
0.399048
0.398883
0.398938
0.398986
0.398859
0.398854
0.398878
0.398872
0.398674
0.39872
0.398929
0.398897
0.398895
0.398895
0.398795
0.398866
0.399017
0.398926
0.398964
0.398977
0.398909
0.398982
0.399004
0.398736
0.383007
0.393452
0.39783
0.399221
0.399586
0.399668
0.399685
0.39969
0.399695
0.399703
0.399717
0.399681
0.399649
0.399666
0.399639
0.399564
0.399524
0.399525
0.399504
0.399437
0.399455
0.39947
0.399385
0.399381
0.39936
0.399153
0.399183
0.399267
0.399049
0.399133
0.399182
0.398936
0.399011
0.399101
0.398839
0.39891
0.399046
0.398812
0.398901
0.399041
0.39882
0.398908
0.399072
0.398983
0.399
0.398946
0.398926
0.398917
0.398921
0.398921
0.398879
0.398822
0.399063
0.39927
0.399181
0.399243
0.399267
0.399196
0.39919
0.39921
0.399215
0.399149
0.399156
0.399109
0.398971
0.399023
0.399046
0.398922
0.398974
0.39905
0.399021
0.398997
0.398772
0.398734
0.39895
0.399015
0.398954
0.398726
0.398757
0.398911
0.39885
0.398942
0.398965
0.398902
0.398748
0.398685
0.398897
0.398989
0.398934
0.398744
0.383025
0.39342
0.397789
0.399197
0.399576
0.399664
0.399683
0.399689
0.399699
0.399663
0.399628
0.399644
0.399614
0.399538
0.399498
0.399499
0.399426
0.399448
0.399457
0.399262
0.399325
0.399384
0.399241
0.399243
0.399239
0.399083
0.399142
0.399235
0.398979
0.399056
0.399207
0.398975
0.399034
0.399138
0.399126
0.399124
0.39906
0.398922
0.3989
0.398915
0.398737
0.398837
0.398922
0.398668
0.398742
0.398853
0.398618
0.398703
0.39886
0.398818
0.39881
0.398624
0.39863
0.399022
0.399289
0.399213
0.399249
0.399319
0.399299
0.399249
0.399248
0.39923
0.399237
0.399173
0.399156
0.399048
0.399087
0.399102
0.399031
0.399034
0.398998
0.398954
0.398956
0.398966
0.398922
0.398781
0.398864
0.398994
0.398996
0.398995
0.398754
0.398837
0.398939
0.39878
0.398861
0.398897
0.398717
0.398807
0.398933
0.39868
0.383025
0.39342
0.397789
0.399226
0.399327
0.399306
0.399311
0.399269
0.399232
0.399261
0.399266
0.399066
0.399068
0.399181
0.399255
0.399215
0.399058
0.398986
0.39902
0.398996
0.399137
0.399407
0.399386
0.399358
0.399123
0.399161
0.399252
0.399
0.399077
0.399176
0.398923
0.399001
0.399119
0.398863
0.398934
0.399071
0.398925
0.398918
0.398906
0.398767
0.398835
0.398921
0.398799
0.398806
0.398803
0.398765
0.398728
0.398673
0.398669
0.399028
0.399432
0.399527
0.39955
0.399557
0.39956
0.399566
0.399523
0.399484
0.399459
0.399425
0.399446
0.399458
0.39933
0.399313
0.399326
0.399298
0.399314
0.399277
0.39915
0.399143
0.399146
0.399026
0.39909
0.399112
0.399067
0.398938
0.398968
0.39902
0.398871
0.398831
0.39879
0.398839
0.398867
0.398746
0.398816
0.398949
0.39887
0.398901
0.398855
0.398693
0.382998
0.393475
0.397841
0.398867
0.398889
0.398849
0.398732
0.39885
0.398976
0.398738
0.398798
0.399006
0.398831
0.398935
0.399046
0.399022
0.398973
0.39896
0.399202
0.39917
0.399318
0.399424
0.399292
0.399294
0.399291
0.399138
0.399204
0.399297
0.399043
0.399111
0.399253
0.399025
0.399111
0.399235
0.399016
0.399109
0.399186
0.399113
0.399101
0.398962
0.399047
0.399086
0.398975
0.398989
0.398979
0.398903
0.398822
0.398798
0.398724
0.398786
0.398814
0.398646
0.398721
0.398873
0.398794
0.398803
0.398724
0.398697
0.398589
0.398704
0.398855
0.398622
0.398707
0.398852
0.398662
0.398632
0.398735
0.398715
0.398875
0.398999
0.398862
0.398874
0.398869
0.398867
0.398707
0.398743
0.399018
0.399024
0.398958
0.39873
0.398758
0.398911
0.398788
0.398861
0.398883
0.398709
0.398783
0.398933
0.398907
0.398824
0.383007
0.393452
0.39783
0.399222
0.399587
0.399671
0.399642
0.399604
0.399616
0.399583
0.399504
0.399463
0.399462
0.399434
0.399368
0.399386
0.399406
0.399326
0.399304
0.399363
0.399387
0.399339
0.399158
0.399104
0.399193
0.399287
0.399246
0.399019
0.399119
0.399231
0.399197
0.399095
0.399109
0.399127
0.399086
0.399075
0.398885
0.398941
0.398959
0.398849
0.398859
0.398843
0.398673
0.39871
0.398883
0.398789
0.398873
0.398902
0.398878
0.39882
0.398892
0.399321
0.399507
0.399545
0.399555
0.39956
0.399562
0.399568
0.399525
0.399499
0.399509
0.399446
0.39941
0.399405
0.399435
0.399345
0.399352
0.399385
0.399362
0.399392
0.39936
0.399298
0.399177
0.39918
0.399195
0.399097
0.399098
0.399079
0.398899
0.398926
0.399014
0.398807
0.398908
0.399012
0.39886
0.398844
0.398764
0.398857
0.398898
0.398679
0.383006
0.393452
0.397831
0.399221
0.399586
0.399668
0.399685
0.39969
0.399696
0.399707
0.399673
0.399641
0.39966
0.399633
0.399559
0.39952
0.399522
0.399454
0.399478
0.399486
0.399462
0.399399
0.399421
0.399445
0.399388
0.399205
0.399224
0.399305
0.399091
0.399178
0.399232
0.399017
0.399121
0.39924
0.399018
0.399086
0.399226
0.399096
0.399112
0.399187
0.399201
0.39917
0.399138
0.399053
0.399087
0.399093
0.399066
0.399056
0.398931
0.398792
0.3989
0.399359
0.399511
0.399544
0.399553
0.399558
0.399562
0.399565
0.399568
0.399575
0.399531
0.399492
0.399491
0.399467
0.399432
0.399453
0.399479
0.399451
0.399392
0.399365
0.399293
0.399266
0.399243
0.399265
0.399201
0.399179
0.399165
0.39919
0.399137
0.399112
0.399093
0.398918
0.398971
0.399038
0.398814
0.398903
0.398983
0.398985
0.398984
0.398725
0.382987
0.393499
0.397865
0.398822
0.398789
0.398953
0.399046
0.398801
0.398879
0.398988
0.398867
0.39879
0.398893
0.399471
0.399555
0.399475
0.399479
0.399484
0.399494
0.399508
0.399396
0.399435
0.399458
0.399228
0.399297
0.399369
0.399241
0.399257
0.399234
0.39918
0.398985
0.399061
0.399139
0.39887
0.398937
0.399065
0.398869
0.398818
0.399057
0.399147
0.399098
0.399105
0.399083
0.399097
0.39904
0.399007
0.398991
0.399003
0.398987
0.398987
0.398844
0.398857
0.398867
0.398698
0.398686
0.399033
0.399171
0.399101
0.399113
0.399087
0.399099
0.399018
0.399061
0.39912
0.399111
0.399131
0.399052
0.399066
0.399103
0.399075
0.399048
0.398821
0.398787
0.398972
0.398985
0.398992
0.398941
0.399055
0.399102
0.398875
0.398951
0.399014
0.398798
0.398868
0.39891
0.39887
0.398758
0.398807
0.398933
0.398681
0.383006
0.393453
0.397829
0.399237
0.399475
0.39943
0.39943
0.399431
0.399432
0.399457
0.399415
0.399322
0.399278
0.399279
0.399253
0.399252
0.39917
0.399197
0.399233
0.399187
0.399041
0.399102
0.399246
0.399218
0.399191
0.399242
0.399291
0.399015
0.399076
0.399185
0.399148
0.399037
0.399053
0.399073
0.399019
0.398999
0.398722
0.398775
0.39892
0.398686
0.398767
0.398869
0.398626
0.398709
0.398829
0.398585
0.398639
0.398827
0.398652
0.398721
0.398822
0.398797
0.398793
0.398619
0.3987
0.398873
0.39886
0.398821
0.398851
0.3989
0.398863
0.398759
0.39876
0.39884
0.398626
0.398711
0.398885
0.398653
0.398736
0.398872
0.398838
0.39876
0.398816
0.398943
0.398795
0.398782
0.398779
0.398779
0.398642
0.398721
0.398895
0.398905
0.398906
0.398669
0.398756
0.398888
0.39865
0.398734
0.398882
0.398643
0.383006
0.393452
0.39783
0.399222
0.399587
0.399669
0.399684
0.399693
0.399655
0.399621
0.399637
0.399607
0.39953
0.39949
0.399492
0.39942
0.399411
0.399439
0.399416
0.399445
0.39947
0.39948
0.399453
0.399381
0.399137
0.399171
0.399268
0.399015
0.399093
0.399193
0.398928
0.398994
0.399084
0.398809
0.398811
0.399031
0.399047
0.398996
0.398757
0.398807
0.398911
0.398851
0.398837
0.398641
0.398731
0.398937
0.398775
0.398876
0.398949
0.398901
0.39875
0.398781
0.398848
0.398597
0.398648
0.39884
0.398688
0.398787
0.398856
0.398649
0.398698
0.398926
0.398931
0.398921
0.398704
0.398758
0.398897
0.398661
0.398738
0.398877
0.398643
0.398716
0.398932
0.398927
0.398911
0.398684
0.398756
0.398887
0.398671
0.398752
0.398915
0.398731
0.398825
0.398896
0.398859
0.398751
0.398794
0.398923
0.398906
0.398846
0.383006
0.393452
0.39783
0.399221
0.399585
0.399668
0.399684
0.399691
0.399697
0.399705
0.399717
0.399685
0.399655
0.399675
0.399651
0.399578
0.399539
0.399542
0.399477
0.3995
0.399518
0.399394
0.399458
0.399495
0.399482
0.399476
0.399267
0.399234
0.399293
0.399304
0.39926
0.399073
0.399165
0.399254
0.399023
0.399111
0.399184
0.399093
0.39908
0.39895
0.398984
0.399104
0.399077
0.399035
0.398868
0.398911
0.398933
0.398892
0.398847
0.398769
0.399064
0.399442
0.399528
0.399547
0.399553
0.399557
0.399561
0.399565
0.399567
0.399574
0.399532
0.399492
0.399497
0.399475
0.399389
0.399399
0.399423
0.399393
0.399375
0.399361
0.399297
0.399274
0.399252
0.399219
0.399184
0.399062
0.399097
0.399114
0.399069
0.398941
0.39897
0.399017
0.399002
0.399002
0.398967
0.398953
0.398708
0.398779
0.398924
0.398676
0.383006
0.393452
0.397831
0.399221
0.399587
0.399669
0.399685
0.399692
0.399697
0.399708
0.399674
0.399642
0.399661
0.399635
0.399559
0.39952
0.399522
0.399455
0.39948
0.399491
0.39938
0.399341
0.399397
0.399421
0.399366
0.399177
0.399231
0.399314
0.399068
0.399144
0.39927
0.399037
0.399125
0.399241
0.399018
0.399086
0.399226
0.399096
0.399113
0.39919
0.399201
0.39917
0.399138
0.399054
0.399087
0.399093
0.399066
0.399057
0.398932
0.398793
0.3989
0.399359
0.399512
0.399546
0.399555
0.399551
0.399511
0.39948
0.399447
0.399408
0.399414
0.399436
0.39944
0.399377
0.399353
0.399278
0.399246
0.399256
0.399273
0.399176
0.399192
0.399201
0.399145
0.398957
0.398991
0.39906
0.398856
0.398944
0.399079
0.398997
0.399
0.399013
0.399006
0.398969
0.398956
0.398906
0.398751
0.398841
0.398915
0.398668
0.383007
0.393452
0.39783
0.399221
0.399586
0.399671
0.399641
0.399605
0.399617
0.399583
0.399503
0.399462
0.399461
0.399432
0.399386
0.399365
0.399353
0.399371
0.399383
0.399365
0.399343
0.399277
0.399055
0.399094
0.399254
0.399251
0.399225
0.399267
0.39931
0.39925
0.399245
0.399188
0.399172
0.399132
0.399094
0.39886
0.398909
0.398988
0.398878
0.398913
0.398925
0.398877
0.39867
0.398708
0.398888
0.398769
0.39886
0.398904
0.398877
0.398838
0.3989
0.399324
0.399507
0.399545
0.399558
0.399518
0.39948
0.39944
0.3994
0.399408
0.399374
0.399386
0.399411
0.399394
0.399389
0.399225
0.399243
0.399281
0.399158
0.399216
0.399232
0.3992
0.399192
0.399009
0.399066
0.399149
0.399081
0.399073
0.39897
0.398958
0.398956
0.398843
0.398927
0.399006
0.398779
0.398873
0.398974
0.398963
0.398958
0.398698
0.382998
0.393475
0.39784
0.398866
0.39894
0.398896
0.398741
0.398733
0.39896
0.399084
0.399033
0.398851
0.398862
0.399022
0.399039
0.399046
0.399024
0.398958
0.399015
0.399281
0.399152
0.399279
0.399379
0.3992
0.399299
0.399352
0.399138
0.399213
0.399316
0.399252
0.399238
0.399057
0.399151
0.399249
0.399022
0.399075
0.399259
0.399254
0.39921
0.399173
0.399169
0.399149
0.399117
0.399123
0.399134
0.399073
0.398959
0.398829
0.398801
0.398712
0.398692
0.398687
0.398698
0.398589
0.398694
0.398841
0.398607
0.398623
0.398867
0.398935
0.398881
0.398671
0.398682
0.398976
0.398999
0.398972
0.398967
0.398832
0.398781
0.398967
0.399009
0.399128
0.399189
0.399081
0.399094
0.399084
0.399102
0.399054
0.39888
0.39891
0.399025
0.398865
0.398907
0.399078
0.399088
0.399073
0.398851
0.398887
0.398924
0.398671
0.38303
0.393395
0.397876
0.399024
0.399083
0.399028
0.399116
0.399176
0.399038
0.399038
0.399034
0.398887
0.398947
0.39907
0.399059
0.399059
0.39884
0.398944
0.399167
0.399089
0.399163
0.399198
0.399145
0.399154
0.399069
0.399139
0.399243
0.39899
0.399063
0.399221
0.398987
0.399048
0.399217
0.399201
0.399194
0.399022
0.399092
0.399126
0.399062
0.398858
0.398861
0.398914
0.398873
0.398869
0.398801
0.398804
0.398784
0.398686
0.398776
0.398982
0.39879
0.398894
0.398998
0.398829
0.398799
0.399069
0.399238
0.399181
0.399205
0.399206
0.399218
0.399104
0.399132
0.399144
0.39909
0.399086
0.399058
0.398992
0.398974
0.399025
0.399018
0.398997
0.398773
0.398736
0.398953
0.399015
0.398953
0.398726
0.398754
0.398908
0.398745
0.398823
0.398857
0.398802
0.398812
0.398739
0.398797
0.39887
0.398821
0.398652
0.38303
0.393396
0.39787
0.399063
0.399117
0.399025
0.399112
0.399182
0.399043
0.399039
0.399036
0.398888
0.398947
0.399068
0.399073
0.399075
0.398838
0.398911
0.399202
0.39922
0.399214
0.398996
0.399061
0.399187
0.398947
0.399034
0.399208
0.398973
0.399053
0.399215
0.398991
0.39908
0.399166
0.399131
0.39912
0.398901
0.398963
0.399059
0.399007
0.398838
0.398825
0.398884
0.398665
0.398747
0.39886
0.398836
0.398832
0.398682
0.39881
0.399331
0.399352
0.399258
0.399294
0.399363
0.399327
0.399286
0.399184
0.399235
0.39928
0.399238
0.399233
0.399152
0.399152
0.399141
0.39916
0.399167
0.399134
0.399109
0.399116
0.399107
0.398914
0.398953
0.399006
0.398992
0.398992
0.398958
0.398945
0.398701
0.398751
0.398919
0.398781
0.398766
0.398756
0.398765
0.398652
0.398755
0.398897
0.398877
0.39887
0.39863
0.383006
0.393452
0.39783
0.399221
0.399585
0.399668
0.399685
0.399691
0.399695
0.399703
0.399713
0.399681
0.399648
0.399666
0.399639
0.399564
0.399524
0.399525
0.399503
0.399438
0.399456
0.399471
0.399385
0.399381
0.399361
0.399162
0.399206
0.399286
0.399038
0.399125
0.399264
0.399036
0.399045
0.39918
0.399178
0.399112
0.399185
0.399257
0.399061
0.399148
0.399258
0.399178
0.399215
0.399282
0.39925
0.39918
0.399173
0.399086
0.399039
0.398975
0.398819
0.398757
0.399008
0.399254
0.399146
0.399223
0.39925
0.39916
0.399157
0.399139
0.399158
0.399136
0.399156
0.39911
0.398971
0.399017
0.399035
0.398917
0.398973
0.39905
0.399022
0.398998
0.398772
0.398735
0.398951
0.399015
0.398953
0.398773
0.398712
0.398942
0.399061
0.398973
0.398971
0.398965
0.39888
0.398771
0.398879
0.398981
0.398928
0.398741
0.383025
0.39342
0.397789
0.399198
0.399578
0.399665
0.399684
0.399689
0.399696
0.399703
0.399714
0.399679
0.399646
0.399664
0.399637
0.399562
0.399521
0.399523
0.399451
0.399447
0.399473
0.399437
0.39946
0.399482
0.39949
0.39945
0.399349
0.399326
0.399264
0.399064
0.399144
0.399253
0.39906
0.399006
0.399205
0.399284
0.399265
0.399259
0.399081
0.399155
0.399243
0.399126
0.39915
0.399093
0.399084
0.399107
0.399049
0.399076
0.399099
0.399096
0.399091
0.39889
0.398841
0.398976
0.39899
0.399116
0.399163
0.398988
0.398997
0.399262
0.399319
0.399266
0.39928
0.399299
0.399323
0.399283
0.399141
0.399111
0.399123
0.399143
0.39912
0.399125
0.39914
0.399088
0.399078
0.398888
0.398928
0.398984
0.398977
0.398975
0.398755
0.398854
0.398972
0.398757
0.398855
0.39896
0.398728
0.398809
0.398936
0.398682
0.383025
0.39342
0.397789
0.399226
0.39933
0.39929
0.399284
0.399125
0.399212
0.399272
0.399115
0.399164
0.399178
0.399031
0.399092
0.399116
0.398898
0.398886
0.399147
0.399227
0.399173
0.398986
0.399035
0.399153
0.398915
0.399003
0.399182
0.398954
0.399042
0.399155
0.399127
0.399044
0.399034
0.399144
0.399156
0.399133
0.398853
0.398895
0.398986
0.398732
0.398807
0.398964
0.39876
0.398848
0.39891
0.398885
0.39882
0.398865
0.39897
0.398909
0.398899
0.398737
0.398751
0.399142
0.39926
0.399153
0.399212
0.399291
0.399246
0.399093
0.39913
0.399222
0.399157
0.399206
0.399289
0.399282
0.399255
0.399233
0.399022
0.399064
0.399145
0.399019
0.399012
0.399005
0.399026
0.398995
0.398992
0.398863
0.398942
0.399014
0.398929
0.398861
0.398901
0.398935
0.398742
0.398851
0.398973
0.398972
0.39897
0.398697
0.383006
0.393452
0.39783
0.39922
0.399584
0.399666
0.399683
0.399688
0.399693
0.3997
0.399712
0.399676
0.399642
0.39966
0.399631
0.399555
0.399514
0.399527
0.399552
0.399513
0.399432
0.3994
0.399376
0.399187
0.399228
0.399298
0.399091
0.399178
0.399248
0.399198
0.399042
0.399061
0.399125
0.398865
0.398938
0.399081
0.398849
0.398939
0.399078
0.398856
0.398956
0.399089
0.398881
0.398982
0.399089
0.398936
0.399011
0.399105
0.399053
0.399059
0.399061
0.399043
0.398856
0.398865
0.399032
0.399055
0.399058
0.398921
0.399009
0.399136
0.399101
0.398986
0.399032
0.399098
0.398919
0.399006
0.399054
0.398921
0.39902
0.399078
0.399047
0.399036
0.398812
0.398761
0.398915
0.399004
0.398945
0.398724
0.398725
0.39894
0.398959
0.398917
0.39871
0.398754
0.398909
0.398838
0.398884
0.398911
0.398867
0.398664
0.382982
0.393528
0.397827
0.398785
0.398785
0.398785
0.398689
0.398759
0.398896
0.398851
0.398847
0.398731
0.398779
0.399228
0.399447
0.399399
0.399393
0.399394
0.399467
0.399446
0.399353
0.399383
0.399403
0.399381
0.399367
0.399119
0.399151
0.399244
0.399005
0.399096
0.399242
0.39902
0.399005
0.399143
0.399135
0.399262
0.399306
0.399113
0.399204
0.399264
0.399134
0.39915
0.399099
0.39914
0.399163
0.3991
0.398891
0.398917
0.398962
0.398745
0.398818
0.398953
0.398843
0.398881
0.39889
0.398847
0.398726
0.398794