/*--------------------------------*- C++ -*----------------------------------*\
  =========                 |
  \\      /  F ield         | OpenFOAM: The Open Source CFD Toolbox
   \\    /   O peration     | Website:  https://openfoam.org
    \\  /    A nd           | Version:  11
     \\/     M anipulation  |
\*---------------------------------------------------------------------------*/
FoamFile
{
    format      ascii;
    class       volScalarField;
    location    "0.028";
    object      nut;
}
// * * * * * * * * * * * * * * * * * * * * * * * * * * * * * * * * * * * * * //

dimensions      [0 2 -1 0 0 0 0];

internalField   nonuniform List<scalar> 
287084
(
0.000839805
0.000863825
0.000874398
0.000877237
0.000877523
0.000877562
0.000877273
0.000877322
0.000877745
0.000877734
0.000877708
0.000877665
0.000877294
0.000877286
0.000877695
0.000877402
0.000877585
0.000877805
0.000877489
0.000877595
0.000877604
0.000877393
0.000877367
0.0008773
0.00087685
0.000876779
0.000877157
0.00087732
0.000877208
0.000876726
0.000876959
0.000877293
0.000876814
0.000877061
0.000877476
0.000877517
0.00087743
0.000877561
0.000877881
0.00087755
0.000877853
0.000878122
0.000877678
0.000877935
0.000878306
0.000877826
0.000878029
0.000878593
0.000878619
0.000878564
0.000878597
0.000878431
0.000878322
0.000878447
0.000878157
0.000878364
0.00087852
0.000878477
0.000878334
0.000878441
0.000878722
0.000878217
0.000878399
0.000878663
0.00087846
0.000878451
0.000878181
0.000878433
0.000878609
0.000878532
0.000878341
0.000878335
0.000878617
0.000878592
0.000878605
0.000878621
0.000878629
0.000878289
0.000878456
0.000878572
0.000878554
0.000878526
0.000877991
0.00087805
0.000878333
0.000877946
0.00087817
0.000878419
0.000878351
0.000878125
0.00118689
0.00121961
0.00123387
0.00123746
0.00123752
0.00123759
0.0012376
0.00123762
0.00123752
0.00123747
0.0012374
0.00123682
0.00123692
0.00123712
0.00123625
0.0012364
0.00123683
0.00123641
0.0012361
0.00123658
0.00123731
0.00123716
0.00123714
0.00123707
0.00123704
0.00123656
0.00123682
0.00123698
0.00123639
0.00123666
0.00123685
0.00123621
0.00123656
0.00123712
0.0012365
0.0012368
0.00123752
0.00123738
0.00123772
0.00123794
0.0012379
0.00123745
0.00123766
0.00123832
0.00123845
0.00123848
0.00123773
0.00123796
0.00123836
0.00123763
0.00123779
0.00123842
0.0012385
0.00123853
0.00123806
0.00123845
0.0012388
0.00123823
0.00123855
0.00123881
0.00123862
0.00123839
0.00123854
0.00123882
0.00123838
0.00123859
0.00123885
0.0012387
0.00123828
0.00123857
0.00123904
0.00123891
0.00123889
0.0012383
0.00123855
0.00123897
0.00123862
0.00123866
0.00123867
0.0012386
0.00123846
0.00123833
0.00123803
0.00123811
0.0012382
0.00123806
0.0012377
0.001238
0.00123848
0.0012377
0.00118696
0.00121976
0.00123399
0.00123754
0.00123744
0.00123786
0.0012381
0.00123759
0.00123778
0.00123806
0.00123797
0.00123789
0.0012374
0.00123695
0.00123704
0.0012373
0.00123716
0.00123706
0.00123641
0.00123647
0.00123701
0.00123679
0.00123691
0.00123691
0.00123693
0.00123691
0.00123651
0.00123673
0.00123696
0.00123638
0.00123679
0.00123728
0.0012367
0.00123715
0.00123772
0.00123722
0.00123772
0.00123826
0.001238
0.00123822
0.00123818
0.00123821
0.00123838
0.0012386
0.00123864
0.00123843
0.00123866
0.00123884
0.00123879
0.00123878
0.00123834
0.00123848
0.00123866
0.00123834
0.00123866
0.00123891
0.00123817
0.00123843
0.00123879
0.00123875
0.00123857
0.00123859
0.00123907
0.00123866
0.00123892
0.00123902
0.00123889
0.00123854
0.0012387
0.0012389
0.00123842
0.00123845
0.00123816
0.00123841
0.00123858
0.00123799
0.00123832
0.00123892
0.00123855
0.00123852
0.00123849
0.00123867
0.00123869
0.0012382
0.00123842
0.00123864
0.00123793
0.00123818
0.00123837
0.00123764
0.00118697
0.00121993
0.001234
0.00123789
0.00123795
0.00123838
0.00123855
0.00123827
0.00123824
0.00123813
0.00123806
0.00123788
0.00123748
0.00123739
0.00123766
0.00123757
0.00123729
0.00123654
0.0012367
0.0012371
0.00123662
0.00123661
0.00123637
0.00123622
0.00123616
0.00123618
0.00123584
0.00123615
0.00123681
0.00123691
0.00123698
0.00123626
0.00123658
0.00123714
0.00123656
0.00123691
0.00123762
0.00123724
0.00123768
0.0012382
0.00123794
0.00123808
0.00123836
0.00123843
0.00123857
0.00123864
0.00123799
0.00123812
0.00123856
0.00123834
0.00123838
0.00123831
0.00123837
0.00123811
0.00123851
0.00123891
0.00123832
0.00123864
0.0012389
0.00123872
0.00123873
0.00123847
0.00123896
0.00123921
0.00123906
0.00123899
0.00123902
0.00123909
0.00123894
0.00123874
0.0012384
0.00123867
0.00123886
0.00123844
0.00123872
0.00123911
0.00123914
0.00123899
0.00123881
0.00123877
0.00123814
0.00123842
0.00123869
0.00123862
0.0012386
0.00123798
0.00123825
0.00123845
0.00123832
0.00123794
0.00118699
0.00121998
0.00123409
0.0012381
0.00123842
0.00123827
0.00123788
0.00123809
0.00123825
0.00123772
0.00123782
0.00123778
0.00123759
0.00123745
0.0012371
0.00123706
0.00123696
0.0012363
0.00123615
0.00123657
0.0012364
0.00123682
0.00123708
0.00123668
0.00123676
0.00123661
0.00123614
0.00123644
0.00123685
0.00123617
0.00123635
0.00123699
0.00123679
0.00123726
0.00123778
0.00123751
0.00123788
0.00123811
0.0012382
0.00123833
0.00123781
0.00123808
0.00123839
0.00123843
0.00123852
0.00123806
0.00123838
0.00123862
0.00123817
0.00123855
0.00123886
0.00123811
0.00123833
0.00123887
0.00123834
0.00123863
0.00123906
0.0012388
0.00123889
0.00123875
0.00123829
0.00123859
0.00123901
0.0012383
0.00123857
0.00123888
0.00123818
0.00123839
0.00123889
0.00123829
0.00123856
0.00123897
0.00123877
0.00123874
0.00123838
0.00123867
0.00123887
0.00123845
0.00123846
0.00123845
0.00123808
0.00123838
0.00123876
0.00123824
0.00123855
0.00123872
0.00123819
0.00123852
0.0012387
0.00123785
0.00118696
0.00122013
0.00123395
0.00123718
0.00123723
0.00123683
0.00123709
0.00123756
0.00123745
0.00123736
0.00123664
0.00123689
0.00123756
0.00123697
0.00123721
0.0012374
0.00123691
0.00123684
0.0012367
0.00123665
0.00123642
0.0012359
0.00123613
0.00123644
0.00123566
0.00123582
0.00123645
0.00123649
0.00123655
0.00123614
0.00123661
0.00123725
0.00123708
0.00123728
0.0012373
0.00123689
0.00123725
0.0012377
0.00123708
0.00123748
0.00123812
0.00123756
0.00123799
0.00123859
0.00123803
0.00123844
0.00123898
0.00123869
0.00123884
0.00123875
0.00123833
0.0012386
0.00123901
0.00123898
0.00123895
0.00123813
0.00123812
0.00123875
0.00123881
0.00123868
0.00123803
0.00123805
0.00123879
0.00123901
0.00123888
0.00123873
0.0012384
0.0012383
0.00123872
0.00123863
0.00123901
0.00123918
0.00123871
0.00123892
0.001239
0.00123837
0.00123865
0.00123892
0.00123827
0.00123851
0.00123884
0.00123845
0.00123872
0.00123883
0.00123871
0.00123867
0.00123871
0.00123879
0.00123858
0.00123788
0.00118689
0.0012203
0.00123396
0.00123748
0.00123758
0.00123703
0.00123728
0.00123742
0.00123688
0.0012367
0.00123734
0.00123892
0.0012389
0.00123863
0.00123854
0.00123848
0.0012384
0.00123803
0.00123783
0.00123775
0.00123773
0.00123752
0.00123696
0.00123702
0.00123706
0.00123689
0.0012364
0.00123654
0.00123688
0.00123689
0.00123678
0.00123702
0.00123739
0.00123682
0.00123729
0.00123788
0.00123741
0.00123788
0.00123841
0.00123837
0.0012385
0.00123825
0.00123869
0.00123902
0.00123874
0.00123879
0.00123889
0.00123906
0.00123886
0.00123878
0.00123863
0.00123887
0.00123896
0.00123823
0.00123842
0.00123898
0.00123896
0.0012389
0.00123811
0.00123822
0.00123868
0.00123814
0.00123846
0.00123871
0.00123857
0.00123835
0.00123821
0.0012384
0.00123804
0.00123836
0.00123857
0.00123792
0.00123816
0.00123881
0.00123871
0.00123856
0.00123797
0.00123831
0.00123884
0.00123849
0.00123868
0.00123873
0.00123827
0.00123849
0.00123875
0.0012387
0.00123855
0.00123857
0.00123865
0.00123781
0.00118699
0.00122007
0.00123403
0.00123851
0.00123963
0.00123983
0.00123982
0.00123975
0.00123969
0.00123962
0.00123941
0.00123921
0.00123898
0.00123877
0.00123866
0.00123846
0.00123808
0.00123788
0.00123782
0.0012377
0.00123765
0.00123742
0.00123688
0.00123691
0.00123699
0.00123681
0.00123629
0.0012364
0.00123671
0.00123617
0.00123663
0.00123719
0.00123665
0.00123714
0.00123775
0.00123729
0.00123752
0.00123857
0.00123885
0.00123888
0.00123902
0.00123882
0.0012392
0.00123947
0.00123911
0.00123917
0.0012395
0.00123978
0.00123975
0.00123973
0.0012398
0.00123961
0.00123948
0.00123929
0.00123899
0.00123901
0.00123906
0.0012389
0.0012384
0.00123833
0.00123906
0.00123925
0.00123919
0.0012393
0.00123914
0.00123843
0.00123868
0.00123891
0.00123845
0.00123848
0.00123831
0.00123818
0.00123783
0.00123801
0.00123887
0.00123889
0.00123867
0.0012381
0.00123789
0.00123859
0.00123896
0.00123868
0.00123867
0.00123864
0.00123837
0.00123803
0.00123836
0.00123867
0.00123849
0.00123789
0.00118694
0.00122025
0.00123403
0.00123754
0.00123781
0.00123768
0.00123747
0.00123722
0.00123691
0.00123736
0.00123896
0.00123895
0.00123867
0.00123857
0.00123838
0.00123817
0.00123796
0.0012378
0.00123768
0.00123744
0.00123734
0.00123719
0.00123692
0.00123689
0.00123691
0.00123676
0.00123614
0.00123631
0.00123666
0.00123612
0.0012366
0.00123716
0.00123663
0.00123714
0.00123776
0.0012373
0.00123753
0.00123856
0.00123898
0.00123907
0.00123924
0.00123926
0.00123926
0.00123922
0.00123917
0.00123912
0.00123915
0.00123856
0.00123872
0.00123892
0.00123821
0.00123849
0.00123875
0.00123804
0.00123816
0.00123891
0.00123895
0.00123882
0.00123812
0.00123814
0.00123879
0.00123887
0.00123873
0.00123818
0.00123803
0.00123874
0.00123908
0.0012389
0.00123892
0.00123894
0.00123888
0.00123822
0.00123839
0.00123909
0.00123905
0.00123905
0.00123895
0.00123884
0.00123867
0.00123865
0.00123844
0.0012387
0.00123901
0.00123882
0.00123882
0.00123878
0.00123814
0.00123819
0.00123845
0.0012377
0.00118687
0.00122039
0.00123402
0.00123693
0.00123778
0.00123772
0.00123686
0.00123684
0.00123773
0.00123777
0.00123747
0.00123671
0.00123654
0.00123729
0.0012373
0.00123698
0.0012362
0.00123613
0.0012365
0.00123604
0.00123623
0.00123627
0.00123564
0.00123565
0.00123619
0.0012362
0.00123598
0.00123633
0.00123666
0.001236
0.00123643
0.00123708
0.00123716
0.00123713
0.00123736
0.00123762
0.00123771
0.00123756
0.00123783
0.00123812
0.00123748
0.00123786
0.00123842
0.0012378
0.00123816
0.0012386
0.00123793
0.00123819
0.0012388
0.00123848
0.00123858
0.00123843
0.00123832
0.00123797
0.0012383
0.00123873
0.00123799
0.00123818
0.0012387
0.00123868
0.00123865
0.00123793
0.00123812
0.0012387
0.00123855
0.00123835
0.00123851
0.00123871
0.00123827
0.00123822
0.0012382
0.00123785
0.00123812
0.00123851
0.00123775
0.00123794
0.00123861
0.00123853
0.00123839
0.00123773
0.00123796
0.00123847
0.00123843
0.00123842
0.00123807
0.00123784
0.00123828
0.00123875
0.0012386
0.00123808
0.00118693
0.0012202
0.0012342
0.00123769
0.00123802
0.00123781
0.00123713
0.00123707
0.00123774
0.00123764
0.00123755
0.00123736
0.00123763
0.00123773
0.0012371
0.00123717
0.00123735
0.00123719
0.00123704
0.00123654
0.00123608
0.00123619
0.00123643
0.0012362
0.00123553
0.00123561
0.00123612
0.00123594
0.00123602
0.00123588
0.00123643
0.0012371
0.00123707
0.00123735
0.00123743
0.00123706
0.00123744
0.00123789
0.00123731
0.00123774
0.0012384
0.00123786
0.0012383
0.00123889
0.00123833
0.0012387
0.0012392
0.00123925
0.00123929
0.00123856
0.00123881
0.00123906
0.00123835
0.00123857
0.00123902
0.00123892
0.00123877
0.00123845
0.0012386
0.00123866
0.00123848
0.00123794
0.00123819
0.0012387
0.00123856
0.00123851
0.00123792
0.00123811
0.00123896
0.00123878
0.0012388
0.0012387
0.00123896
0.00123905
0.00123852
0.00123881
0.00123909
0.00123874
0.0012389
0.00123897
0.0012387
0.0012389
0.00123895
0.00123818
0.00123839
0.00123872
0.00123821
0.00123818
0.00123816
0.00123775
0.00118691
0.00122026
0.00123407
0.00123789
0.00123814
0.00123805
0.00123797
0.00123767
0.00123726
0.00123741
0.00123879
0.00123901
0.00123874
0.00123864
0.00123851
0.00123829
0.00123788
0.0012376
0.00123724
0.00123723
0.00123715
0.00123673
0.00123686
0.0012369
0.00123665
0.00123593
0.0012359
0.00123619
0.00123564
0.00123605
0.00123651
0.00123595
0.00123643
0.00123709
0.00123659
0.00123709
0.00123781
0.00123735
0.00123786
0.00123852
0.00123803
0.0012385
0.00123908
0.00123883
0.00123902
0.00123895
0.00123855
0.00123885
0.0012391
0.00123909
0.0012391
0.00123881
0.00123848
0.00123866
0.00123894
0.0012386
0.00123868
0.00123868
0.00123827
0.00123844
0.00123892
0.00123899
0.00123883
0.00123861
0.00123865
0.00123852
0.00123812
0.00123843
0.00123889
0.00123884
0.00123881
0.00123802
0.00123823
0.00123862
0.00123845
0.00123841
0.00123781
0.00123818
0.00123881
0.00123846
0.00123845
0.00123819
0.00123844
0.00123856
0.00123828
0.00123825
0.00123808
0.00123843
0.00123858
0.00123779
0.00118699
0.00122008
0.00123406
0.00123854
0.00123966
0.00123986
0.00123985
0.00123963
0.00123937
0.00123931
0.00123926
0.00123911
0.00123886
0.00123862
0.00123848
0.00123824
0.00123783
0.00123753
0.00123727
0.00123706
0.00123682
0.00123667
0.0012366
0.00123657
0.0012366
0.00123641
0.00123581
0.00123603
0.00123641
0.00123589
0.00123642
0.00123702
0.0012367
0.00123688
0.00123786
0.00123833
0.00123857
0.00123881
0.0012385
0.00123893
0.00123938
0.00123925
0.00123937
0.00123928
0.0012396
0.00123978
0.00123972
0.00123962
0.00123941
0.00123944
0.00123949
0.00123937
0.00123876
0.001239
0.00123934
0.00123919
0.00123915
0.0012386
0.00123896
0.00123936
0.00123918
0.00123913
0.0012386
0.00123893
0.00123921
0.0012385
0.00123875
0.00123899
0.00123851
0.00123853
0.00123834
0.00123821
0.00123785
0.00123803
0.00123888
0.0012389
0.00123869
0.00123796
0.00123794
0.00123859
0.00123864
0.00123851
0.00123799
0.00123786
0.00123857
0.00123896
0.00123869
0.00123866
0.00123861
0.0012379
0.00118688
0.00122034
0.00123414
0.0012371
0.00123712
0.00123696
0.0012373
0.00123777
0.00123727
0.00123715
0.00123702
0.00123654
0.00123661
0.00123697
0.00123676
0.0012367
0.00123641
0.00123596
0.00123592
0.00123647
0.00123596
0.00123615
0.00123644
0.00123607
0.0012361
0.00123611
0.00123602
0.00123599
0.00123609
0.00123585
0.00123634
0.00123698
0.00123668
0.00123686
0.00123784
0.00123838
0.00123851
0.00123879
0.00123898
0.00123913
0.00123925
0.00123945
0.00123957
0.00123963
0.0012397
0.0012398
0.00123973
0.00123908
0.00123885
0.00123907
0.00123885
0.00123919
0.00123935
0.00123923
0.00123919
0.00123864
0.0012388
0.00123913
0.00123897
0.00123892
0.0012384
0.00123863
0.0012391
0.0012386
0.00123853
0.00123836
0.00123867
0.00123879
0.00123854
0.00123849
0.0012381
0.00123837
0.00123902
0.00123852
0.00123879
0.00123922
0.0012389
0.00123909
0.00123914
0.00123902
0.00123896
0.00123872
0.00123858
0.00123822
0.0012385
0.00123895
0.00123881
0.0012388
0.00123861
0.00123799
0.00118699
0.00122008
0.00123406
0.00123854
0.00123966
0.00123985
0.00123983
0.00123975
0.00123965
0.00123956
0.00123932
0.00123907
0.0012388
0.00123855
0.00123838
0.00123813
0.0012377
0.0012374
0.0012373
0.00123717
0.0012367
0.00123651
0.00123658
0.00123652
0.00123639
0.00123557
0.00123567
0.00123604
0.00123574
0.00123591
0.00123614
0.00123603
0.00123656
0.00123715
0.00123667
0.00123722
0.00123798
0.00123754
0.00123808
0.00123876
0.00123828
0.00123876
0.00123933
0.00123912
0.00123917
0.00123889
0.0012392
0.00123959
0.00123953
0.00123956
0.00123936
0.00123934
0.00123939
0.00123945
0.00123923
0.00123871
0.00123848
0.00123934
0.00123977
0.00123952
0.00123962
0.00123982
0.00123967
0.00123953
0.00123943
0.00123867
0.0012388
0.00123899
0.00123851
0.00123854
0.00123836
0.00123822
0.00123786
0.00123803
0.00123889
0.00123891
0.00123869
0.00123797
0.00123794
0.00123859
0.00123864
0.0012385
0.00123786
0.00123799
0.00123847
0.00123824
0.00123837
0.00123846
0.00123831
0.00123766
0.00118706
0.0012199
0.00123418
0.00123806
0.0012382
0.00123789
0.00123809
0.00123818
0.00123784
0.00123782
0.00123755
0.00123724
0.00123675
0.00123688
0.00123701
0.00123666
0.00123589
0.00123572
0.00123602
0.00123579
0.00123569
0.00123545
0.00123559
0.00123557
0.00123507
0.00123532
0.00123571
0.00123505
0.00123535
0.00123613
0.00123643
0.00123663
0.0012371
0.00123755
0.0012374
0.00123776
0.00123786
0.00123805
0.00123829
0.00123803
0.00123841
0.00123887
0.00123823
0.00123851
0.00123917
0.00123866
0.00123897
0.00123967
0.00123963
0.0012395
0.00123951
0.00123934
0.00123884
0.00123934
0.00124053
0.00124052
0.00124058
0.00124045
0.00124026
0.00124014
0.00123997
0.00123995
0.00123999
0.00124003
0.00123987
0.00123971
0.0012395
0.00123887
0.00123899
0.00123913
0.00123838
0.00123862
0.00123888
0.00123884
0.00123882
0.00123845
0.00123852
0.00123853
0.00123815
0.0012384
0.00123896
0.00123884
0.0012387
0.00123816
0.00123847
0.00123873
0.00123844
0.00123841
0.00123836
0.00123785
0.00118705
0.00121998
0.00123392
0.00123847
0.00123963
0.00123984
0.00123982
0.00123973
0.00123963
0.00123953
0.00123928
0.00123901
0.00123889
0.00123862
0.00123819
0.00123787
0.00123767
0.00123724
0.00123709
0.00123692
0.00123613
0.00123614
0.00123616
0.00123591
0.00123572
0.00123576
0.00123585
0.00123517
0.00123554
0.00123608
0.00123635
0.00123666
0.00123617
0.00123672
0.00123727
0.00123761
0.00123793
0.00123743
0.00123792
0.00123859
0.00123805
0.00123847
0.00123911
0.00123912
0.00123918
0.00123856
0.00123886
0.00123946
0.0012394
0.0012394
0.00123927
0.00123916
0.0012388
0.00123953
0.00124028
0.00123999
0.00124015
0.00124018
0.00123992
0.00124001
0.00124
0.00123975
0.00123977
0.00123963
0.00123933
0.00123924
0.00123919
0.00123865
0.00123879
0.00123892
0.0012385
0.00123847
0.00123852
0.00123848
0.00123785
0.00123797
0.00123861
0.0012385
0.00123848
0.00123847
0.00123815
0.00123836
0.00123882
0.00123853
0.00123864
0.00123867
0.00123846
0.00123868
0.00123874
0.00123788
0.00118699
0.00122008
0.00123405
0.00123854
0.00123966
0.00123985
0.00123981
0.00123973
0.00123962
0.00123951
0.0012394
0.00123913
0.00123885
0.00123872
0.00123843
0.00123799
0.00123765
0.00123743
0.00123716
0.00123674
0.0012366
0.00123648
0.00123608
0.00123597
0.00123586
0.00123522
0.00123539
0.00123578
0.00123531
0.00123583
0.00123629
0.00123588
0.0012365
0.00123717
0.00123675
0.00123735
0.00123813
0.00123773
0.0012383
0.00123899
0.00123852
0.00123897
0.00123962
0.00123945
0.00123959
0.00123948
0.00123945
0.00123944
0.00123945
0.00123944
0.00123928
0.00123908
0.00123979
0.0012404
0.00124008
0.00124023
0.00124026
0.00124
0.00123994
0.00123995
0.00123993
0.00123968
0.00123967
0.00123949
0.00123902
0.00123915
0.00123919
0.00123878
0.00123891
0.00123912
0.00123901
0.00123892
0.00123819
0.00123806
0.00123871
0.0012389
0.00123869
0.00123797
0.00123805
0.00123852
0.00123832
0.0012386
0.00123866
0.00123845
0.00123796
0.00123776
0.00123841
0.00123869
0.00123851
0.0012379
0.00118705
0.00121998
0.00123392
0.00123846
0.00123962
0.00123983
0.0012398
0.00123971
0.00123962
0.00123936
0.0012391
0.00123898
0.00123871
0.00123828
0.00123794
0.00123773
0.00123728
0.00123712
0.00123692
0.0012361
0.0012361
0.0012361
0.00123552
0.00123542
0.00123536
0.00123489
0.00123515
0.00123558
0.00123501
0.00123552
0.00123632
0.00123598
0.00123656
0.0012373
0.00123768
0.00123806
0.00123824
0.00123815
0.00123838
0.00123869
0.00123835
0.00123884
0.00123925
0.00123856
0.00123887
0.00123927
0.00123857
0.00123884
0.00123933
0.00123918
0.00123913
0.00123852
0.0012385
0.00123967
0.00124046
0.00124018
0.00124024
0.00124041
0.0012403
0.0012401
0.00124005
0.00123996
0.00123994
0.0012397
0.00123961
0.00123924
0.00123933
0.00123935
0.0012391
0.00123908
0.00123895
0.00123879
0.00123877
0.00123878
0.00123863
0.00123817
0.00123842
0.00123881
0.0012388
0.00123878
0.00123802
0.00123827
0.00123858
0.00123808
0.00123832
0.00123843
0.00123786
0.00123814
0.00123852
0.00123771
0.00118705
0.00121998
0.00123392
0.00123855
0.00123885
0.00123871
0.00123864
0.0012384
0.00123816
0.0012381
0.00123796
0.00123717
0.00123698
0.00123713
0.00123714
0.0012368
0.00123607
0.00123562
0.00123549
0.0012352
0.00123542
0.00123607
0.00123586
0.00123567
0.00123489
0.00123503
0.00123539
0.00123477
0.00123524
0.00123584
0.0012354
0.00123604
0.00123683
0.00123646
0.00123711
0.00123794
0.00123788
0.0012382
0.00123847
0.0012383
0.00123874
0.00123918
0.00123895
0.00123907
0.00123914
0.00123907
0.00123898
0.00123882
0.0012388
0.00123989
0.00124111
0.00124137
0.0012414
0.00124138
0.00124134
0.0012413
0.00124112
0.00124095
0.00124082
0.00124067
0.00124069
0.00124068
0.00124024
0.00124015
0.00124015
0.00124003
0.00124005
0.0012399
0.00123948
0.00123943
0.00123941
0.00123901
0.00123919
0.00123924
0.00123908
0.00123866
0.00123874
0.00123889
0.00123841
0.00123828
0.00123814
0.00123828
0.00123836
0.00123797
0.00123818
0.00123859
0.00123834
0.00123843
0.00123828
0.00123775
0.00118696
0.00122015
0.00123408
0.00123744
0.00123748
0.00123729
0.00123683
0.00123709
0.00123735
0.00123647
0.00123649
0.00123696
0.00123622
0.00123633
0.00123646
0.00123616
0.00123576
0.00123548
0.00123599
0.00123566
0.0012359
0.00123603
0.00123547
0.00123538
0.00123531
0.00123486
0.00123515
0.00123561
0.00123506
0.00123559
0.0012364
0.00123609
0.0012368
0.00123763
0.00123739
0.0012381
0.00123874
0.00123887
0.00123914
0.00123898
0.00123946
0.00123977
0.00123956
0.00123971
0.00123976
0.00123957
0.00123933
0.00123926
0.00123902
0.00123919
0.00123924
0.00123868
0.00123886
0.00123929
0.00123899
0.00123896
0.00123866
0.00123853
0.00123814
0.00123845
0.00123887
0.0012381
0.00123832
0.00123873
0.0012381
0.00123797
0.00123825
0.00123816
0.00123863
0.00123899
0.00123854
0.00123855
0.00123851
0.00123848
0.00123797
0.00123806
0.0012389
0.0012389
0.00123868
0.00123796
0.00123804
0.0012385
0.00123811
0.00123833
0.00123839
0.00123784
0.00123807
0.00123853
0.00123844
0.00123816
0.00118699
0.00122008
0.00123405
0.00123854
0.00123965
0.00123984
0.00123965
0.00123942
0.00123933
0.00123908
0.00123867
0.00123836
0.00123815
0.00123786
0.00123742
0.00123724
0.00123706
0.00123656
0.00123625
0.00123619
0.00123604
0.0012357
0.00123498
0.00123471
0.00123493
0.00123525
0.00123522
0.00123469
0.00123525
0.00123592
0.00123619
0.0012363
0.00123679
0.00123731
0.00123763
0.00123803
0.00123784
0.00123838
0.00123875
0.00123868
0.00123894
0.00123907
0.00123868
0.0012389
0.00123951
0.00123926
0.00123954
0.00123963
0.00123954
0.00123933
0.00123952
0.00124081
0.00124134
0.0012414
0.00124138
0.00124134
0.00124129
0.00124125
0.00124106
0.00124093
0.00124091
0.00124067
0.00124051
0.00124046
0.00124051
0.00124019
0.00124018
0.00124025
0.00124015
0.00124021
0.00124009
0.00123987
0.00123947
0.00123946
0.00123948
0.00123916
0.00123915
0.00123908
0.0012385
0.00123857
0.00123884
0.00123818
0.00123849
0.0012388
0.00123832
0.00123827
0.00123801
0.0012383
0.00123842
0.00123771
0.00118699
0.00122008
0.00123405
0.00123853
0.00123964
0.00123983
0.00123978
0.00123969
0.00123957
0.00123945
0.00123918
0.0012389
0.00123875
0.00123845
0.00123799
0.00123763
0.00123738
0.00123692
0.00123674
0.00123652
0.00123622
0.00123583
0.00123574
0.0012357
0.00123548
0.00123494
0.0012351
0.00123553
0.00123513
0.00123572
0.00123628
0.00123605
0.00123683
0.00123767
0.00123744
0.00123809
0.00123893
0.0012389
0.00123927
0.00123978
0.00124004
0.00124013
0.00124017
0.00124001
0.00124019
0.00124025
0.00124018
0.00124015
0.00123974
0.00123928
0.00123957
0.00124095
0.00124137
0.00124142
0.00124139
0.00124135
0.0012413
0.00124126
0.00124121
0.00124118
0.00124099
0.00124082
0.00124077
0.00124066
0.00124051
0.00124054
0.00124058
0.00124046
0.00124025
0.00124013
0.00123988
0.00123977
0.00123968
0.00123972
0.00123951
0.00123942
0.00123936
0.00123942
0.00123924
0.00123915
0.00123908
0.00123853
0.00123868
0.00123888
0.00123818
0.00123845
0.00123869
0.0012387
0.00123869
0.00123786
0.00118693
0.00122022
0.00123415
0.00123729
0.00123717
0.00123761
0.0012378
0.00123692
0.00123703
0.00123721
0.00123667
0.00123624
0.00123636
0.00123793
0.00123796
0.00123747
0.00123723
0.00123699
0.00123676
0.00123656
0.00123598
0.0012359
0.00123581
0.00123498
0.00123515
0.00123541
0.00123511
0.00123534
0.00123554
0.00123571
0.0012355
0.00123618
0.00123689
0.00123653
0.0012372
0.00123804
0.00123785
0.00123806
0.00123913
0.00123968
0.00123976
0.00123996
0.00124003
0.00124018
0.00124007
0.00124001
0.00123997
0.00124001
0.00123994
0.0012399
0.00123942
0.00123941
0.00123939
0.0012388
0.00123871
0.00123973
0.0012401
0.00123982
0.00123981
0.00123967
0.00123966
0.00123936
0.00123944
0.00123958
0.00123951
0.00123954
0.00123926
0.00123927
0.00123935
0.00123923
0.00123912
0.00123839
0.00123826
0.00123882
0.00123883
0.00123884
0.00123867
0.001239
0.00123913
0.00123842
0.00123864
0.00123883
0.00123815
0.00123835
0.00123848
0.00123834
0.00123798
0.00123814
0.00123852
0.00123771
0.00118699
0.00122008
0.00123404
0.00123858
0.0012393
0.00123908
0.00123899
0.00123887
0.00123874
0.00123867
0.00123837
0.00123789
0.00123755
0.00123733
0.00123702
0.00123677
0.00123626
0.00123608
0.00123594
0.00123554
0.00123486
0.00123484
0.00123513
0.00123493
0.0012348
0.001235
0.00123524
0.00123458
0.00123504
0.00123572
0.001236
0.0012361
0.00123662
0.00123716
0.00123746
0.00123785
0.0012374
0.00123794
0.00123871
0.00123826
0.00123874
0.00123924
0.00123863
0.00123899
0.00123943
0.00123871
0.00123889
0.00123947
0.00123891
0.00123909
0.00123936
0.00123923
0.00123917
0.00123857
0.00123876
0.00123924
0.00123914
0.00123896
0.001239
0.00123909
0.00123893
0.00123855
0.00123851
0.00123872
0.00123801
0.00123823
0.00123874
0.00123798
0.00123821
0.0012386
0.00123847
0.0012382
0.00123835
0.00123873
0.00123825
0.00123819
0.00123816
0.00123815
0.00123771
0.00123794
0.00123847
0.00123849
0.00123848
0.00123774
0.001238
0.00123841
0.00123766
0.00123792
0.00123837
0.0012376
0.00118699
0.00122008
0.00123405
0.00123853
0.00123964
0.00123982
0.00123978
0.00123969
0.00123944
0.00123918
0.00123905
0.00123877
0.00123833
0.00123799
0.00123776
0.00123729
0.00123701
0.00123683
0.0012365
0.00123634
0.00123619
0.00123602
0.00123578
0.00123544
0.00123464
0.00123478
0.00123517
0.00123458
0.00123509
0.00123575
0.00123532
0.00123597
0.00123672
0.00123634
0.00123682
0.00123795
0.00123841
0.00123862
0.00123821
0.00123864
0.00123919
0.00123919
0.00123928
0.00123877
0.00123912
0.0012398
0.00123931
0.00123962
0.00123983
0.00123965
0.00123914
0.00123918
0.00123933
0.0012385
0.0012386
0.00123914
0.0012386
0.00123885
0.00123901
0.00123831
0.00123841
0.00123907
0.00123904
0.00123897
0.00123825
0.00123838
0.00123878
0.00123801
0.00123822
0.00123862
0.00123786
0.00123807
0.00123871
0.00123868
0.00123861
0.00123788
0.00123809
0.00123848
0.0012378
0.00123804
0.00123853
0.00123795
0.00123823
0.00123844
0.00123832
0.00123798
0.00123811
0.0012385
0.00123844
0.00123823
0.00118699
0.00122008
0.00123405
0.00123853
0.00123964
0.00123982
0.00123978
0.00123968
0.00123957
0.00123944
0.00123931
0.00123902
0.00123873
0.00123857
0.00123826
0.00123779
0.00123741
0.00123717
0.00123671
0.00123653
0.00123636
0.00123577
0.00123581
0.00123581
0.00123573
0.00123574
0.00123519
0.00123527
0.00123572
0.00123609
0.00123636
0.00123621
0.00123697
0.00123772
0.00123747
0.00123819
0.00123882
0.00123891
0.0012392
0.00123907
0.0012394
0.00123996
0.00124001
0.00123998
0.00123953
0.00123971
0.00123979
0.00123966
0.0012395
0.00123923
0.0012401
0.00124123
0.00124144
0.00124144
0.0012414
0.00124136
0.00124131
0.00124127
0.00124122
0.00124118
0.001241
0.00124083
0.0012408
0.00124069
0.00124038
0.00124037
0.00124041
0.00124028
0.00124019
0.00124012
0.00123989
0.0012398
0.00123971
0.00123958
0.00123945
0.00123906
0.00123915
0.00123919
0.00123903
0.00123862
0.0012387
0.00123884
0.00123878
0.00123877
0.00123865
0.00123861
0.00123784
0.00123806
0.0012385
0.00123771
0.00118699
0.00122008
0.00123405
0.00123853
0.00123965
0.00123983
0.00123978
0.00123969
0.00123958
0.00123946
0.00123918
0.0012389
0.00123876
0.00123846
0.00123799
0.00123763
0.00123739
0.00123692
0.00123674
0.00123653
0.00123597
0.00123565
0.00123566
0.00123562
0.00123541
0.00123485
0.00123511
0.00123556
0.00123505
0.00123562
0.0012364
0.00123611
0.00123684
0.00123767
0.00123744
0.00123809
0.00123893
0.0012389
0.00123927
0.00123978
0.00124005
0.00124013
0.00124017
0.00124001
0.00124019
0.00124025
0.00124018
0.00124015
0.00123974
0.00123928
0.00123957
0.00124095
0.00124138
0.00124143
0.0012414
0.00124133
0.00124114
0.00124099
0.00124083
0.00124066
0.00124063
0.00124065
0.00124061
0.00124038
0.00124026
0.00123999
0.00123985
0.00123985
0.00123987
0.00123954
0.00123957
0.00123957
0.00123937
0.00123877
0.00123885
0.00123905
0.0012384
0.00123866
0.00123906
0.0012388
0.00123879
0.00123882
0.00123879
0.00123867
0.00123862
0.00123846
0.00123797
0.00123825
0.00123847
0.00123768
0.00118699
0.00122008
0.00123405
0.00123853
0.00123964
0.00123984
0.00123965
0.00123942
0.00123933
0.00123908
0.00123867
0.00123835
0.00123815
0.00123785
0.00123748
0.00123718
0.0012369
0.0012367
0.00123649
0.0012362
0.00123591
0.00123551
0.00123466
0.00123468
0.00123512
0.00123514
0.00123515
0.00123545
0.00123584
0.00123598
0.00123634
0.00123659
0.00123699
0.00123732
0.00123766
0.00123736
0.00123791
0.00123852
0.0012385
0.00123888
0.00123914
0.00123918
0.00123867
0.0012389
0.00123953
0.0012392
0.0012395
0.00123964
0.00123954
0.00123939
0.00123954
0.00124082
0.00124134
0.0012414
0.00124138
0.00124121
0.00124103
0.00124085
0.00124068
0.00124065
0.00124049
0.00124048
0.00124052
0.00124042
0.00124037
0.00123982
0.00123984
0.00123993
0.00123951
0.00123967
0.00123969
0.00123956
0.00123952
0.00123893
0.00123908
0.00123933
0.0012391
0.00123906
0.00123872
0.00123867
0.00123866
0.0012383
0.00123855
0.00123878
0.00123807
0.00123835
0.00123866
0.00123862
0.0012386
0.00123777
0.00118696
0.00122015
0.00123408
0.00123743
0.00123764
0.00123744
0.00123686
0.00123672
0.0012373
0.00123754
0.00123722
0.00123648
0.00123632
0.00123661
0.00123644
0.00123623
0.00123592
0.00123548
0.00123541
0.001236
0.00123538
0.00123559
0.00123574
0.00123508
0.00123534
0.00123552
0.00123495
0.00123535
0.00123591
0.00123602
0.00123634
0.00123619
0.00123692
0.00123767
0.00123741
0.001238
0.00123896
0.0012393
0.00123948
0.00123963
0.00123984
0.00123996
0.00124
0.00124013
0.00124024
0.00124009
0.00123976
0.00123936
0.00123926
0.00123896
0.00123886
0.0012388
0.00123879
0.0012384
0.00123868
0.00123908
0.0012383
0.0012383
0.001239
0.00123916
0.00123895
0.00123825
0.00123824
0.00123911
0.00123915
0.00123903
0.00123898
0.00123853
0.00123834
0.00123889
0.00123899
0.00123934
0.0012395
0.00123915
0.00123917