/*--------------------------------*- C++ -*----------------------------------*\
  =========                 |
  \\      /  F ield         | OpenFOAM: The Open Source CFD Toolbox
   \\    /   O peration     | Website:  https://openfoam.org
    \\  /    A nd           | Version:  11
     \\/     M anipulation  |
\*---------------------------------------------------------------------------*/
FoamFile
{
    format      ascii;
    class       volScalarField;
    location    "0.028";
    object      omega;
}
// * * * * * * * * * * * * * * * * * * * * * * * * * * * * * * * * * * * * * //

dimensions      [0 0 -1 0 0 0 0];

internalField   nonuniform List<scalar> 
287084
(
55.1194
55.8222
56.0896
56.1415
56.1417
56.1407
56.1287
56.1312
56.1463
56.146
56.1461
56.146
56.1343
56.1368
56.153
56.1438
56.1512
56.1592
56.1523
56.1562
56.1574
56.1545
56.1555
56.1516
56.1371
56.1375
56.1488
56.1532
56.1501
56.1319
56.137
56.1444
56.1265
56.1321
56.1419
56.14
56.134
56.136
56.1434
56.1289
56.1355
56.1404
56.124
56.1302
56.1391
56.1219
56.1277
56.1405
56.1417
56.1384
56.1356
56.1291
56.1286
56.1365
56.1259
56.1329
56.137
56.1352
56.1306
56.1351
56.1443
56.1288
56.1349
56.1432
56.1352
56.1344
56.1289
56.1369
56.1412
56.139
56.133
56.135
56.1448
56.1445
56.1454
56.1432
56.1411
56.1323
56.1389
56.1416
56.1403
56.1399
56.1236
56.1263
56.1363
56.1229
56.13
56.1371
56.135
56.1287
55.1205
55.8141
56.0899
56.1481
56.1465
56.1476
56.1473
56.1483
56.1461
56.1462
56.145
56.1323
56.1358
56.1418
56.1243
56.1303
56.1415
56.1318
56.1274
56.1435
56.1603
56.1598
56.1611
56.1566
56.1547
56.1462
56.1524
56.1549
56.1413
56.1454
56.1473
56.131
56.1371
56.1462
56.1294
56.134
56.1473
56.141
56.144
56.1452
56.1418
56.1283
56.1321
56.1454
56.1433
56.1402
56.1231
56.1276
56.1349
56.1174
56.1215
56.1353
56.1341
56.1339
56.125
56.1338
56.1404
56.1283
56.1355
56.1405
56.135
56.1305
56.1354
56.1411
56.1331
56.137
56.1424
56.1395
56.1299
56.1378
56.1479
56.1443
56.1437
56.1322
56.1384
56.1472
56.1409
56.1431
56.1399
56.1352
56.1351
56.1333
56.1267
56.1282
56.13
56.1277
56.1193
56.1272
56.1373
56.1199
55.1204
55.8135
56.0893
56.1477
56.1425
56.1506
56.1549
56.1452
56.15
56.1569
56.1557
56.1549
56.1439
56.1371
56.143
56.1503
56.1483
56.1483
56.137
56.141
56.1553
56.1518
56.1535
56.1535
56.1546
56.1546
56.1472
56.1501
56.1537
56.1396
56.1477
56.1557
56.1403
56.148
56.157
56.143
56.1513
56.1592
56.1483
56.1477
56.1471
56.1479
56.1466
56.1454
56.1439
56.1404
56.1447
56.1467
56.1434
56.1382
56.1308
56.1344
56.1375
56.1316
56.1376
56.1421
56.1256
56.1319
56.1391
56.1374
56.1336
56.1363
56.1481
56.1381
56.1432
56.1448
56.142
56.1343
56.139
56.1431
56.1308
56.1294
56.1266
56.1336
56.137
56.1248
56.1331
56.1461
56.139
56.1394
56.139
56.1406
56.1407
56.1314
56.1358
56.1401
56.1249
56.1307
56.1343
56.1186
55.1202
55.8142
56.0855
56.1528
56.1519
56.1606
56.1638
56.1575
56.1572
56.1559
56.155
56.1522
56.1474
56.1493
56.1543
56.1563
56.153
56.1372
56.1441
56.1545
56.1432
56.142
56.1411
56.1419
56.1411
56.142
56.1326
56.1388
56.1517
56.1513
56.1506
56.1327
56.138
56.1471
56.1309
56.1363
56.1487
56.1367
56.1431
56.151
56.1432
56.1438
56.1479
56.1473
56.1484
56.1474
56.1288
56.1314
56.1403
56.1343
56.135
56.1325
56.1335
56.1261
56.1342
56.1419
56.129
56.136
56.1411
56.1393
56.1402
56.1336
56.1445
56.1488
56.1446
56.1436
56.1449
56.1466
56.1429
56.1351
56.1312
56.1392
56.1428
56.1351
56.1413
56.1463
56.1463
56.1464
56.1421
56.1413
56.1288
56.1355
56.1411
56.1388
56.1384
56.1261
56.1322
56.1359
56.133
56.1248
55.1202
55.8139
56.086
56.1532
56.1582
56.1555
56.1478
56.1545
56.1587
56.1497
56.1525
56.153
56.1501
56.1455
56.1432
56.1484
56.1475
56.1332
56.1335
56.1468
56.1434
56.1534
56.1593
56.1497
56.1496
56.1494
56.1402
56.146
56.1531
56.1362
56.1394
56.152
56.144
56.1509
56.1582
56.1499
56.1537
56.1545
56.1527
56.1523
56.1385
56.1414
56.1452
56.1431
56.1427
56.1318
56.1372
56.1403
56.1302
56.1374
56.1426
56.1252
56.1303
56.1417
56.1296
56.1358
56.1447
56.1374
56.1368
56.1367
56.1284
56.1353
56.1441
56.1285
56.1351
56.1417
56.1265
56.132
56.1429
56.1303
56.1367
56.1456
56.1399
56.1394
56.1336
56.1401
56.144
56.1363
56.1378
56.1374
56.1283
56.135
56.1428
56.132
56.1388
56.1418
56.1314
56.1384
56.1419
56.1232
55.1198
55.8166
56.0798
56.1293
56.1293
56.1232
56.1302
56.1414
56.1395
56.1392
56.126
56.1347
56.1514
56.1405
56.1482
56.1537
56.1465
56.1485
56.1441
56.1415
56.1412
56.1334
56.1398
56.1469
56.13
56.1351
56.1489
56.147
56.1467
56.1373
56.146
56.1566
56.1479
56.1477
56.1472
56.1348
56.1389
56.1448
56.1274
56.1336
56.1442
56.1289
56.1363
56.1465
56.1319
56.1398
56.1493
56.1396
56.1393
56.1392
56.1309
56.1359
56.1439
56.1421
56.1405
56.1229
56.1247
56.1373
56.138
56.1376
56.1216
56.1237
56.1397
56.1401
56.1406
56.1401
56.129
56.1282
56.1426
56.1394
56.1468
56.1497
56.1408
56.145
56.1463
56.1333
56.1398
56.1453
56.1315
56.1373
56.1441
56.137
56.1422
56.1441
56.1409
56.1404
56.1419
56.1436
56.1389
56.1232
55.1182
55.8203
56.0795
56.1357
56.1367
56.1268
56.1335
56.1375
56.1247
56.124
56.1455
56.1786
56.181
56.18
56.1808
56.1789
56.1754
56.173
56.174
56.1717
56.1697
56.1669
56.159
56.1616
56.163
56.1591
56.1476
56.1505
56.1564
56.1545
56.1493
56.1521
56.1566
56.1406
56.148
56.1567
56.1424
56.1493
56.1568
56.1509
56.1504
56.1438
56.1507
56.1546
56.1476
56.1479
56.1457
56.1441
56.1416
56.1419
56.1377
56.1406
56.1415
56.1253
56.1304
56.1429
56.1406
56.1375
56.1215
56.1257
56.1365
56.1242
56.1316
56.1366
56.1338
56.1257
56.1256
56.1342
56.1248
56.1314
56.1354
56.1219
56.1281
56.1391
56.1392
56.1391
56.1243
56.1328
56.144
56.1375
56.1406
56.1412
56.1328
56.1372
56.1425
56.1411
56.1378
56.1388
56.1408
56.1224
55.1201
55.8145
56.0826
56.162
56.1815
56.1857
56.1865
56.1869
56.1871
56.1875
56.1882
56.1855
56.1829
56.1839
56.1814
56.1756
56.1725
56.1728
56.1743
56.1719
56.171
56.1679
56.159
56.1612
56.1632
56.1593
56.1471
56.1493
56.1546
56.1403
56.1483
56.1567
56.1412
56.1488
56.1575
56.1432
56.1457
56.1642
56.1653
56.1647
56.1647
56.1559
56.1606
56.1634
56.1545
56.1548
56.1584
56.1596
56.161
56.1594
56.157
56.1519
56.1483
56.1436
56.1403
56.1411
56.1424
56.1389
56.1278
56.1289
56.1449
56.148
56.1467
56.1461
56.1453
56.1313
56.1373
56.1423
56.1303
56.1291
56.1288
56.1294
56.1208
56.1257
56.143
56.1437
56.1394
56.1226
56.1212
56.1405
56.1469
56.1425
56.1431
56.1415
56.1311
56.1251
56.1348
56.1409
56.137
56.1234
55.1192
55.8185
56.0804
56.1365
56.1375
56.1388
56.1377
56.1302
56.1264
56.1434
56.1775
56.1804
56.1792
56.1803
56.1751
56.1733
56.1744
56.1736
56.1737
56.1672
56.164
56.1623
56.1615
56.1623
56.1636
56.1625
56.1466
56.1492
56.155
56.1407
56.1488
56.157
56.1414
56.149
56.1575
56.1432
56.1454
56.1633
56.1672
56.1646
56.1614
56.1612
56.1593
56.1531
56.1521
56.1521
56.1503
56.1341
56.1365
56.14
56.1239
56.1299
56.1348
56.119
56.1232
56.1378
56.1392
56.1389
56.1215
56.1238
56.1371
56.1388
56.1385
56.1215
56.1202
56.1398
56.1456
56.1442
56.1455
56.143
56.1392
56.127
56.1335
56.1497
56.1492
56.1462
56.1452
56.1459
56.1387
56.1385
56.1366
56.1418
56.1482
56.1463
56.1471
56.1455
56.1294
56.1314
56.1376
56.1201
55.1176
55.8219
56.0789
56.1221
56.1376
56.1396
56.1226
56.1258
56.1473
56.1488
56.1444
56.1293
56.1308
56.1505
56.1516
56.1472
56.1322
56.1356
56.1477
56.1396
56.1452
56.1474
56.1363
56.139
56.153
56.1525
56.1462
56.1519
56.1565
56.1395
56.1463
56.1563
56.1521
56.1471
56.1478
56.1488
56.1458
56.1376
56.1395
56.1416
56.1238
56.1296
56.1387
56.1223
56.1286
56.1359
56.1195
56.1251
56.1374
56.1272
56.1265
56.1259
56.1263
56.1177
56.1247
56.1337
56.1172
56.1225
56.1342
56.1329
56.1325
56.1175
56.1233
56.1365
56.1312
56.1275
56.1327
56.137
56.129
56.1295
56.1295
56.1209
56.1266
56.1348
56.1183
56.1236
56.1354
56.1356
56.1355
56.1193
56.1248
56.1359
56.1344
56.1341
56.1248
56.1209
56.1335
56.143
56.1396
56.1278
55.1188
55.8177
56.0843
56.1397
56.1457
56.1428
56.1281
56.131
56.1502
56.1492
56.1496
56.1476
56.1552
56.1593
56.1494
56.1537
56.1603
56.1593
56.1587
56.1486
56.1425
56.1488
56.156
56.152
56.1371
56.1407
56.152
56.1435
56.1431
56.1394
56.1482
56.1579
56.1509
56.1505
56.1491
56.1361
56.1393
56.1441
56.1265
56.1325
56.1428
56.1274
56.1348
56.1449
56.1303
56.1372
56.1463
56.1458
56.1455
56.1293
56.1347
56.1395
56.124
56.1293
56.1392
56.1362
56.1294
56.1257
56.1306
56.1319
56.1292
56.1169
56.1242
56.1353
56.1314
56.1308
56.1192
56.1255
56.1456
56.1416
56.1432
56.1409
56.1452
56.1468
56.1364
56.1429
56.1486
56.1426
56.145
56.1463
56.1426
56.1458
56.1465
56.1297
56.135
56.1419
56.1316
56.1322
56.1316
56.1219
55.1186
55.8187
56.0816
56.1446
56.1482
56.1468
56.1467
56.1407
56.1344
56.1443
56.1769
56.1835
56.1827
56.1841
56.1819
56.1762
56.1731
56.1734
56.1682
56.1691
56.1697
56.1652
56.1687
56.1705
56.1656
56.1487
56.1496
56.1551
56.1386
56.1445
56.1501
56.1327
56.1389
56.1475
56.1304
56.1366
56.1466
56.1309
56.1381
56.1477
56.1327
56.1403
56.1494
56.1395
56.1392
56.139
56.1304
56.1357
56.1398
56.1388
56.1386
56.1305
56.1241
56.1299
56.136
56.1304
56.1306
56.1307
56.1239
56.1276
56.1354
56.1362
56.1363
56.1317
56.1308
56.1284
56.1223
56.1317
56.1415
56.1401
56.1397
56.1229
56.1286
56.1372
56.1325
56.1318
56.1202
56.1298
56.1432
56.1334
56.1328
56.1299
56.1356
56.1376
56.1337
56.134
56.1297
56.1363
56.1389
56.1219
55.1201
55.8144
56.0825
56.1619
56.1814
56.1856
56.1865
56.1868
56.1863
56.1866
56.1883
56.1857
56.1832
56.1843
56.1821
56.1765
56.1735
56.1735
56.1678
56.167
56.1675
56.167
56.168
56.1658
56.1643
56.1606
56.1481
56.1523
56.1576
56.1428
56.1505
56.1581
56.1422
56.1419
56.1605
56.163
56.1618
56.1615
56.1508
56.1554
56.1606
56.1558
56.1563
56.1512
56.1546
56.1563
56.1537
56.1469
56.1444
56.1453
56.1461
56.1461
56.1309
56.1366
56.1441
56.1401
56.1396
56.1294
56.1387
56.1473
56.1425
56.1419
56.1324
56.1406
56.1463
56.1315
56.1378
56.1428
56.1305
56.1291
56.1287
56.1293
56.1207
56.1256
56.1429
56.1436
56.1393
56.1226
56.1248
56.1381
56.1389
56.1385
56.1224
56.1212
56.1406
56.1474
56.1432
56.1434
56.1414
56.124
55.1178
55.8207
56.0816
56.1277
56.1277
56.1248
56.1339
56.1457
56.1376
56.1387
56.1384
56.1298
56.1345
56.1459
56.1433
56.1431
56.1426
56.1383
56.1421
56.159
56.1496
56.1563
56.1646
56.1597
56.1622
56.1589
56.1559
56.1563
56.1529
56.1428
56.1502
56.1583
56.1424
56.1416
56.1597
56.1631
56.1621
56.1628
56.1578
56.1565
56.158
56.1558
56.1553
56.1571
56.1568
56.1577
56.152
56.1321
56.1298
56.1388
56.1323
56.139
56.142
56.1391
56.1354
56.1265
56.1323
56.1398
56.1358
56.1356
56.1263
56.1321
56.1426
56.1329
56.1331
56.1296
56.1357
56.1379
56.1317
56.1315
56.1253
56.1319
56.1464
56.1358
56.1421
56.1513
56.146
56.1489
56.1498
56.1469
56.1421
56.1366
56.1353
56.1305
56.1377
56.1472
56.1431
56.1429
56.1394
56.1257
55.1201
55.8144
56.0826
56.1619
56.1814
56.1856
56.1864
56.1868
56.1871
56.1876
56.1884
56.1857
56.1833
56.1844
56.1824
56.1768
56.1739
56.1744
56.1736
56.1728
56.1684
56.1686
56.1736
56.1706
56.1657
56.1493
56.1519
56.158
56.1488
56.1493
56.1485
56.1386
56.143
56.1485
56.1306
56.1365
56.1462
56.1302
56.1373
56.1466
56.1316
56.1393
56.148
56.139
56.1386
56.133
56.1387
56.146
56.1435
56.1432
56.1416
56.1428
56.1416
56.1396
56.1359
56.1241
56.1225
56.1467
56.1546
56.1514
56.1526
56.154
56.1543
56.1515
56.1477
56.1333
56.1378
56.1423
56.1301
56.1289
56.1287
56.1292
56.1206
56.1255
56.1428
56.1436
56.1393
56.1225
56.1247
56.138
56.1387
56.1383
56.1224
56.1262
56.1373
56.1329
56.1341
56.1356
56.1347
56.119
55.1217
55.8104
56.0849
56.1484
56.1496
56.146
56.1513
56.1547
56.1486
56.1481
56.1476
56.1432
56.137
56.1458
56.1518
56.148
56.1345
56.137
56.1491
56.1479
56.1499
56.1473
56.1512
56.1521
56.1435
56.1485
56.1552
56.138
56.1423
56.1553
56.1543
56.1518
56.1554
56.1574
56.1444
56.1428
56.1411
56.1419
56.1406
56.1283
56.132
56.1381
56.1208
56.1258
56.1389
56.1254
56.1318
56.1428
56.1441
56.1408
56.138
56.1378
56.129
56.143
56.1691
56.1682
56.1666
56.1642
56.1641
56.1655
56.162
56.1628
56.1617
56.1595
56.156
56.153
56.1494
56.1387
56.1429
56.1463
56.1302
56.1365
56.142
56.1409
56.1409
56.1349
56.1351
56.1352
56.1291
56.1345
56.1432
56.1433
56.1432
56.1298
56.1368
56.1419
56.1373
56.1376
56.1339
56.1224
55.1215
55.8118
56.0797
56.1604
56.181
56.1855
56.1865
56.1869
56.1872
56.1877
56.1885
56.186
56.1838
56.1812
56.1793
56.1795
56.1779
56.1724
56.173
56.1733
56.1606
56.1638
56.1666
56.1621
56.1592
56.1603
56.161
56.1434
56.1479
56.1543
56.1532
56.1526
56.1343
56.1389
56.1426
56.1418
56.1413
56.1236
56.1292
56.1382
56.1215
56.1277
56.1385
56.1351
56.1343
56.1205
56.1271
56.1395
56.137
56.1367
56.1337
56.1286
56.1246
56.1462
56.1617
56.1573
56.16
56.161
56.1583
56.1593
56.1594
56.1541
56.1522
56.1494
56.1468
56.1489
56.1479
56.1349
56.1383
56.1411
56.1339
56.1347
56.1334
56.131
56.1191
56.1241
56.1392
56.1374
56.1376
56.1374
56.1294
56.1339
56.1442
56.1389
56.1397
56.1402
56.1379
56.1413
56.1421
56.1237
55.1202
55.8144
56.0826
56.162
56.1816
56.1857
56.1866
56.1869
56.1873
56.1878
56.1885
56.1892
56.1868
56.1847
56.1822
56.1804
56.1807
56.1792
56.1738
56.171
56.1727
56.1735
56.1698
56.1702
56.1664
56.151
56.1537
56.1596
56.1447
56.1506
56.1535
56.1369
56.1426
56.1485
56.1304
56.1362
56.1453
56.1293
56.1362
56.1454
56.1303
56.1371
56.148
56.1401
56.1399
56.1391
56.14
56.1395
56.1398
56.1389
56.1321
56.1293
56.15
56.1623
56.1574
56.1601
56.1612
56.1586
56.1588
56.1572
56.1567
56.1515
56.1495
56.1492
56.1416
56.1442
56.1453
56.1384
56.1409
56.1458
56.143
56.1386
56.1253
56.1257
56.1404
56.1432
56.1391
56.1224
56.1263
56.1374
56.1338
56.1387
56.1394
56.1352
56.1205
56.1191
56.1369
56.1414
56.1373
56.1236
55.1214
55.8118
56.0796
56.1605
56.181
56.1855
56.1865
56.1869
56.1873
56.1881
56.1855
56.1833
56.1807
56.1787
56.179
56.1776
56.172
56.1725
56.1729
56.1603
56.1641
56.1675
56.1589
56.1603
56.1594
56.1471
56.1509
56.157
56.1394
56.1455
56.1557
56.1398
56.1441
56.1511
56.1499
56.1496
56.144
56.1354
56.1358
56.1373
56.1248
56.1318
56.137
56.1194
56.1251
56.1323
56.1161
56.1227
56.133
56.1289
56.1282
56.1167
56.119
56.148
56.164
56.1598
56.1615
56.1663
56.1661
56.1623
56.1629
56.1582
56.1569
56.152
56.1505
56.1458
56.1486
56.1492
56.1467
56.1476
56.1412
56.1384
56.1388
56.1395
56.1383
56.1276
56.1336
56.142
56.1415
56.1414
56.1253
56.1315
56.1379
56.1279
56.1328
56.1346
56.1232
56.1296
56.1376
56.1199
55.1215
55.8118
56.0798
56.1613
56.1649
56.164
56.161
56.1602
56.1606
56.16
56.1599
56.1471
56.1481
56.1538
56.1556
56.1558
56.1428
56.1391
56.1453
56.1429
56.1524
56.1701
56.1697
56.1654
56.1484
56.152
56.1581
56.1407
56.1466
56.1531
56.1357
56.1418
56.1497
56.132
56.1377
56.1469
56.138
56.139
56.1355
56.1254
56.1314
56.1369
56.13
56.1317
56.1281
56.1254
56.1258
56.1217
56.1219
56.1495
56.172
56.1769
56.1781
56.1785
56.1786
56.1788
56.1791
56.176
56.1746
56.1752
56.174
56.1717
56.1655
56.1658
56.1668
56.163
56.1608
56.1588
56.1529
56.153
56.1533
56.1458
56.149
56.1499
56.1467
56.1376
56.1401
56.1435
56.131
56.1296
56.1296
56.1309
56.1325
56.1258
56.1301
56.1389
56.1319
56.1313
56.1311
56.1215
55.1196
55.8161
56.0815
56.1333
56.1334
56.1334
56.1244
56.1323
56.1401
56.1235
56.1289
56.1436
56.1305
56.1377
56.1446
56.1418
56.1384
56.1403
56.1593
56.1552
56.1645
56.1704
56.1626
56.1639
56.163
56.151
56.1553
56.1613
56.1439
56.1493
56.1589
56.1433
56.1499
56.1581
56.1434
56.1503
56.1551
56.1489
56.1485
56.1409
56.1463
56.1484
56.1426
56.1448
56.1413
56.132
56.1258
56.1241
56.1224
56.1278
56.1292
56.1187
56.1238
56.1339
56.1268
56.1261
56.1234
56.1236
56.1151
56.1229
56.1325
56.1162
56.1227
56.1321
56.116
56.1156
56.1273
56.1247
56.1351
56.1424
56.1341
56.1363
56.1325
56.1295
56.121
56.126
56.143
56.1436
56.1392
56.1226
56.1264
56.1374
56.1288
56.1327
56.1335
56.1227
56.1277
56.1377
56.1358
56.1299
55.1202
55.8144
56.0826
56.1621
56.1816
56.1857
56.1867
56.1839
56.1814
56.1786
56.1765
56.1767
56.1751
56.1693
56.1665
56.1683
56.1695
56.1627
56.1617
56.1665
56.1675
56.166
56.1485
56.1468
56.1546
56.1568
56.157
56.1423
56.1498
56.157
56.1546
56.1476
56.1486
56.15
56.1468
56.146
56.1345
56.1381
56.139
56.1335
56.1353
56.132
56.1193
56.1236
56.1361
56.1297
56.1343
56.1355
56.1338
56.1298
56.1379
56.1672
56.176
56.1778
56.1783
56.1786
56.1788
56.1789
56.1792
56.1782
56.1755
56.1735
56.174
56.1709
56.1692
56.1661
56.1672
56.1695
56.1676
56.1665
56.1642
56.1591
56.1539
56.1548
56.1558
56.151
56.152
56.1481
56.1348
56.1375
56.1436
56.1293
56.1367
56.1432
56.1337
56.1338
56.1275
56.1327
56.1347
56.1201
55.1202
55.8144
56.0826
56.162
56.1816
56.1857
56.1866
56.1869
56.1873
56.1879
56.1887
56.1863
56.1843
56.1819
56.1801
56.1804
56.1792
56.1738
56.1744
56.1746
56.1722
56.1678
56.1699
56.1714
56.1674
56.1543
56.1567
56.1625
56.1476
56.1538
56.157
56.1429
56.1508
56.1585
56.1435
56.1487
56.1582
56.1506
56.1519
56.1576
56.1563
56.1541
56.155
56.1485
56.1488
56.149
56.1467
56.145
56.1347
56.1269
56.1387
56.1686
56.1761
56.1777
56.1782
56.1785
56.1787
56.179
56.1792
56.1794
56.1796
56.1794
56.1764
56.1751
56.1756
56.1746
56.1727
56.1702
56.166
56.164
56.1624
56.1638
56.159
56.1571
56.1559
56.1576
56.1536
56.1518
56.1513
56.1528
56.1492
56.1362
56.1406
56.1448
56.1297
56.1361
56.1409
56.1407
56.1406
56.123
55.1189
55.818
56.0828
56.133
56.1291
56.1399
56.145
56.1281
56.1339
56.1408
56.1301
56.1257
56.1372
56.1766
56.1806
56.1769
56.1778
56.1776
56.1749
56.1722
56.1675
56.1711
56.1723
56.1569
56.1617
56.1662
56.1556
56.1545
56.1527
56.1521
56.1404
56.1459
56.1509
56.1324
56.1378
56.1465
56.1301
56.1285
56.1486
56.1529
56.1519
56.1529
56.148
56.1456
56.1449
56.1458
56.1448
56.1459
56.1413
56.1394
56.1318
56.1323
56.1329
56.1224
56.1229
56.1483
56.155
56.1519
56.1535
56.1513
56.1524
56.1458
56.1475
56.1514
56.1499
56.1476
56.1453
56.147
56.1494
56.1479
56.1435
56.1289
56.1295
56.1445
56.1441
56.1445
56.1404
56.1471
56.1493
56.1341
56.1393
56.1431
56.1286
56.1333
56.1356
56.1327
56.1248
56.1291
56.1376
56.1199
55.1201
55.8144
56.0825
56.1626
56.1761
56.1746
56.175
56.175
56.172
56.1701
56.1665
56.1635
56.1635
56.162
56.1566
56.1546
56.1522
56.1548
56.1569
56.1542
56.1434
56.1482
56.1578
56.1577
56.1558
56.1575
56.1606
56.1415
56.1463
56.1537
56.1511
56.1434
56.1447
56.1462
56.1418
56.1404
56.1221
56.127
56.137
56.1207
56.1268
56.1334
56.1167
56.123
56.1307
56.1139
56.1188
56.1321
56.1192
56.1237
56.1302
56.1276
56.1274
56.1167
56.1225
56.134
56.1319
56.1292
56.1321
56.1352
56.1326
56.1252
56.1268
56.1328
56.1167
56.1231
56.1346
56.1184
56.1246
56.1334
56.1297
56.1245
56.1299
56.1384
56.1291
56.1295
56.1293
56.1294
56.1183
56.1238
56.1355
56.1352
56.135
56.1192
56.1259
56.1345
56.1179
56.1244
56.1341
56.1174
55.1201
55.8144
56.0826
56.162
56.1816
56.1858
56.1865
56.1869
56.1876
56.185
56.1828
56.1802
56.1782
56.1785
56.1771
56.1716
56.1719
56.174
56.1728
56.1752
56.1737
56.1704
56.1679
56.1634
56.1489
56.1525
56.1591
56.1417
56.1477
56.1542
56.1359
56.141
56.147
56.128
56.1303
56.1443
56.1449
56.1434
56.1252
56.1293
56.1363
56.1309
56.13
56.1178
56.1251
56.1389
56.1281
56.1349
56.1391
56.1356
56.1248
56.1274
56.1318
56.1145
56.1193
56.133
56.1218
56.1283
56.1323
56.1185
56.1231
56.1398
56.1395
56.1377
56.1217
56.1261
56.1356
56.1188
56.1247
56.1338
56.1176
56.1238
56.1388
56.1366
56.1336
56.1195
56.1258
56.1344
56.1196
56.1257
56.1365
56.1242
56.1306
56.1347
56.1321
56.1244
56.1284
56.1373
56.1358
56.1314
55.1201
55.8144
56.0826
56.162
56.1815
56.1857
56.1865
56.187
56.1874
56.1879
56.1885
56.1895
56.1873
56.1853
56.183
56.1813
56.1816
56.1803
56.1752
56.1759
56.1768
56.1699
56.1729
56.1749
56.1737
56.173
56.1562
56.1562
56.1613
56.1617
56.1614
56.1471
56.1536
56.1593
56.1438
56.1504
56.1549
56.1474
56.1468
56.14
56.1422
56.1471
56.1476
56.1476
56.1346
56.1365
56.1377
56.1341
56.1275
56.1256
56.1515
56.1726
56.177
56.1779
56.1782
56.1785
56.1787
56.1789
56.1791
56.1793
56.1797
56.1767
56.1739
56.1719
56.1693
56.1706
56.1721
56.1707
56.1662
56.164
56.1594
56.1577
56.1561
56.1537
56.1507
56.1457
56.1491
56.15
56.1468
56.1378
56.1401
56.1432
56.1418
56.1417
56.1388
56.1378
56.1217
56.1274
56.1371
56.1197
55.1202
55.8144
56.0826
56.162
56.1816
56.1858
56.1866
56.187
56.1874
56.1879
56.1888
56.1864
56.1844
56.182
56.1801
56.1804
56.1791
56.1738
56.1746
56.175
56.1657
56.1638
56.1685
56.1696
56.1665
56.1526
56.157
56.1624
56.1457
56.1516
56.16
56.1441
56.1509
56.1585
56.1435
56.1487
56.1582
56.1506
56.1519
56.1577
56.1564
56.1541
56.155
56.1486
56.1489
56.149
56.1468
56.145
56.1347
56.1269
56.1387
56.1686
56.1762
56.1779
56.1783
56.1785
56.1789
56.1758
56.1737
56.174
56.1737
56.172
56.1699
56.1652
56.1632
56.1614
56.1624
56.1603
56.159
56.155
56.1558
56.1562
56.153
56.1392
56.1419
56.1465
56.133
56.1393
56.1481
56.1441
56.1451
56.1428
56.1386
56.1359
56.1349
56.1349
56.1258
56.1317
56.1361
56.1191
55.1202
55.8144
56.0826
56.162
56.1816
56.1857
56.1867
56.184
56.1815
56.1786
56.1765
56.1767
56.1751
56.1692
56.1679
56.1696
56.1687
56.1702
56.1678
56.1626
56.1608
56.1568
56.1434
56.148
56.1592
56.1573
56.1555
56.1593
56.1621
56.1572
56.1567
56.1524
56.1521
56.149
56.1449
56.1311
56.1358
56.1412
56.1354
56.1362
56.1368
56.1355
56.1197
56.1237
56.1368
56.128
56.1335
56.1358
56.1331
56.1306
56.1384
56.1674
56.176
56.1779
56.1783
56.1789
56.1757
56.1733
56.1734
56.171
56.1685
56.1697
56.1713
56.1698
56.1673
56.1583
56.1596
56.1621
56.1552
56.1579
56.1585
56.1558
56.1546
56.1435
56.1475
56.1529
56.1469
56.1467
56.1417
56.1419
56.1415
56.1326
56.1378
56.1426
56.1272
56.1341
56.1404
56.139
56.1386
56.121
55.1196
55.8162
56.0814
56.1335
56.1336
56.1336
56.1246
56.1252
56.1408
56.1477
56.1439
56.1306
56.1334
56.1454
56.1437
56.1437
56.1415
56.1372
56.1437
56.1628
56.1529
56.1614
56.1672
56.1555
56.1621
56.165
56.1509
56.1561
56.1629
56.1573
56.1563
56.1456
56.1527
56.159
56.1438
56.1486
56.1619
56.1595
56.1565
56.1571
56.1569
56.1521
56.1504
56.1511
56.1519
56.1469
56.1352
56.126
56.1242
56.1214
56.1234
56.1232
56.1241
56.1152
56.1222
56.1316
56.1153
56.118
56.1338
56.1378
56.1347
56.119
56.1222
56.1417
56.142
56.1397
56.1393
56.1283
56.1261
56.1415
56.1423
56.1518
56.1556
56.1499
56.1519
56.1478
56.1456
56.145
56.1346
56.1373
56.1455
56.134
56.1375
56.1499
56.1486
56.1455
56.1314
56.1343
56.1366
56.1192
55.1217
55.8104
56.0852
56.1453
56.1473
56.146
56.1506
56.1541
56.1459
56.1471
56.1462
56.1345
56.1384
56.1465
56.1449
56.1447
56.1304
56.1385
56.1532
56.149
56.1525
56.1541
56.1529
56.1541
56.1471
56.1508
56.1575
56.14
56.1459
56.1565
56.1404
56.1456
56.1574
56.1549
56.1544
56.1442
56.1488
56.1507
56.1463
56.1318
56.1332
56.1371
56.1327
56.1322
56.1269
56.1249
56.123
56.1195
56.1282
56.142
56.1288
56.1362
56.1426
56.1283
56.1278
56.1505
56.1599
56.1577
56.1601
56.1568
56.1551
56.1499
56.1518
56.1523
56.1511
56.1512
56.1455
56.1411
56.1419
56.146
56.143
56.1386
56.1254
56.1259
56.1406
56.1432
56.139
56.1224
56.1262
56.1373
56.1254
56.1301
56.1318
56.1304
56.1317
56.1258
56.1283
56.1329
56.13
56.1176
55.1217
55.8105
56.0849
56.1483
56.1497
56.1454
56.1504
56.1545
56.1462
56.1472
56.1463
56.1345
56.1384
56.1464
56.146
56.146
56.1301
56.1368
56.1577
56.1572
56.1556
56.1404
56.1454
56.1537
56.1371
56.1438
56.1554
56.1391
56.1453
56.1562
56.1408
56.1474
56.1528
56.1498
56.149
56.1352
56.1399
56.1462
56.1425
56.1305
56.1315
56.1362
56.1195
56.1255
56.1328
56.1303
56.13
56.1213
56.1327
56.167
56.1674
56.1629
56.1638
56.1648
56.1653
56.1632
56.1559
56.1595
56.1622
56.1586
56.1585
56.1553
56.156
56.1551
56.1568
56.1537
56.1513
56.1527
56.1502
56.1466
56.1356
56.1392
56.1426
56.1411
56.141
56.1383
56.1374
56.1213
56.1259
56.1378
56.1281
56.1282
56.1276
56.1284
56.1192
56.126
56.1351
56.1328
56.1322
56.1163
55.1202
55.8144
56.0826
56.162
56.1815
56.1857
56.1866
56.1869
56.1872
56.1878
56.1883
56.1893
56.1868
56.1848
56.1823
56.1805
56.1807
56.1793
56.1738
56.171
56.1728
56.1735
56.1698
56.1702
56.1665
56.1516
56.1553
56.1607
56.1437
56.1506
56.1597
56.1442
56.1462
56.1567
56.1561
56.1511
56.1556
56.1601
56.1475
56.1537
56.1608
56.1571
56.1581
56.159
56.1598
56.1543
56.1507
56.1443
56.1438
56.1403
56.1262
56.1246
56.1463
56.1614
56.1548
56.1589
56.1601
56.1559
56.1564
56.155
56.1567
56.1516
56.1496
56.1492
56.1417
56.1437
56.1446
56.1382
56.1409
56.1458
56.143
56.1386
56.1253
56.1258
56.1405
56.1432
56.1391
56.1224
56.121
56.1404
56.1467
56.1423
56.143
56.1414
56.131
56.125
56.1347
56.1409
56.137
56.1235
55.1215
55.8118
56.0797
56.1605
56.1811
56.1856
56.1865
56.1868
56.1873
56.1878
56.1883
56.1892
56.1867
56.1846
56.1821
56.1803
56.1805
56.179
56.1735
56.1739
56.1758
56.1741
56.1762
56.1747
56.1713
56.1683
56.1611
56.1592
56.1555
56.1445
56.1518
56.159
56.1429
56.141
56.1578
56.1617
56.16
56.1596
56.1488
56.1539
56.1596
56.1499
56.1491
56.1484
56.1491
56.1509
56.1484
56.1489
56.1504
56.1489
56.1482
56.132
56.1306
56.1449
56.1447
56.1518
56.1539
56.1429
56.1447
56.1625
56.165
56.1636
56.1652
56.1635
56.1614
56.1589
56.152
56.1521
56.1533
56.1521
56.1503
56.1509
56.1519
56.1475
56.1468
56.1351
56.1374
56.141
56.1401
56.1399
56.1256
56.1329
56.1404
56.1257
56.1329
56.1394
56.1235
56.1296
56.1379
56.12
55.1215
55.8118
56.0798
56.1613
56.1651
56.1614
56.1609
56.1516
56.1574
56.1608
56.1511
56.1532
56.1537
56.145
56.1481
56.1491
56.1346
56.1354
56.1534
56.1569
56.1528
56.1393
56.1436
56.1514
56.135
56.1419
56.1538
56.1379
56.1445
56.1518
56.1498
56.1441
56.1454
56.1543
56.1521
56.1488
56.1308
56.1349
56.1411
56.1236
56.1296
56.1401
56.1262
56.1324
56.136
56.1341
56.1296
56.1335
56.1405
56.1351
56.1343
56.1248
56.1275
56.1555
56.1612
56.1552
56.1581
56.1631
56.1605
56.1493
56.1522
56.1584
56.1558
56.1575
56.1595
56.1619
56.1603
56.1562
56.1433
56.1472
56.1526
56.1453
56.1459
56.1454
56.1471
56.1444
56.1445
56.1341
56.1388
56.1431
56.1356
56.1316
56.1353
56.1373
56.1249
56.1328
56.1405
56.1398
56.1395
56.1209
55.1201
55.8144
56.0826
56.1619
56.1814
56.1856
56.1864
56.1868
56.1871
56.1876
56.1882
56.1889
56.1864
56.1843
56.1818
56.1798
56.1801
56.1783
56.1762
56.1728
56.1706
56.1716
56.1675
56.1535
56.157
56.1616
56.1479
56.1539
56.1581
56.1545
56.1435
56.1456
56.1502
56.1321
56.138
56.1476
56.1316
56.1386
56.1478
56.1326
56.1402
56.1489
56.1347
56.1422
56.1489
56.1393
56.144
56.15
56.1486
56.1496
56.1494
56.1457
56.1321
56.1348
56.1475
56.1462
56.1461
56.1383
56.1441
56.1523
56.1497
56.1415
56.145
56.1493
56.1377
56.1434
56.146
56.1383
56.1446
56.1477
56.1449
56.144
56.1259
56.1246
56.1377
56.1425
56.1385
56.1223
56.1247
56.1381
56.139
56.1386
56.1224
56.1262
56.1373
56.1329
56.1341
56.1356
56.1346
56.119
55.1187
55.8199
56.0798
56.1304
56.1291
56.1291
56.1215
56.1257
56.1348
56.1302
56.1298
56.1238
56.1286
56.1609
56.1737
56.1687
56.1686
56.1694
56.171
56.1721
56.1679
56.1684
56.1694
56.1669
56.1649
56.149
56.1519
56.1582
56.1417
56.1487
56.1583
56.1431
56.1438
56.1551
56.1538
56.1612
56.1632
56.1508
56.1572
56.1607
56.15
56.1489
56.1487
56.1524
56.1536
56.1493
56.1343
56.1366
56.1396
56.1251
56.1305
56.1394
56.1332
56.134
56.1343
56.1322
56.1234
56.1285
56.1343
56.1312
56.1217
56.1249
56.134
56.1338
56.1337
56.1178
56.1235
56.1349
56.1348
56.1348
56.1294
56.1237
56.1306
56.1475
56.14
56.1395
56.1383
56.1387
56.1323
56.1395
56.1437
56.1379
56.1379
56.1365
56.1393
56.136
56.1248
56.1295
56.1375
56.1198
55.1202
55.8144
56.0825
56.162
56.1815
56.1856
56.1865
56.1868
56.187
56.1878
56.1851
56.1826
56.1836
56.1813
56.1757
56.1727
56.1726
56.1704
56.1672
56.1654
56.1642
56.1657
56.1662
56.164
56.1599
56.1453
56.1494
56.1592
56.1578
56.1554
56.1581
56.1598
56.1427
56.1425
56.1532
56.1525
56.1581
56.159
56.1545
56.1524
56.1598
56.1641
56.16
56.1603
56.1608
56.159
56.157
56.1537
56.1516
56.1518
56.143
56.1444
56.1451
56.1288
56.1342
56.1447
56.1309
56.1379
56.1439
56.1289
56.1324
56.1422
56.1349
56.1435
56.1483
56.1386
56.1401
56.1412
56.1379
56.1406
56.1416
56.1384
56.125
56.1263
56.1411
56.1435
56.1393
56.1226
56.1248
56.1381
56.1388
56.1384
56.1224
56.1263
56.1373
56.133
56.1342
56.1357
56.1347
56.119
55.1186
55.8187
56.0816
56.1446
56.1481
56.1468
56.1466
56.1407
56.1345
56.1443
56.177
56.1834
56.1826
56.1841
56.182
56.1762
56.1732
56.1735
56.1723
56.1712
56.1669
56.1674
56.1684
56.166
56.1644
56.1547
56.1499
56.1466
56.1409
56.1403
56.1363
56.1471
56.1563
56.1408
56.1456
56.1575
56.1475
56.1548
56.161
56.1524
56.1553
56.156
56.1478
56.1506
56.1521
56.1482
56.1363
56.1376
56.1401
56.139
56.1387
56.1306
56.124
56.1298
56.136
56.1303
56.1306
56.1306
56.1239
56.1278
56.1358
56.1344
56.1344
56.1314
56.1307
56.1285
56.1224
56.1318
56.1415
56.1401
56.1397
56.1229
56.1285
56.1371
56.1325
56.1318
56.1202
56.1295
56.1464
56.1445
56.1415
56.1267
56.1295
56.1408
56.1387
56.1375
56.1439
56.1478
56.1438
56.1307
55.1178
55.8207
56.0817
56.1277
56.1277
56.1248
56.1267
56.1558
56.1696
56.1647
56.1645
56.1653
56.1658
56.1623
56.1605
56.1613
56.1619
56.1579
56.1525
56.1533
56.155
56.1514
56.1396
56.1417
56.1505
56.1368
56.1438
56.1533
56.145
56.1465
56.1431
56.1339
56.1411
56.149
56.1336
56.1389
56.1468
56.14
56.1399
56.1391
56.1294
56.1331
56.1385
56.1275
56.1338
56.1371
56.1255
56.1336
56.1415
56.1255
56.1307
56.1442
56.1432
56.1411
56.1233
56.1239
56.1362
56.1373
56.1369
56.121
56.1249
56.136
56.1276
56.1315
56.1324
56.1218
56.1282
56.1367
56.1321
56.1314
56.1198
56.1273
56.1457
56.1355
56.1434
56.1492
56.1438
56.1435
56.1433
56.1432
56.1326
56.1398
56.1466
56.131
56.1376
56.1435
56.1331
56.1333
56.1326
56.1227
55.1203
55.8153
56.0794
56.1394
56.1446
56.1391
56.1395
56.1406
56.1394
56.1437
56.1432
56.1534
56.1585
56.1539
56.1559
56.1503
56.1515
56.1534
56.1497
56.1378
56.1374
56.1535
56.1563
56.152
56.1367
56.1415
56.1511
56.1349
56.1414
56.1491
56.1472
56.1462
56.1422
56.1432
56.1433
56.137
56.141
56.1449
56.1269
56.1328
56.1432
56.1278
56.1351
56.1453
56.1307
56.1378
56.1465
56.1459
56.1457
56.1294
56.1349
56.1397
56.1243
56.1295
56.1395
56.1364
56.1297
56.1261
56.1306
56.1371
56.1344
56.1288
56.1231
56.1278
56.1493
56.1438
56.1515
56.1547
56.1515
56.1511
56.1429
56.1412
56.1442
56.1432
56.1432
56.143
56.146
56.1513
56.1485
56.135
56.1387
56.1412
56.1397
56.1393
56.1228
56.1285
56.136
56.1332
56.1326
56.1166
55.1202
55.8149
56.0814
56.1377
56.1369
56.1369
56.1368
56.1339
56.1308
56.1436
56.1771
56.1833
56.1824
56.1838
56.1815
56.1758
56.1726
56.173
56.1745
56.1723
56.1704
56.1674
56.1582