/*--------------------------------*- C++ -*----------------------------------*\
  =========                 |
  \\      /  F ield         | OpenFOAM: The Open Source CFD Toolbox
   \\    /   O peration     | Website:  https://openfoam.org
    \\  /    A nd           | Version:  11
     \\/     M anipulation  |
\*---------------------------------------------------------------------------*/
FoamFile
{
    format      ascii;
    class       volScalarField;
    location    "0.028";
    object      p;
}
// * * * * * * * * * * * * * * * * * * * * * * * * * * * * * * * * * * * * * //

dimensions      [0 2 -2 0 0 0 0];

internalField   nonuniform List<scalar> 
287084
(
1.7876
1.51704
1.44545
1.37844
1.31204
1.26128
1.21398
1.16877
1.12648
1.0859
1.04432
1.00164
0.958679
0.915214
0.871165
0.826426
0.781123
0.735354
0.689217
0.643034
0.596928
0.551209
0.506243
0.462011
0.419007
0.376951
0.336778
0.303029
0.275129
0.248028
0.219791
0.19275
0.170502
0.151752
0.136294
0.123763
0.114054
0.106867
0.10197
0.0991308
0.0980406
0.0984551
0.100125
0.102809
0.106236
0.110227
0.114601
0.119139
0.123657
0.128072
0.132152
0.135549
0.138941
0.141512
0.142724
0.145547
0.150335
0.154449
0.156106
0.156046
0.154835
0.152576
0.151405
0.15182
0.151845
0.149181
0.148234
0.146079
0.139164
0.134653
0.130429
0.12533
0.121965
0.11686
0.108647
0.102841
0.0988989
0.0905471
0.0848335
0.0803674
0.0696526
0.0627842
0.0579568
0.0472424
0.0406076
0.0355227
0.0257674
0.0169956
0.00864616
0.00240048
1.65568
1.47195
1.41699
1.36244
1.30281
1.25527
1.21018
1.16669
1.12478
1.08338
1.04163
0.999442
0.956634
0.913219
0.86905
0.824178
0.778737
0.732721
0.686424
0.639974
0.593632
0.547727
0.502517
0.458238
0.415238
0.373621
0.334342
0.301045
0.270446
0.240273
0.211884
0.186753
0.165168
0.146809
0.131614
0.119363
0.109871
0.102997
0.0983296
0.0957568
0.0949286
0.0955983
0.0975152
0.10044
0.104095
0.108304
0.11288
0.117619
0.12236
0.126984
0.131376
0.135229
0.138606
0.140752
0.142878
0.14717
0.150774
0.153414
0.155739
0.156163
0.15484
0.154009
0.15366
0.151929
0.151283
0.150058
0.146294
0.143423
0.140385
0.13565
0.130131
0.125586
0.121453
0.115296
0.109174
0.10381
0.0986718
0.0922211
0.0843954
0.0783899
0.0715884
0.0631653
0.0566009
0.0496488
0.0418765
0.0346437
0.0262773
0.0174952
0.00874936
0.00229085
1.62718
1.4624
1.40885
1.35395
1.29694
1.25004
1.20559
1.16271
1.12103
1.07965
1.03802
0.995782
0.952931
0.909314
0.864931
0.819761
0.773913
0.72752
0.680732
0.633866
0.587056
0.540657
0.495034
0.450364
0.407191
0.365761
0.326719
0.291399
0.258974
0.228908
0.201274
0.176616
0.155272
0.13727
0.122396
0.110578
0.101567
0.0950915
0.0909749
0.0889123
0.088624
0.0898189
0.0922473
0.095644
0.099772
0.104419
0.109395
0.114513
0.119612
0.124567
0.129234
0.133468
0.137339
0.14081
0.143853
0.146435
0.148967
0.152467
0.155484
0.155745
0.154938
0.154253
0.153404
0.152608
0.151265
0.149078
0.146423
0.143339
0.139484
0.135141
0.130579
0.125738
0.120744
0.115334
0.109721
0.103956
0.0980269
0.0915176
0.0847718
0.0781655
0.0709584
0.0635375
0.0564989
0.0490879
0.0414557
0.0338236
0.0257025
0.0171497
0.00827548
0.00198193
1.58331
1.43219
1.38439
1.33462
1.28341
1.23976
1.19751
1.15607
1.11511
1.07411
1.03259
0.990433
0.947412
0.903564
0.858809
0.813146
0.766816
0.719785
0.672349
0.624751
0.577169
0.530087
0.483723
0.438463
0.394772
0.352944
0.313535
0.277149
0.243891
0.213283
0.18572
0.161376
0.140486
0.122928
0.108627
0.0974461
0.0890907
0.0834399
0.0800801
0.0788078
0.079293
0.081268
0.0844351
0.0885483
0.0933563
0.0986443
0.104218
0.109903
0.11554
0.121002
0.12618
0.130985
0.13539
0.13928
0.142633
0.145692
0.148586
0.15125
0.153294
0.154119
0.154249
0.153941
0.153258
0.152103
0.150554
0.14853
0.145802
0.142683
0.139129
0.135024
0.130521
0.125772
0.120802
0.115421
0.109781
0.103923
0.0978471
0.0914309
0.0847131
0.0779423
0.0709061
0.0636483
0.0564027
0.0489521
0.0413236
0.033554
0.0254952
0.0170018
0.00827403
0.00214922
1.55948
1.41518
1.36998
1.32166
1.2727
1.23038
1.18917
1.14856
1.10811
1.0673
1.02586
0.983571
0.940314
0.89608
0.850768
0.804503
0.757383
0.709511
0.661235
0.612621
0.564148
0.516026
0.468661
0.422489
0.377884
0.335363
0.295269
0.2581
0.224086
0.193197
0.165692
0.141599
0.121097
0.104108
0.0905138
0.080139
0.0727206
0.0679951
0.0656675
0.0654425
0.0669796
0.0699816
0.0741495
0.0792125
0.0849179
0.0910546
0.0974157
0.103831
0.11015
0.116254
0.122021
0.127385
0.13228
0.136676
0.14058
0.144064
0.147102
0.149649
0.151554
0.152684
0.153155
0.153096
0.15251
0.151427
0.149883
0.1478
0.145185
0.142143
0.13863
0.13465
0.130283
0.125589
0.120593
0.115254
0.109652
0.10379
0.0976967
0.0912909
0.0846533
0.0778591
0.0708465
0.0636422
0.0563445
0.0488753
0.0412485
0.0334366
0.0253531
0.0168917
0.00821234
0.00210915
1.53706
1.39572
1.35278
1.30654
1.26005
1.21939
1.1795
1.13974
1.09978
1.05922
1.01779
0.975307
0.931703
0.886887
0.840958
0.793835
0.745842
0.696924
0.64749
0.597709
0.547926
0.498552
0.449975
0.402599
0.356907
0.313334
0.272378
0.234345
0.199728
0.168476
0.140964
0.117122
0.0971196
0.0808402
0.0681048
0.0587967
0.0525239
0.0490681
0.048037
0.049102
0.0519207
0.0561814
0.0615566
0.0677815
0.0745872
0.0817596
0.0890824
0.0963878
0.103536
0.110392
0.116874
0.122889
0.128392
0.133347
0.137739
0.141577
0.144871
0.147585
0.149649
0.151025
0.151753
0.151898
0.151476
0.150512
0.149035
0.147038
0.144522
0.141544
0.138109
0.134224
0.129945
0.125311
0.120345
0.115055
0.109476
0.103626
0.0975153
0.0911467
0.0845448
0.0777565
0.0707706
0.0636052
0.0563033
0.0488193
0.0412047
0.0334351
0.0254114
0.0169631
0.00821517
0.00207954
1.51907
1.37953
1.33806
1.29302
1.24798
1.20844
1.16937
1.13026
1.09063
1.05015
1.00864
0.965819
0.921731
0.876244
0.829431
0.781339
0.7322
0.68199
0.631255
0.579958
0.528774
0.477849
0.427712
0.378913
0.331819
0.287071
0.24498
0.206173
0.170857
0.139305
0.111778
0.0882373
0.0688405
0.053376
0.0417281
0.0336487
0.0287494
0.026775
0.0272561
0.0298804
0.0342462
0.0400033
0.0468248
0.0544184
0.0625053
0.0708761
0.079324
0.0876752
0.0957807
0.103523
0.110804
0.117563
0.12373
0.129286
0.134211
0.138499
0.142145
0.145143
0.147462
0.149111
0.150094
0.15046
0.150223
0.149407
0.148051
0.146155
0.143753
0.140862
0.13751
0.133722
0.129521
0.124953
0.12004
0.114797
0.10925
0.103419
0.0973364
0.0909882
0.0844179
0.0776395
0.0706665
0.0635118
0.0562147
0.0487552
0.0411335
0.033327
0.025291
0.0168437
0.00818281
0.00214448
1.50326
1.36459
1.32405
1.28003
1.23602
1.19723
1.15881
1.12026
1.08078
1.04028
0.998447
0.955232
0.910476
0.864162
0.816405
0.767112
0.716671
0.665011
0.612647
0.559728
0.506707
0.454034
0.402158
0.351669
0.302991
0.256776
0.21352
0.173671
0.137661
0.105783
0.0782375
0.0550773
0.0363586
0.0219189
0.0115441
0.00492505
0.00166455
0.00138787
0.00364858
0.00805303
0.0141808
0.0216646
0.0301382
0.0392971
0.0488624
0.0586038
0.0683082
0.0778241
0.0870084
0.095735
0.103919
0.111488
0.118397
0.124614
0.130122
0.13491
0.138991
0.142357
0.145006
0.146954
0.148209
0.148805
0.148777
0.148141
0.146931
0.145176
0.14289
0.140106
0.136851
0.133149
0.129036
0.124534
0.119679
0.114489
0.10898
0.103189
0.0971229
0.09081
0.0842755
0.0775255
0.0705859
0.0634747
0.0561916
0.0487374
0.0411567
0.0333687
0.0253492
0.0169194
0.00819525
0.0021238
1.48923
1.35104
1.31111
1.2677
1.22443
1.1863
1.14823
1.10977
1.07037
1.02972
0.987597
0.943744
0.898232
0.850947
0.80195
0.751372
0.699349
0.646045
0.591873
0.53702
0.482067
0.427377
0.373459
0.321045
0.270551
0.22273
0.178084
0.137174
0.100455
0.068186
0.0407382
0.0180034
0.000145281
-0.0131697
-0.0221392
-0.0271081
-0.0285537
-0.0268894
-0.0226199
-0.0161978
-0.00807282
0.00134148
0.0116738
0.0225947
0.0338046
0.0450787
0.0561851
0.0669908
0.0773509
0.0871552
0.0963211
0.104785
0.112493
0.119425
0.125574
0.130921
0.13548
0.139264
0.142283
0.144565
0.146117
0.146978
0.147174
0.146737
0.145708
0.144097
0.141948
0.13928
0.136133
0.132525
0.128494
0.124069
0.119277
0.114141
0.108681
0.102928
0.096897
0.0906185
0.0840961
0.0773707
0.0704271
0.063301
0.0560851
0.0486245
0.0410251
0.0333458
0.0253639
0.0169587
0.00818637
0.00201901
1.4765
1.33855
1.29904
1.25609
1.21324
1.17546
1.13758
1.09917
1.05965
1.0187
0.975987
0.931483
0.885031
0.836619
0.78637
0.734228
0.680547
0.625387
0.569173
0.512245
0.455004
0.39808
0.341959
0.287373
0.234926
0.185285
0.139163
0.0970683
0.0595171
0.02694
-0.000491524
-0.0226584
-0.0396189
-0.0516103
-0.0589107
-0.0620498
-0.0614452
-0.0576341
-0.0511489
-0.0425152
-0.0321977
-0.0206563
-0.0082967
0.00453827
0.0175549
0.030488
0.0431376
0.0553513
0.0669749
0.0779288
0.0881418
0.0975495
0.106114
0.113811
0.12064
0.126585
0.131676
0.135929
0.139357
0.141993
0.143859
0.145
0.145448
0.145227
0.144377
0.142937
0.140932
0.138394
0.135354
0.131853
0.127911
0.123561
0.118839
0.113759
0.108348
0.10265
0.0966566
0.0904099
0.0839291
0.0772308
0.07034
0.0632697
0.0560181
0.0485868
0.0410477
0.0333002
0.0252357
0.0168322
0.00821195
0.00216995
1.46486
1.32708
1.28775
1.24506
1.20244
1.16483
1.12707
1.08855
1.04876
1.00733
0.964027
0.918662
0.871141
0.821525
0.769743
0.715967
0.660404
0.603187
0.544815
0.485495
0.42592
0.36653
0.307959
0.251072
0.196365
0.144864
0.0970266
0.0537237
0.0153476
-0.0175857
-0.0448431
-0.066407
-0.0822607
-0.0928345
-0.0984027
-0.0994868
-0.0966589
-0.0904892
-0.0816004
-0.0705383
-0.0578606
-0.0440374
-0.029489
-0.014597
0.000332657
0.0150523
0.0293379
0.0430356
0.0560169
0.0681922
0.0795032
0.0899052
0.0993691
0.107871
0.115413
0.121996
0.127645
0.132391
0.136251
0.139273
0.141478
0.142916
0.143624
0.143626
0.142982
0.141709
0.139861
0.137462
0.134548
0.131143
0.127296
0.123029
0.118372
0.113359
0.108004
0.102347
0.096397
0.0901881
0.0837376
0.0770661
0.0701915
0.0631302
0.0558974
0.0485187
0.0409661
0.0331874
0.0251765
0.0168035
0.00820089
0.00218032
1.45415
1.31642
1.27725
1.23465
1.19211
1.15445
1.1166
1.07798
1.03777
0.99577
0.951707
0.905354
0.856747
0.805708
0.752379
0.696829
0.639242
0.579853
0.519088
0.457312
0.395067
0.333074
0.271883
0.21248
0.155506
0.101869
0.0523954
0.00771597
-0.0315058
-0.0647738
-0.0918989
-0.112709
-0.127452
-0.136373
-0.139953
-0.138841
-0.133603
-0.124935
-0.113473
-0.0998677
-0.0846831
-0.0684359
-0.051601
-0.0345432
-0.0175917
-0.00101289
0.0149862
0.0302523
0.0446519
0.0581055
0.0705585
0.0819777
0.0923739
0.101703
0.109985
0.117226
0.123464
0.128717
0.133034
0.136448
0.139003
0.140749
0.141722
0.141966
0.141529
0.140441
0.138754
0.136493
0.133696
0.130409
0.126652
0.122472
0.117895
0.112942
0.107643
0.102032
0.0961282
0.0899608
0.0835428
0.0768982
0.0700448
0.0630112
0.0557454
0.0483595
0.0409911
0.033271
0.0251927
0.0168207
0.00817269
0.00214686
1.44428
1.30654
1.26737
1.22485
1.18229
1.1445
1.10648
1.06745
1.02683
0.984154
0.93925
0.891927
0.841991
0.789543
0.734479
0.676994
0.617292
0.555603
0.492327
0.427895
0.362984
0.29815
0.234287
0.172199
0.112765
0.0570136
0.00566416
-0.0403272
-0.0804208
-0.114004
-0.140821
-0.160855
-0.17424
-0.181496
-0.183041
-0.179567
-0.171807
-0.16048
-0.146329
-0.13004
-0.112243
-0.0934947
-0.0742691
-0.0549731
-0.0359447
-0.0174427
0.000318536
0.0171812
0.0330374
0.0478015
0.0614338
0.0739034
0.0852304
0.0954094
0.104443
0.112356
0.119184
0.124971
0.129748
0.133572
0.136483
0.138541
0.139792
0.140279
0.14005
0.139146
0.137623
0.135504
0.132836
0.129658
0.126001
0.121906
0.117397
0.112517
0.107278
0.101714
0.0958527
0.0897185
0.0833448
0.0767344
0.0699139
0.0629057
0.0557224
0.0483835
0.0408936
0.0331328
0.0251514
0.0168326
0.00815487
0.00213393
1.43512
1.29738
1.25817
1.21559
1.17285
1.13494
1.09665
1.0573
1.01601
0.972641
0.926839
0.878341
0.827161
0.773137
0.716337
0.656886
0.594999
0.530831
0.465018
0.39781
0.329999
0.26237
0.195569
0.130811
0.0688703
0.0108859
-0.0422866
-0.0896876
-0.130607
-0.164461
-0.190966
-0.210114
-0.222162
-0.227536
-0.226885
-0.220969
-0.210569
-0.196511
-0.179595
-0.160567
-0.140101
-0.118791
-0.0971418
-0.0755729
-0.0544336
-0.0339812
-0.0144433
0.00404842
0.0213772
0.0374635
0.0522831
0.0658138
0.0780776
0.0890928
0.0988807
0.10747
0.114896
0.121207
0.126444
0.130675
0.133947
0.136326
0.137852
0.138579
0.138565
0.137854
0.136491
0.134517
0.131975
0.128907
0.125349
0.121341
0.116909
0.112085
0.106906
0.101394
0.0955761
0.0894869
0.0831397
0.0765567
0.0697676
0.0627706
0.0556129
0.0482676
0.0407863
0.0330918
0.0250957
0.0167802
0.0081809
0.00216699
1.42668
1.28891
1.24963
1.20694
1.16408
1.12581
1.08719
1.04741
1.00557
0.961373
0.91463
0.865001
0.812433
0.756807
0.69821
0.636703
0.572515
0.50597
0.437409
0.367461
0.296792
0.226134
0.156543
0.08895
0.0244808
-0.0357646
-0.0907788
-0.139546
-0.181253
-0.215291
-0.241382
-0.25958
-0.270126
-0.273656
-0.270759
-0.26233
-0.249257
-0.232429
-0.212712
-0.190929
-0.16778
-0.143904
-0.119832
-0.0959935
-0.0727478
-0.0503597
-0.029042
-0.00894171
0.00983425
0.0272384
0.0432346
0.057819
0.0710156
0.0828584
0.0933883
0.10264
0.110657
0.117492
0.123192
0.127826
0.131454
0.134138
0.135936
0.136906
0.137102
0.13657
0.135372
0.133538
0.131121
0.128165
0.124702
0.120775
0.116418
0.111666
0.106542
0.101077
0.0953033
0.0892463
0.082942
0.0763919
0.0696277
0.0626701
0.0555361
0.0482346
0.0407639
0.0330602
0.025116
0.0168177
0.00813462
0.00209045
1.41896
1.28112
1.24173
1.19893
1.15586
1.11743
1.07839
1.03794
0.995431
0.950487
0.902759
0.851973
0.798024
0.740816
0.680407
0.616867
0.550437
0.481362
0.410185
0.337403
0.263783
0.190286
0.117714
0.0474412
-0.0195824
-0.0820558
-0.138891
-0.188937
-0.231377
-0.265547
-0.29118
-0.308392
-0.317449
-0.319021
-0.313863
-0.302932
-0.28718
-0.267597
-0.245114
-0.220601
-0.19481
-0.168416
-0.141959
-0.115896
-0.0905887
-0.0663057
-0.0432544
-0.0215806
-0.001374
0.0173063
0.0344487
0.0500612
0.0641697
0.0768185
0.0880646
0.0979543
0.106537
0.113875
0.120021
0.125048
0.129024
0.132012
0.134081
0.135281
0.135681
0.135337
0.134288
0.132597
0.130301
0.127446
0.124077
0.120235
0.115944
0.111249
0.10618
0.100767
0.095039
0.0890219
0.0827425
0.0762237
0.0694802
0.0625276
0.0554054
0.0481056
0.0406586
0.0329851
0.0251173
0.0168485
0.00811736
0.00208342
1.41193
1.27405
1.23453
1.19162
1.14832
1.1096
1.07005
1.02903
0.985909
0.940177
0.891489
0.839503
0.784219
0.725407
0.663207
0.597627
0.528954
0.457487
0.383652
0.308158
0.231697
0.155269
0.0799538
0.00693848
-0.0625396
-0.127132
-0.185706
-0.23697
-0.280047
-0.314261
-0.339405
-0.355539
-0.36306
-0.362739
-0.355331
-0.341948
-0.323599
-0.301344
-0.276184
-0.24904
-0.220708
-0.191876
-0.163138
-0.134935
-0.107651
-0.0815481
-0.0568339
-0.0336528
-0.0120917
0.00781844
0.0260611
0.0426512
0.0576354
0.0710593
0.0829782
0.0934868
0.10261
0.11043
0.117005
0.12241
0.126713
0.129989
0.132308
0.133736
0.13433
0.134152
0.133255
0.131693
0.129514
0.126763
0.123479
0.11971
0.115493
0.110859
0.105842
0.100479
0.0947869
0.0888054
0.0825591
0.076066
0.0693632
0.0624531
0.0553674
0.0480938
0.0406272
0.0329811
0.0250929
0.0168378
0.00812693
0.00204073
1.40561
1.26764
1.22805
1.18495
1.14139
1.1024
1.06244
1.02089
0.977095
0.930563
0.880894
0.827826
0.771177
0.710884
0.646926
0.579479
0.508597
0.434805
0.358464
0.280279
0.201119
0.121938
0.0439115
-0.0315921
-0.103507
-0.170086
-0.23028
-0.282626
-0.326232
-0.360454
-0.385001
-0.400152
-0.406173
-0.403999
-0.394459
-0.378713
-0.357886
-0.333088
-0.305386
-0.275753
-0.245016
-0.213897
-0.182999
-0.152791
-0.123643
-0.0958337
-0.0695623
-0.0449663
-0.0221141
-0.00106035
0.0182144
0.0357303
0.0515314
0.0656708
0.0782317
0.0893009
0.0989383
0.107206
0.114178
0.119936
0.124547
0.128096
0.130656
0.132287
0.133068
0.133054
0.132296
0.130857
0.128783
0.126124
0.122924
0.119225
0.115068
0.110491
0.105525
0.100197
0.0945467
0.0885958
0.0823775
0.0759069
0.0692069
0.0622674
0.055176
0.0479908
0.0405835
0.0329197
0.0250314
0.0168432
0.00813716
0.00201294
1.40001
1.26199
1.22223
1.17901
1.13524
1.09589
1.05558
1.01352
0.96908
0.921825
0.87123
0.817082
0.759196
0.697441
0.631883
0.56256
0.489704
0.413722
0.334996
0.254388
0.172631
0.0908682
0.0103943
-0.067575
-0.141536
-0.210073
-0.271624
-0.324935
-0.369006
-0.403135
-0.427181
-0.441234
-0.445859
-0.441903
-0.430369
-0.412445
-0.389329
-0.362192
-0.332159
-0.300237
-0.267293
-0.234076
-0.201197
-0.169144
-0.138285
-0.10891
-0.0812107
-0.0553115
-0.0312978
-0.00918332
0.0110316
0.029387
0.0459395
0.0607508
0.0738878
0.085482
0.0955794
0.10426
0.1116
0.117676
0.122576
0.126365
0.129145
0.130969
0.131913
0.132043
0.131415
0.130087
0.128116
0.125538
0.122415
0.118782
0.114686
0.110157
0.105234
0.0999498
0.0943341
0.0884173
0.0822237
0.0757788
0.0691203
0.0622491
0.0551948
0.0479514
0.0405032
0.0328723
0.0249252
0.0166683
0.00812923
0.00213739
1.39516
1.25709
1.21723
1.17388
1.12983
1.09023
1.0495
1.00703
0.962001
0.913995
0.86259
0.807462
0.748466
0.685426
0.618376
0.547417
0.472714
0.394685
0.313856
0.230941
0.146919
0.0628156
-0.0199308
-0.100035
-0.175996
-0.24604
-0.308947
-0.363029
-0.407444
-0.441457
-0.464911
-0.478045
-0.481379
-0.475837
-0.462477
-0.442585
-0.417406
-0.388162
-0.356043
-0.322071
-0.287153
-0.252058
-0.217419
-0.183714
-0.151337
-0.120566
-0.0915903
-0.0645349
-0.0394649
-0.0164086
0.00464929
0.0237506
0.0409657
0.0563645
0.0700357
0.0820792
0.0925955
0.10164
0.109303
0.115668
0.120814
0.12483
0.127801
0.129793
0.130889
0.131149
0.130632
0.129407
0.127516
0.125022
0.121964
0.11839
0.114342
0.109857
0.104973
0.0997206
0.0941419
0.0882413
0.0820722
0.0756522
0.0689934
0.0621259
0.0550649
0.0478217
0.0404279
0.0327963
0.0248517
0.0166409
0.00812325
0.00216062
1.39109
1.25297
1.21304
1.1695
1.12533
1.08544
1.04437
1.00144
0.955892
0.907331
0.855153
0.79919
0.739162
0.67495
0.606633
0.534178
0.45788
0.378155
0.295421
0.210559
0.124471
0.0383438
-0.0463546
-0.128384
-0.205933
-0.277444
-0.341315
-0.396038
-0.440726
-0.47458
-0.497568
-0.509823
-0.51197
-0.505039
-0.490102
-0.468512
-0.441557
-0.410512
-0.376588
-0.340853
-0.304241
-0.267539
-0.231368
-0.196255
-0.162567
-0.13059
-0.100517
-0.0724658
-0.0465035
-0.0226391
-0.000856925
0.0188955
0.0366867
0.0525951
0.0667152
0.0791622
0.0900239
0.0993876
0.107329
0.113941
0.119308
0.123506
0.126651
0.128786
0.130004
0.130381
0.129964
0.128823
0.127013
0.124576
0.121576
0.118052
0.114051
0.109604
0.104757
0.0995363
0.0939756
0.0881082
0.0819545
0.0755513
0.0689263
0.0620805
0.0550502
0.0478317
0.0404187
0.0328003
0.0248479
0.0166121
0.00809747
0.00215025
1.38782
1.24966
1.20963
1.16602
1.12163
1.08158
1.0402
0.996855
0.950934
0.901792
0.849068
0.792347
0.731513
0.666382
0.596942
0.523317
0.445676
0.364389
0.280144
0.193601
0.105845
0.0180336
-0.0682792
-0.15188
-0.230819
-0.303378
-0.368079
-0.423321
-0.468156
-0.501878
-0.524393
-0.535941
-0.537169
-0.52905
-0.51281
-0.489805
-0.461383
-0.428849
-0.393449
-0.356275
-0.318267
-0.280237
-0.242829
-0.206541
-0.171779
-0.138822
-0.107846
-0.0789818
-0.0522765
-0.0277478
-0.00536009
0.0149176
0.03318
0.0495065
0.0639983
0.0767684
0.0879221
0.0975446
0.105712
0.112525
0.118064
0.122427
0.125698
0.127958
0.129284
0.129748
0.12941
0.128339
0.126585
0.12421
0.121257
0.117774
0.113811
0.109393
0.104572
0.0993742
0.0938409
0.0879834
0.0818508
0.0754663
0.068835
0.0619997
0.0549652
0.0477313
0.0403407
0.0327164
0.0248056
0.0166038
0.00807663
0.00215341
1.38537
1.24717
1.20707
1.16337
1.11876
1.07859
1.0371
0.993474
0.947164
0.897652
0.844364
0.787154
0.725611
0.659718
0.589475
0.514859
0.436177
0.353859
0.268327
0.180591
0.0914926
0.00237643
-0.0851706
-0.170057
-0.250051
-0.323383
-0.38861
-0.444196
-0.4892
-0.522794
-0.545001
-0.555966
-0.556379
-0.547406
-0.530163
-0.506087
-0.476544
-0.442877
-0.406342
-0.368061
-0.328994
-0.289957
-0.251585
-0.214419
-0.178833
-0.145114
-0.11345
-0.0839589
-0.0566886
-0.0316496
-0.00881186
0.0118785
0.0304939
0.0471431
0.0619114
0.0749387
0.0863076
0.0961329
0.104474
0.111442
0.117123
0.1216
0.124982
0.127328
0.128735
0.129267
0.128995
0.127975
0.126272
0.123934
0.121014
0.117568
0.113624
0.109239
0.104435
0.0992555
0.0937341
0.0879028
0.0817808
0.0754043
0.0687948
0.0619648
0.0549547
0.0477378
0.0403576
0.0327506
0.024824
0.0166065
0.00807659
0.00214755
1.38373
1.24549
1.20535
1.16157
1.11699
1.0766
1.03482
0.99112
0.944604
0.894779
0.841245
0.78358
0.721679
0.655274
0.584429
0.509198
0.429795
0.346626
0.260297
0.171668
0.0816657
-0.00828313
-0.0967532
-0.18244
-0.263329
-0.33692
-0.402363
-0.458268
-0.503407
-0.536934
-0.55887
-0.56948
-0.569423
-0.559805
-0.541892
-0.517082
-0.48678
-0.452342
-0.415051
-0.376027
-0.336238
-0.296515
-0.257505
-0.219736
-0.183593
-0.14937
-0.117245
-0.0873288
-0.059674
-0.0342918
-0.0111486
0.00981283
0.0286783
0.0455489
0.0605189
0.0737073
0.0852312
0.0951809
0.103646
0.110711
0.116486
0.121046
0.124491
0.126905
0.128363
0.128944
0.12871
0.127726
0.126054
0.123746
0.120854
0.117424
0.113509
0.109132
0.104342
0.0991806
0.0936667
0.0878436
0.0817235
0.0753585
0.0687432
0.0619251
0.0548966
0.0476766
0.0403034
0.032677
0.024801
0.0166447
0.00807373
0.002076
1.38292
1.24466
1.20451
1.16068
1.11602
1.07555
1.03378
0.990013
0.94335
0.893401
0.83963
0.781826
0.719625
0.652977
0.581852
0.506268
0.426545
0.343021
0.256277
0.167215
0.0767607
-0.0136738
-0.102639
-0.188846
-0.270471
-0.344118
-0.409015
-0.464962
-0.510464
-0.544012
-0.565884
-0.57629
-0.575952
-0.566041
-0.547798
-0.522619
-0.491932
-0.45711
-0.419438
-0.380034
-0.339886
-0.299822
-0.260487
-0.222416
-0.185996
-0.151517
-0.119163
-0.0890304
-0.061164
-0.0356018
-0.0123197
0.00877961
0.0277625
0.0447405
0.0598079
0.0730781
0.0846743
0.0946975
0.103221
0.110341
0.11616
0.120761
0.124246
0.126687
0.128176
0.12878
0.12857
0.127601
0.125952
0.123654
0.120771
0.117356
0.113441
0.10908
0.104294
0.0991356
0.093632
0.0878124
0.0817075
0.0753457
0.0687437
0.0619248
0.0549154
0.0477025
0.0403271
0.0327175
0.0247839
0.0165788
0.0080897
0.00215547
1.38294
1.24468
1.20454
1.1607
1.11605
1.07554
1.03379
0.990034
0.943385
0.893411
0.839676
0.781855
0.719655
0.653045
0.581886
0.506326
0.426588
0.343024
0.256297
0.167231
0.0767734
-0.0136496
-0.102602
-0.188789
-0.270377
-0.344035
-0.409032
-0.46498
-0.510481
-0.543999
-0.565844
-0.576263
-0.575937
-0.566025
-0.547784
-0.522602
-0.491922
-0.457101
-0.419432
-0.380023
-0.339877
-0.29981
-0.260475
-0.222409
-0.185983
-0.151504
-0.119146
-0.089018
-0.0611727
-0.0356198
-0.0123263
0.00877653
0.0277619
0.0447385
0.0598087
0.0730746
0.0846744
0.0946958
0.103219
0.110339
0.116164
0.120762
0.124242
0.126683
0.128169
0.128778
0.128562
0.1276
0.125944
0.123652
0.120771
0.117358
0.113446
0.109078
0.104298
0.0991387
0.0936375
0.0878147
0.0817081
0.0753463
0.0687366
0.061919
0.0549
0.0476769
0.0403024
0.0326794
0.0247841
0.0166005
0.00806966
0.00213713
1.3838
1.24556
1.20543
1.16165
1.11704
1.07665
1.03489
0.991194
0.944675
0.894857
0.841305
0.783643
0.721743
0.655287
0.584492
0.50923
0.429845
0.346737
0.260396
0.171778
0.0817718
-0.00818838
-0.096666
-0.182365
-0.263252
-0.336884
-0.40229
-0.458246
-0.503351
-0.536888
-0.558845
-0.569431
-0.569375
-0.559758
-0.541848
-0.517039
-0.486735
-0.452307
-0.415017
-0.37599
-0.336211
-0.296487
-0.257483
-0.219716
-0.183578
-0.149353
-0.117225
-0.0873119
-0.0596603
-0.03428
-0.0111358
0.00982603
0.0286837
0.0455494
0.0605134
0.073699
0.0852239
0.0951769
0.103642
0.110707
0.11648
0.121043
0.124485
0.1269
0.128362
0.128941
0.128711
0.127723
0.126057
0.123748
0.120854
0.117431
0.113504
0.109135
0.104345
0.0991803
0.0936728
0.0878454
0.0817369
0.0753692
0.0687693
0.0619486
0.0549372
0.0477305
0.0403443
0.0327336
0.0248037
0.016557
0.00808151
0.00217463
1.38547
1.24727
1.20719
1.16347
1.1189
1.0787
1.03713
0.993556
0.947257
0.897737
0.844493
0.787252
0.725716
0.659863
0.589567
0.51497
0.436314
0.353906
0.268435
0.180675
0.0915755
0.00248398
-0.0850925
-0.169918
-0.249967
-0.323252
-0.388496
-0.444108
-0.489127
-0.522748
-0.544897
-0.555887
-0.556302
-0.547335
-0.530107
-0.506025
-0.476485
-0.442819
-0.406296
-0.368013
-0.328947
-0.28991
-0.251543
-0.214383
-0.178797
-0.145083
-0.113426
-0.0839353
-0.056674
-0.0316313
-0.00879353
0.01189
0.0305068
0.0471539
0.061926
0.0749461
0.0863183
0.0961394
0.104485
0.111449
0.11713
0.121609
0.124985
0.127334
0.128738
0.129271
0.128997
0.127978
0.126274
0.12394
0.121025
0.117574
0.113633
0.109241
0.104444
0.0992639
0.0937449
0.0879123
0.0817942
0.0754171
0.0688012
0.0619731
0.0549471
0.0477175
0.0403393
0.0327138
0.0248678
0.0166852
0.0080398
0.00206259
1.38799
1.24981
1.20979
1.16618
1.12177
1.08175
1.04035
0.997005
0.951109
0.901957
0.849229
0.792508
0.731684
0.666501
0.597093
0.523448
0.445787
0.36458
0.280276
0.193775
0.10598
0.018186
-0.0681437
-0.151756
-0.230674
-0.303274
-0.367937
-0.423228
-0.468053
-0.501809
-0.524311
-0.535849
-0.537076
-0.528952
-0.512727
-0.48972
-0.461295
-0.428773
-0.393376
-0.356203
-0.318205
-0.280178
-0.242774
-0.206488
-0.171733
-0.138778
-0.107803
-0.0789449
-0.0522388
-0.0277156
-0.00533358
0.0149483
0.033202
0.0495273
0.0640201
0.0767863
0.0879404
0.0975624
0.105729
0.112539
0.118082
0.122444
0.125713
0.127974
0.129299
0.12976
0.129424
0.12835
0.126601
0.124226
0.121272
0.11779
0.113821
0.109408
0.104588
0.0993901
0.0938525
0.0880018
0.0818726
0.0754823
0.0688624
0.0620245
0.0550041
0.0477781
0.0403882
0.0327865
0.024895
0.0166865
0.00808075
0.00210177
1.3913
1.25318
1.21322
1.16973
1.12551
1.08565
1.04458
1.00166
0.956129
0.907507
0.855383
0.799385
0.739365
0.675185
0.60684
0.534384
0.458093
0.378305
0.295606
0.210731
0.124658
0.038522
-0.0461889
-0.128196
-0.205779
-0.277247
-0.341157
-0.395921
-0.44057
-0.474488
-0.497412
-0.509692
-0.511841
-0.504927
-0.49001
-0.468406
-0.441453
-0.410415
-0.376498
-0.340769
-0.304159
-0.267464
-0.231296
-0.196188
-0.162505
-0.130534
-0.10047
-0.0724213
-0.0464601
-0.0226006
-0.000816832
0.0189279
0.0367135
0.0526234
0.0667463
0.0791883
0.0900513
0.0994162
0.107359
0.113967
0.119327
0.123538
0.126672
0.128812
0.130028
0.130394
0.129978
0.128837
0.127026
0.124596
0.121597
0.118073
0.114068
0.109619
0.104771
0.0995472
0.0939886
0.088121
0.0819765
0.0755775
0.0689354
0.0620957
0.0550501
0.0478154
0.040416
0.0327792
0.0248724
0.0166596
0.00807977
0.00210165
1.39543
1.25734
1.21748
1.17413
1.13008
1.09049
1.04975
1.00728
0.962292
0.914265
0.86286
0.807724
0.748721
0.685678
0.6186
0.547635
0.472938
0.394933
0.31409
0.231187
0.147118
0.0630326
-0.0197089
-0.0998608
-0.175747
-0.245923
-0.308712
-0.362874
-0.407267
-0.441295
-0.464777
-0.477874
-0.481251
-0.475664
-0.462331
-0.442437
-0.417256
-0.388039
-0.355923
-0.321962
-0.287049
-0.251964
-0.21733
-0.183629
-0.15126
-0.120496
-0.091524
-0.0644773
-0.0394133
-0.0163677
0.0046841
0.0237921
0.0409997
0.0563955
0.0700746
0.0821193
0.0926309
0.101677
0.109333
0.115701
0.120845
0.12486
0.127829
0.129822
0.130915
0.131172
0.130655
0.129424
0.127541
0.125043
0.121986
0.11841
0.114363
0.109884
0.104999
0.0997501
0.0941585
0.0882723
0.082104
0.0756847
0.0690281
0.0621684
0.0551131
0.0478648
0.0404501
0.032815
0.0248715
0.0166105
0.00811121
0.00218716
1.40032
1.26229
1.22252
1.17932
1.13552
1.0962
1.05588
1.01383
0.969444
0.922091
0.871552
0.817374
0.759487
0.697754
0.632194
0.562853
0.490019
0.413961
0.335304
0.254618
0.172908
0.0911337
0.0106
-0.0672888
-0.14136
-0.209806
-0.271411
-0.324746
-0.36877
-0.40293
-0.426952
-0.441036
-0.445676
-0.441744
-0.430227
-0.412303
-0.389182
-0.362058
-0.332032
-0.300114
-0.267173
-0.233971
-0.201091
-0.169045
-0.138196
-0.108829
-0.0811371
-0.0552438
-0.0312248
-0.00911677
0.0110932
0.0294389
0.0459833
0.0607853
0.0739285
0.0855191
0.0956203
0.104302
0.111641
0.117718
0.122611
0.126411
0.129182
0.131006
0.131949
0.132072
0.131441
0.130118
0.128138
0.125565
0.122442
0.118811
0.114712
0.110182
0.105258
0.0999688
0.0943551
0.088435
0.0822557
0.0758119
0.0691374
0.0622678
0.0552029
0.0479466
0.0405239
0.03287
0.0249467
0.0166991
0.00811049
0.00212739
1.40599
1.26799
1.22838
1.18531
1.14178
1.10278
1.06274
1.02122
0.977476
0.930929
0.881271
0.828145
0.771555
0.711212
0.647269
0.579767
0.508929
0.435099
0.358782
0.280583
0.201426
0.122207
0.0442044
-0.031332
-0.10319
-0.16987
-0.229974
-0.282397
-0.326004
-0.360225
-0.384815
-0.399909
-0.405985
-0.403764
-0.394252
-0.378515
-0.357683
-0.332911
-0.305224
-0.275598
-0.244872
-0.213765
-0.182881
-0.152672
-0.123539
-0.0957349
-0.0694763
-0.0448837
-0.0220425
-0.000993053
0.0182722
0.0357858
0.051582
0.06572
0.0782816
0.0893515
0.0989894
0.107255
0.114228
0.119984
0.124597
0.128138
0.1307
0.132328
0.133107
0.133086
0.13233
0.130884
0.128816
0.126155
0.122954
0.119255
0.115096
0.110525
0.105556
0.100231
0.0945786
0.0886344
0.0824196
0.0759552
0.0692606
0.0623637
0.0552708
0.0479976
0.0405515
0.0329087
0.0250078
0.0167892
0.00812506
0.00205833
1.41234
1.27445
1.23492
1.19202
1.14865
1.10996
1.0705
1.02949
0.986368
0.940597
0.891863
0.839929
0.784563
0.725822
0.663594
0.598009
0.52936
0.457825
0.384032
0.308506
0.232021
0.155626
0.0802609
0.00726465
-0.0622218
-0.126866
-0.185401
-0.2367
-0.279753
-0.313978
-0.339108
-0.355267
-0.362832
-0.362498
-0.355131
-0.341751
-0.323409
-0.301166
-0.276015
-0.248877
-0.220551
-0.19174
-0.163
-0.134811
-0.10753
-0.0814421
-0.0567415
-0.0335631
-0.012006
0.00790214
0.0261345
0.0427242
0.0577013
0.0711172
0.0830374
0.0935427
0.102665
0.110484
0.117062
0.122464
0.126766
0.130045
0.132363
0.133783
0.134379
0.134193
0.133296
0.131736
0.129549
0.126796
0.123515
0.119743
0.115524
0.110892
0.105871
0.10051
0.0948196
0.0888407
0.0825991
0.0761084
0.0693923
0.0624812
0.0553813
0.0480892
0.040643
0.0329656
0.0250006
0.0167374
0.00815167
0.00214585
1.41941
1.28158
1.24219
1.19938
1.15635
1.11778
1.07877
1.03843
0.99594
0.95097
0.903205
0.852415
0.798471
0.741255
0.68081
0.617274
0.550789
0.481774
0.410579
0.337781
0.264207
0.1906
0.118111
0.0477598
-0.0192089
-0.0817575
-0.138514
-0.188644
-0.231064
-0.265235
-0.290919
-0.30809
-0.31718
-0.318752
-0.313615
-0.302696
-0.286949
-0.26738
-0.244913
-0.22041
-0.194634
-0.168249
-0.141808
-0.115751
-0.0904581
-0.0661818
-0.0431458
-0.0214749
-0.00128092
0.0173917
0.03453
0.0501346
0.0642426
0.0768854
0.0881299
0.098021
0.106605
0.113939
0.120086
0.125115
0.129088
0.132073
0.134137
0.135337
0.135734
0.135381
0.134335
0.132632
0.130341