/*--------------------------------*- C++ -*----------------------------------*\
  =========                 |
  \\      /  F ield         | OpenFOAM: The Open Source CFD Toolbox
   \\    /   O peration     | Website:  https://openfoam.org
    \\  /    A nd           | Version:  11
     \\/     M anipulation  |
\*---------------------------------------------------------------------------*/
FoamFile
{
    format      ascii;
    class       volScalarField;
    location    "0.014";
    object      nut;
}
// * * * * * * * * * * * * * * * * * * * * * * * * * * * * * * * * * * * * * //

dimensions      [0 2 -1 0 0 0 0];

internalField   nonuniform List<scalar> 
287084
(
0.000837659
0.000848056
0.000850214
0.000850455
0.000850433
0.000850439
0.000850265
0.000850344
0.00085053
0.000850437
0.000850387
0.000850001
0.000849952
0.000850393
0.000850648
0.000850472
0.000850428
0.000850391
0.000850382
0.000850188
0.000849951
0.000849904
0.000850004
0.000849886
0.000849552
0.000849669
0.000849897
0.000849835
0.000849844
0.000849485
0.000849724
0.000849875
0.000849518
0.00084983
0.000850052
0.000849819
0.000849827
0.000850274
0.000850465
0.000850304
0.000850477
0.000850566
0.000850359
0.000850612
0.000850793
0.00085044
0.00085073
0.000850907
0.000850856
0.000850877
0.000850709
0.000850638
0.000850957
0.000851142
0.000850951
0.000850959
0.000850989
0.000850924
0.000850794
0.000851185
0.000851282
0.000850984
0.000851143
0.00085123
0.000851184
0.000851165
0.000851096
0.00085111
0.000851118
0.000850903
0.000850778
0.000851177
0.000851365
0.000851163
0.000851141
0.000851186
0.000851216
0.000851138
0.000851084
0.000851009
0.000850914
0.000850927
0.000850696
0.000850848
0.000851079
0.000850753
0.000850915
0.000850968
0.000850884
0.000850672
0.00118387
0.00119809
0.00120129
0.00120161
0.00120138
0.00120137
0.00120137
0.00120138
0.00120126
0.0012011
0.00120087
0.00120027
0.00120036
0.00120043
0.00119979
0.00120007
0.00120023
0.00119965
0.00119978
0.0012007
0.00120078
0.00120049
0.00120045
0.00120042
0.00120046
0.00120025
0.00120012
0.00119995
0.00119985
0.00119995
0.00120004
0.0011997
0.00120003
0.00120032
0.0011999
0.00120035
0.00120087
0.00120072
0.00120083
0.00120091
0.00120101
0.0012007
0.00120102
0.00120139
0.00120132
0.00120137
0.00120087
0.00120118
0.00120138
0.00120085
0.00120125
0.00120172
0.0012017
0.00120182
0.00120173
0.00120178
0.00120183
0.00120181
0.00120183
0.00120186
0.00120147
0.00120152
0.00120196
0.00120196
0.00120185
0.00120184
0.00120185
0.00120174
0.00120163
0.00120208
0.00120221
0.001202
0.00120196
0.00120182
0.00120193
0.00120198
0.00120202
0.00120193
0.00120178
0.00120133
0.00120146
0.00120172
0.00120151
0.00120158
0.00120156
0.00120161
0.00120121
0.00120146
0.00120164
0.001201
0.00118394
0.0011982
0.00120137
0.00120166
0.00120157
0.00120159
0.00120146
0.0012012
0.00120105
0.00120094
0.00120076
0.00120056
0.00120022
0.00120037
0.00120059
0.00120044
0.00120035
0.00119979
0.00119971
0.00120036
0.00120058
0.00120035
0.00120029
0.00120028
0.00120028
0.00119979
0.00119975
0.00120011
0.00120015
0.00120005
0.00120034
0.0012005
0.00120024
0.00120069
0.00120092
0.00120078
0.00120121
0.00120139
0.00120138
0.00120162
0.00120156
0.00120154
0.00120158
0.00120171
0.00120158
0.00120155
0.00120156
0.00120149
0.00120141
0.00120117
0.00120142
0.00120174
0.00120171
0.00120168
0.00120181
0.00120191
0.00120149
0.00120173
0.00120183
0.00120145
0.00120144
0.00120209
0.00120238
0.00120217
0.00120215
0.00120213
0.00120217
0.00120184
0.0012019
0.00120193
0.00120169
0.00120182
0.00120165
0.00120156
0.00120139
0.00120132
0.00120188
0.00120214
0.00120208
0.00120209
0.00120197
0.0012019
0.00120179
0.0012015
0.00120163
0.0012017
0.00120139
0.00120141
0.0012014
0.00120108
0.00118396
0.00119827
0.00120141
0.00120198
0.00120204
0.00120187
0.00120168
0.00120165
0.00120145
0.00120131
0.00120128
0.001201
0.00120083
0.00120069
0.0012005
0.00120028
0.00120008
0.00119992
0.00120041
0.0012005
0.00120017
0.00120021
0.00119995
0.00119978
0.00119972
0.00119977
0.0011995
0.00119978
0.00119999
0.0012
0.00120005
0.00119962
0.00120007
0.00120034
0.00119999
0.00120041
0.00120088
0.00120084
0.001201
0.00120114
0.00120128
0.0012011
0.00120119
0.0012013
0.0012013
0.00120138
0.00120109
0.00120146
0.00120173
0.00120173
0.00120185
0.0012017
0.00120175
0.00120167
0.00120188
0.00120194
0.00120182
0.00120185
0.00120189
0.0012018
0.00120155
0.00120186
0.00120246
0.00120244
0.00120231
0.00120216
0.00120213
0.00120215
0.00120199
0.0012016
0.00120171
0.00120193
0.00120186
0.00120182
0.00120197
0.00120204
0.00120195
0.00120192
0.00120167
0.00120165
0.00120161
0.00120173
0.00120177
0.00120161
0.00120146
0.00120143
0.00120146
0.00120148
0.00120147
0.00120107
0.00118398
0.0011983
0.00120146
0.00120203
0.00120192
0.00120174
0.00120171
0.00120158
0.00120142
0.00120113
0.00120096
0.00120081
0.00120079
0.00120064
0.00120044
0.00120027
0.00120009
0.00119978
0.0012001
0.00120066
0.00120046
0.00120043
0.00120038
0.00120021
0.00120007
0.0011999
0.00119962
0.00119994
0.00120011
0.00119966
0.0012
0.00120054
0.00120061
0.00120078
0.00120078
0.00120075
0.00120075
0.00120083
0.00120098
0.00120105
0.00120104
0.00120119
0.00120138
0.00120133
0.00120102
0.00120123
0.0012016
0.00120165
0.00120164
0.00120174
0.00120184
0.00120136
0.00120169
0.00120201
0.00120185
0.0012019
0.00120197
0.001202
0.00120192
0.00120177
0.00120155
0.00120196
0.0012021
0.00120166
0.00120188
0.00120193
0.00120159
0.00120176
0.00120205
0.00120183
0.00120192
0.00120213
0.00120205
0.00120198
0.00120201
0.00120192
0.00120182
0.00120163
0.00120154
0.00120137
0.00120131
0.0012018
0.00120188
0.00120179
0.00120174
0.00120173
0.00120178
0.00120175
0.00120174
0.00120113
0.00118398
0.00119825
0.00120087
0.00120083
0.00120079
0.00120049
0.0012008
0.00120096
0.00120061
0.00120058
0.00120039
0.00120081
0.00120109
0.00120084
0.00120077
0.00120072
0.00120058
0.00120025
0.00120016
0.00120026
0.00120005
0.00119955
0.00119967
0.00119975
0.00119921
0.00119954
0.00119995
0.00119993
0.00120007
0.00119999
0.00120021
0.00120052
0.00120048
0.00120049
0.00120059
0.00120017
0.0012005
0.00120076
0.00120037
0.00120089
0.00120123
0.00120091
0.0012014
0.00120167
0.00120141
0.00120184
0.00120204
0.00120188
0.00120188
0.0012018
0.00120158
0.00120177
0.00120185
0.00120184
0.00120185
0.0012013
0.00120154
0.00120185
0.00120177
0.00120176
0.00120127
0.00120153
0.00120184
0.00120176
0.00120174
0.00120125
0.00120122
0.00120186
0.00120245
0.00120242
0.00120229
0.00120215
0.00120214
0.00120214
0.0012022
0.00120186
0.00120194
0.00120199
0.0012018
0.00120181
0.00120185
0.00120196
0.00120187
0.00120176
0.0012015
0.00120153
0.00120165
0.00120148
0.00120149
0.0012011
0.00118397
0.00119844
0.00120096
0.00120088
0.00120093
0.00120086
0.00120085
0.00120066
0.00120042
0.00120069
0.00120154
0.00120166
0.00120162
0.00120154
0.00120147
0.00120138
0.00120131
0.00120106
0.00120085
0.00120079
0.00120063
0.00120045
0.00120031
0.00120014
0.0012
0.00119965
0.00119955
0.00119999
0.00120014
0.00120007
0.00119996
0.00120033
0.00120054
0.0012003
0.00120078
0.00120104
0.00120092
0.00120125
0.00120151
0.00120162
0.0012017
0.00120182
0.00120184
0.00120181
0.00120184
0.00120195
0.00120186
0.00120179
0.00120188
0.00120178
0.00120175
0.00120167
0.00120159
0.00120139
0.00120172
0.00120194
0.00120182
0.0012018
0.0012013
0.00120155
0.00120186
0.00120163
0.0012017
0.00120169
0.00120173
0.00120132
0.00120153
0.00120184
0.00120163
0.0012017
0.00120158
0.00120133
0.00120155
0.00120184
0.00120175
0.00120176
0.00120146
0.00120186
0.00120201
0.00120185
0.00120184
0.00120174
0.00120159
0.00120171
0.00120184
0.00120151
0.00120149
0.00120169
0.0012017
0.00120112
0.00118399
0.00119833
0.00120151
0.00120207
0.00120211
0.00120206
0.00120202
0.00120196
0.0012019
0.00120183
0.00120176
0.00120169
0.00120161
0.00120153
0.00120144
0.00120136
0.00120129
0.00120104
0.00120081
0.00120075
0.00120058
0.00120039
0.00120025
0.00120008
0.00119993
0.00119982
0.00119959
0.00119979
0.0012
0.00119983
0.0012002
0.00120041
0.00120017
0.00120066
0.00120092
0.00120081
0.00120114
0.00120149
0.00120177
0.00120187
0.00120198
0.00120223
0.00120233
0.00120242
0.00120235
0.00120226
0.00120233
0.00120219
0.00120212
0.0012021
0.00120218
0.001202
0.00120192
0.00120188
0.00120194
0.00120174
0.00120162
0.00120149
0.00120141
0.00120187
0.00120236
0.0012022
0.00120219
0.00120217
0.0012022
0.00120188
0.00120192
0.00120194
0.00120172
0.00120184
0.00120167
0.00120158
0.00120128
0.0012015
0.0012018
0.0012017
0.00120168
0.00120118
0.00120144
0.00120175
0.00120176
0.00120176
0.00120138
0.00120133
0.00120109
0.00120126
0.00120164
0.00120157
0.00120156
0.0012011
0.001184
0.00119839
0.00120088
0.001201
0.00120097
0.00120076
0.00120079
0.00120057
0.00120074
0.00120159
0.00120172
0.00120167
0.0012016
0.00120151
0.00120142
0.00120134
0.0012011
0.00120086
0.00120076
0.0012007
0.00120051
0.00120031
0.00120011
0.00119994
0.00119986
0.00119977
0.00119953
0.00119972
0.00119994
0.00119978
0.00120016
0.00120038
0.00120015
0.00120065
0.00120092
0.00120082
0.00120116
0.00120153
0.00120181
0.00120192
0.00120192
0.00120186
0.00120182
0.00120185
0.00120197
0.00120188
0.00120184
0.00120157
0.00120175
0.00120183
0.0012015
0.00120163
0.00120168
0.00120134
0.00120158
0.00120192
0.00120183
0.00120181
0.00120132
0.00120158
0.00120189
0.0012018
0.00120178
0.00120128
0.00120154
0.00120185
0.00120185
0.00120184
0.00120146
0.00120141
0.00120117
0.00120122
0.00120204
0.0012022
0.001202
0.00120197
0.00120171
0.00120166
0.00120187
0.00120212
0.00120204
0.00120198
0.00120204
0.00120195
0.00120188
0.00120174
0.00120126
0.00120145
0.00120163
0.00120099
0.00118397
0.0011985
0.00120089
0.00120057
0.00120085
0.00120098
0.00120041
0.00120067
0.00120099
0.00120084
0.00120074
0.00120017
0.00120035
0.00120058
0.00120041
0.00120029
0.0011997
0.00119988
0.00120011
0.00119981
0.0011997
0.00119966
0.00119938
0.00119945
0.00119971
0.00119963
0.00119958
0.00119975
0.00119989
0.00119953
0.00120003
0.00120034
0.00120015
0.00120037
0.00120051
0.00120054
0.0012006
0.00120058
0.00120086
0.00120104
0.0012007
0.00120113
0.00120143
0.00120103
0.00120137
0.00120155
0.00120115
0.0012015
0.00120188
0.00120155
0.00120156
0.00120155
0.00120163
0.00120136
0.0012016
0.00120175
0.00120124
0.00120151
0.00120182
0.00120156
0.00120155
0.00120127
0.00120155
0.00120189
0.00120154
0.00120157
0.00120178
0.00120178
0.00120165
0.00120158
0.00120153
0.00120122
0.00120144
0.0012016
0.00120109
0.00120136
0.00120167
0.00120141
0.0012014
0.00120113
0.00120137
0.00120165
0.00120139
0.00120139
0.00120111
0.00120125
0.00120175
0.00120188
0.00120173
0.00120112
0.00118398
0.00119845
0.00120112
0.00120132
0.00120112
0.00120057
0.00120052
0.00120111
0.00120176
0.00120167
0.00120147
0.00120139
0.00120118
0.00120096
0.00120068
0.00120048
0.00120031
0.00120007
0.00119983
0.00119946
0.00119957
0.00119979
0.00119963
0.00119956
0.00119904
0.00119929
0.00119962
0.00119958
0.00119974
0.00119975
0.00120002
0.00120036
0.00120038
0.00120032
0.00120047
0.00120021
0.00120061
0.0012009
0.00120054
0.00120108
0.00120144
0.00120114
0.00120164
0.0012019
0.00120164
0.00120197
0.00120219
0.00120215
0.00120219
0.00120181
0.00120192
0.00120197
0.00120166
0.0012018
0.00120207
0.00120196
0.00120143
0.00120158
0.00120184
0.00120158
0.00120157
0.00120129
0.0012016
0.0012018
0.00120151
0.00120152
0.00120139
0.00120183
0.00120246
0.00120244
0.00120232
0.00120219
0.00120219
0.0012019
0.00120183
0.0012021
0.00120217
0.00120207
0.00120198
0.00120204
0.00120211
0.00120192
0.00120185
0.00120152
0.00120171
0.00120183
0.00120154
0.00120156
0.00120155
0.00120118
0.00118398
0.00119846
0.00120099
0.001201
0.00120108
0.00120104
0.00120103
0.00120063
0.00120077
0.00120158
0.0012017
0.00120164
0.00120155
0.00120145
0.00120135
0.00120125
0.00120115
0.00120087
0.00120063
0.00120054
0.00120032
0.00119992
0.00119978
0.00119976
0.00119963
0.00119926
0.00119944
0.00119963
0.0011992
0.00119952
0.00119971
0.00119939
0.0011999
0.00120025
0.00119993
0.00120052
0.00120092
0.00120068
0.00120123
0.00120155
0.00120134
0.00120182
0.00120206
0.00120194
0.00120196
0.00120191
0.0012017
0.00120189
0.00120197
0.00120182
0.00120181
0.00120133
0.00120143
0.00120181
0.00120183
0.00120196
0.00120177
0.00120166
0.00120156
0.0012017
0.00120194
0.00120187
0.00120172
0.00120139
0.00120148
0.0012019
0.00120165
0.00120191
0.00120199
0.00120164
0.00120161
0.00120132
0.00120158
0.00120173
0.00120142
0.00120144
0.00120131
0.00120182
0.00120202
0.00120184
0.00120192
0.00120175
0.00120171
0.00120168
0.00120174
0.00120173
0.00120177
0.00120161
0.0012015
0.0012011
0.001184
0.00119834
0.00120153
0.00120209
0.00120213
0.00120208
0.00120203
0.00120196
0.00120189
0.00120181
0.00120172
0.00120163
0.00120153
0.00120143
0.00120133
0.00120121
0.0012011
0.00120084
0.00120059
0.00120049
0.00120026
0.00120004
0.00119976
0.00119959
0.00119953
0.00119948
0.00119928
0.00119947
0.00119969
0.00119955
0.00119998
0.00120024
0.00120007
0.0012005
0.00120111
0.00120134
0.00120149
0.00120165
0.00120181
0.00120207
0.00120237
0.00120238
0.00120233
0.00120242
0.00120231
0.00120225
0.00120225
0.00120233
0.00120216
0.00120207
0.00120208
0.00120178
0.0012017
0.00120225
0.00120232
0.00120228
0.00120235
0.00120213
0.00120234
0.0012024
0.00120226
0.00120237
0.00120221
0.00120222
0.00120222
0.00120193
0.00120199
0.00120201
0.00120176
0.00120187
0.0012017
0.0012016
0.0012013
0.00120151
0.00120182
0.00120171
0.00120169
0.00120119
0.00120145
0.00120176
0.00120167
0.00120165
0.00120116
0.00120142
0.00120174
0.00120175
0.00120174
0.0012015
0.00120146
0.00120101
0.00118397
0.00119851
0.0012009
0.00120086
0.00120088
0.00120072
0.00120108
0.00120117
0.00120077
0.00120066
0.00120058
0.0012002
0.00120031
0.0012005
0.00120029
0.00120015
0.00119955
0.00119943
0.0012
0.0012003
0.0012
0.00119991
0.00119985
0.00119983
0.00119964
0.00119953
0.00119927
0.00119937
0.00119961
0.00119949
0.00119993
0.00120021
0.00120005
0.00120049
0.00120114
0.0012014
0.00120153
0.00120175
0.0012018
0.0012018
0.00120192
0.00120183
0.00120183
0.00120186
0.00120181
0.00120173
0.00120164
0.0012016
0.00120207
0.00120246
0.0012024
0.00120243
0.00120229
0.00120214
0.00120166
0.00120177
0.00120202
0.00120193
0.00120191
0.00120141
0.00120136
0.00120206
0.0012022
0.00120188
0.00120184
0.00120179
0.00120191
0.00120174
0.00120164
0.00120147
0.0012014
0.00120192
0.00120233
0.00120213
0.00120213
0.00120212
0.00120212
0.00120211
0.00120204
0.00120193
0.00120152
0.00120163
0.001202
0.00120189
0.00120191
0.00120194
0.00120196
0.0012018
0.00120162
0.0012011
0.001184
0.00119834
0.00120153
0.00120209
0.00120213
0.00120208
0.00120202
0.00120195
0.00120188
0.00120179
0.0012017
0.0012016
0.00120149
0.00120138
0.00120126
0.00120114
0.00120102
0.00120074
0.00120047
0.00120035
0.00120011
0.00119969
0.00119946
0.00119939
0.00119939
0.00119902
0.00119922
0.00119941
0.00119922
0.00119934
0.00119954
0.00119948
0.00119989
0.00120025
0.00119997
0.00120059
0.00120103
0.00120081
0.00120139
0.00120173
0.00120153
0.00120202
0.00120224
0.0012021
0.00120227
0.00120231
0.00120241
0.00120235
0.00120225
0.00120222
0.00120184
0.00120187
0.00120218
0.00120207
0.00120208
0.00120183
0.00120206
0.00120277
0.00120277
0.00120264
0.00120246
0.00120232
0.00120213
0.00120211
0.00120209
0.00120182
0.00120198
0.001202
0.00120177
0.00120188
0.00120171
0.00120161
0.00120131
0.00120152
0.00120182
0.00120172
0.00120169
0.0012012
0.00120145
0.00120176
0.00120167
0.00120166
0.00120116
0.00120142
0.00120174
0.00120163
0.00120163
0.00120136
0.00120131
0.00120099
0.00118401
0.00119815
0.00120147
0.00120181
0.00120156
0.00120151
0.00120147
0.00120146
0.00120117
0.0012008
0.00120055
0.00120017
0.00120026
0.00120045
0.00120023
0.00120008
0.00119946
0.00119959
0.00119978
0.00119948
0.00119927
0.0011992
0.00119916
0.00119898
0.00119874
0.0011989
0.00119911
0.00119865
0.00119909
0.00119967
0.00119986
0.00120001
0.00120031
0.0012006
0.00120051
0.00120081
0.001201
0.00120126
0.00120131
0.00120107
0.00120145
0.00120172
0.00120131
0.00120177
0.00120222
0.00120189
0.00120211
0.00120227
0.00120221
0.00120219
0.0012019
0.00120169
0.00120213
0.00120289
0.001203
0.001203
0.00120299
0.00120297
0.00120295
0.00120294
0.00120279
0.00120264
0.00120257
0.00120258
0.00120239
0.00120237
0.00120236
0.00120207
0.00120213
0.00120214
0.00120177
0.0012019
0.00120192
0.00120171
0.00120169
0.00120155
0.00120156
0.00120124
0.00120121
0.00120187
0.00120195
0.00120192
0.00120192
0.00120174
0.00120178
0.0012018
0.00120172
0.00120149
0.00120138
0.00120103
0.00118401
0.00119815
0.00120144
0.00120207
0.00120212
0.00120207
0.00120202
0.00120194
0.00120186
0.00120177
0.00120167
0.00120157
0.00120146
0.00120133
0.0012012
0.00120107
0.00120093
0.00120064
0.00120036
0.00120007
0.0011998
0.00119971
0.00119964
0.00119932
0.00119918
0.00119897
0.0011989
0.00119868
0.00119906
0.00119938
0.00119939
0.00119961
0.00119953
0.00119995
0.00120027
0.00120044
0.00120068
0.00120059
0.00120113
0.00120151
0.00120115
0.00120167
0.00120202
0.00120173
0.00120177
0.0012017
0.00120207
0.00120223
0.00120222
0.00120221
0.00120165
0.00120158
0.00120217
0.00120292
0.00120303
0.00120303
0.00120301
0.001203
0.00120285
0.0012027
0.00120264
0.00120265
0.00120244
0.00120242
0.0012024
0.00120224
0.00120227
0.00120193
0.00120192
0.00120191
0.00120173
0.00120173
0.00120158
0.0012016
0.00120127
0.00120149
0.00120181
0.00120171
0.00120168
0.00120119
0.00120115
0.00120186
0.00120201
0.0012018
0.00120178
0.00120181
0.00120183
0.00120173
0.00120167
0.00120116
0.001184
0.00119834
0.00120153
0.0012021
0.00120212
0.00120208
0.00120201
0.00120194
0.00120185
0.00120176
0.00120166
0.00120155
0.00120143
0.00120131
0.00120117
0.00120103
0.00120088
0.00120074
0.00120044
0.00120016
0.00119986
0.00119961
0.00119948
0.00119927
0.00119915
0.00119876
0.00119894
0.0011992
0.00119905
0.00119925
0.00119948
0.00119941
0.00119986
0.00120026
0.00120002
0.00120068
0.00120115
0.00120095
0.00120155
0.0012019
0.00120171
0.00120218
0.00120253
0.00120255
0.00120263
0.00120255
0.00120249
0.00120238
0.00120233
0.00120198
0.00120186
0.00120242
0.00120302
0.00120309
0.00120308
0.00120306
0.00120304
0.00120293
0.00120276
0.0012027
0.00120271
0.00120248
0.00120235
0.00120228
0.0012023
0.00120225
0.00120208
0.00120195
0.00120176
0.00120161
0.00120156
0.0012016
0.00120131
0.00120153
0.00120183
0.00120172
0.0012017
0.0012012
0.00120146
0.00120177
0.00120164
0.00120162
0.00120137
0.00120133
0.00120109
0.00120126
0.00120164
0.00120157
0.00120156
0.0012011
0.00118401
0.00119815
0.00120144
0.00120207
0.00120212
0.00120207
0.00120201
0.00120193
0.00120185
0.00120175
0.00120165
0.00120153
0.00120142
0.00120128
0.00120114
0.00120101
0.0012007
0.00120041
0.0012001
0.00119981
0.0011997
0.00119959
0.00119925
0.00119891
0.00119871
0.00119842
0.00119873
0.00119898
0.00119861
0.00119919
0.00119966
0.00119951
0.0011999
0.00120044
0.00120064
0.00120077
0.00120055
0.00120088
0.00120135
0.00120152
0.0012016
0.00120183
0.00120201
0.00120158
0.00120191
0.00120206
0.00120165
0.001202
0.00120221
0.00120192
0.00120193
0.0012018
0.00120221
0.00120297
0.00120308
0.00120308
0.00120305
0.00120303
0.00120301
0.00120289
0.00120273
0.00120267
0.00120267
0.00120247
0.00120234
0.00120225
0.00120228
0.0012021
0.00120191
0.00120176
0.0012016
0.00120157
0.00120154
0.00120158
0.00120143
0.00120137
0.00120186
0.00120192
0.00120169
0.00120166
0.00120141
0.0012016
0.00120166
0.00120149
0.00120148
0.00120151
0.00120131
0.00120149
0.00120166
0.00120101
0.00118402
0.00119815
0.00120144
0.00120206
0.00120212
0.00120191
0.00120171
0.00120165
0.00120147
0.00120106
0.00120083
0.00120074
0.00120064
0.00120056
0.00120031
0.00120002
0.00119943
0.00119951
0.00119987
0.00119946
0.00119941
0.00119946
0.00119923
0.00119898
0.00119847
0.00119864
0.00119883
0.00119842
0.00119885
0.00119914
0.00119892
0.00119954
0.00119999
0.00119978
0.00120047
0.00120098
0.00120108
0.00120138
0.00120152
0.00120138
0.0012017
0.00120195
0.00120171
0.00120184
0.00120186
0.00120198
0.00120174
0.00120174
0.00120244
0.00120309
0.00120319
0.00120319
0.00120317
0.00120315
0.00120312
0.0012031
0.00120307
0.00120304
0.00120302
0.00120299
0.00120296
0.00120294
0.00120291
0.00120289
0.00120287
0.00120286
0.00120276
0.0012026
0.00120252
0.00120253
0.00120234
0.00120221
0.00120214
0.00120212
0.00120199
0.00120172
0.00120189
0.00120193
0.00120168
0.0012018
0.00120163
0.00120154
0.00120124
0.00120123
0.00120153
0.0012016
0.00120161
0.00120148
0.0012015
0.00120113
0.00118399
0.00119831
0.00120095
0.00120114
0.00120096
0.00120083
0.00120063
0.00120068
0.00120071
0.0012001
0.00120033
0.00120061
0.00120005
0.00120004
0.00119993
0.00119941
0.00119925
0.00119972
0.00120017
0.00119995
0.00119966
0.00119941
0.00119927
0.00119906
0.00119895
0.00119858
0.00119878
0.00119903
0.00119869
0.00119923
0.00119974
0.00119965
0.00120027
0.00120076
0.00120083
0.00120132
0.00120164
0.00120189
0.00120214
0.00120222
0.00120214
0.00120214
0.00120218
0.00120214
0.00120206
0.00120183
0.00120206
0.00120236
0.00120214
0.00120213
0.00120215
0.00120189
0.001202
0.00120227
0.0012019
0.00120184
0.00120178
0.00120179
0.0012015
0.00120175
0.00120188
0.00120134
0.00120163
0.00120177
0.00120124
0.00120148
0.0012021
0.00120194
0.00120199
0.00120203
0.00120189
0.0012019
0.00120171
0.00120161
0.00120131
0.00120152
0.00120182
0.00120171
0.00120169
0.0012012
0.00120145
0.00120176
0.00120153
0.00120153
0.00120155
0.00120131
0.00120145
0.00120174
0.00120163
0.00120133
0.001184
0.00119834
0.00120153
0.00120209
0.00120212
0.00120206
0.00120199
0.00120191
0.00120183
0.00120173
0.00120162
0.0012015
0.00120138
0.00120109
0.0012008
0.00120048
0.00120019
0.00119999
0.00119968
0.00119924
0.00119902
0.00119891
0.00119841
0.00119852
0.00119876
0.00119851
0.0011986
0.00119851
0.00119895
0.00119925
0.00119942
0.00119948
0.0011999
0.00120031
0.00120058
0.00120076
0.00120107
0.00120138
0.00120157
0.00120165
0.00120184
0.00120204
0.00120162
0.00120207
0.00120251
0.00120242
0.00120246
0.00120237
0.00120221
0.00120239
0.0012031
0.00120322
0.00120321
0.00120319
0.00120316
0.00120313
0.0012031
0.00120307
0.00120304
0.00120301
0.00120298
0.00120296
0.00120293
0.00120291
0.00120288
0.00120286
0.00120284
0.00120282
0.00120281
0.00120271
0.00120255
0.00120247
0.00120249
0.00120229
0.00120215
0.00120212
0.00120198
0.00120184
0.00120169
0.00120181
0.00120199
0.00120167
0.00120185
0.00120189
0.00120165
0.0012017
0.00120165
0.00120174
0.00120158
0.00120111
0.001184
0.00119834
0.00120153
0.00120209
0.00120212
0.00120207
0.00120199
0.00120192
0.00120182
0.00120173
0.00120162
0.0012015
0.00120136
0.00120122
0.00120106
0.0012009
0.00120073
0.00120042
0.00120011
0.00119978
0.00119948
0.0011993
0.00119906
0.00119872
0.00119854
0.0011984
0.00119871
0.001199
0.00119892
0.0011992
0.00119949
0.00119972
0.00120032
0.00120078
0.00120085
0.00120134
0.00120193
0.00120221
0.00120232
0.00120251
0.00120266
0.00120265
0.00120257
0.00120265
0.00120262
0.00120254
0.00120248
0.00120238
0.00120211
0.00120239
0.00120313
0.00120324
0.00120323
0.0012032
0.00120317
0.00120314
0.00120311
0.00120308
0.00120305
0.00120302
0.00120299
0.00120296
0.00120293
0.00120291
0.00120289
0.00120287
0.00120284
0.00120283
0.00120281
0.00120279
0.00120277
0.00120277
0.00120261
0.00120247
0.00120245
0.00120247
0.00120232
0.00120218
0.0012021
0.00120196
0.00120199
0.00120183
0.00120191
0.00120195
0.00120166
0.00120173
0.00120175
0.00120164
0.00120152
0.00120113
0.00118399
0.00119842
0.0012011
0.00120107
0.00120102
0.00120112
0.00120107
0.00120053
0.00120061
0.00120058
0.00119996
0.00120003
0.00120086
0.00120113
0.00120104
0.00120089
0.00120071
0.00120055
0.00120022
0.00119991
0.00119959
0.0011993
0.00119916
0.00119879
0.00119881
0.00119888
0.00119868
0.00119888
0.00119882
0.00119893
0.00119902
0.00119957
0.0012
0.0011998
0.00120052
0.00120104
0.0012009
0.00120143
0.00120213
0.00120242
0.00120254
0.00120259
0.00120268
0.00120269
0.00120253
0.00120245
0.0012025
0.00120254
0.00120236
0.00120213
0.00120209
0.00120211
0.00120193
0.00120187
0.00120237
0.00120302
0.00120311
0.00120294
0.00120278
0.00120262
0.00120247
0.00120238
0.00120239
0.00120221
0.001202
0.00120183
0.00120167
0.00120164
0.00120161
0.00120165
0.00120149
0.00120142
0.00120192
0.00120247
0.00120243
0.00120229
0.00120214
0.0012021
0.00120213
0.00120181
0.00120185
0.00120187
0.00120166
0.00120178
0.00120161
0.00120152
0.00120122
0.00120148
0.00120165
0.00120101
0.001184
0.00119834
0.00120153
0.00120209
0.00120211
0.00120206
0.001202
0.00120191
0.00120182
0.00120173
0.00120147
0.00120121
0.00120091
0.00120063
0.00120049
0.00120029
0.00119998
0.00119954
0.0011993
0.00119915
0.0011986
0.0011987
0.00119876
0.00119863
0.0011985
0.00119854
0.00119868
0.0011982
0.00119865
0.00119907
0.00119925
0.00119928
0.00119973
0.00120015
0.00120007
0.00120035
0.00120042
0.00120111
0.0012016
0.00120131
0.00120174
0.00120197
0.00120162
0.001202
0.00120217
0.00120168
0.00120205
0.00120244
0.00120209
0.00120214
0.00120234
0.0012023
0.00120214
0.00120179
0.00120195
0.00120226
0.001202
0.00120197
0.00120197
0.00120198
0.00120184
0.00120149
0.00120168
0.00120182
0.00120128
0.00120162
0.00120185
0.00120127
0.00120154
0.00120168
0.00120117
0.00120118
0.00120179
0.00120181
0.00120159
0.00120161
0.00120158
0.00120158
0.00120116
0.00120137
0.00120167
0.00120136
0.00120132
0.00120111
0.0012014
0.00120153
0.00120101
0.00120135
0.00120152
0.00120094
0.001184
0.00119834
0.00120153
0.00120209
0.00120212
0.00120206
0.001202
0.00120191
0.00120182
0.00120172
0.00120161
0.00120148
0.00120135
0.0012012
0.00120106
0.00120074
0.00120044
0.0012001
0.00119979
0.00119962
0.00119949
0.0011992
0.00119878
0.00119852
0.00119817
0.00119844
0.00119866
0.00119827
0.00119872
0.00119907
0.0011988
0.00119938
0.00119984
0.00119957
0.00120025
0.00120097
0.00120117
0.00120143
0.00120115
0.00120163
0.00120196
0.0012018
0.00120191
0.00120187
0.00120232
0.00120269
0.00120262
0.00120267
0.00120256
0.00120239
0.00120194
0.0012021
0.00120214
0.00120158
0.00120189
0.00120225
0.001202
0.00120197
0.00120197
0.0012017
0.0012018
0.00120206
0.00120195
0.00120191
0.0012014
0.00120169
0.00120187
0.00120127
0.00120154
0.0012017
0.00120118
0.00120152
0.00120176
0.00120157
0.00120154
0.00120121
0.00120144
0.00120159
0.00120123
0.00120144
0.0012017
0.00120152
0.0012016
0.00120159
0.00120164
0.00120123
0.00120148
0.00120166
0.00120158
0.00120138
0.001184
0.00119834
0.00120153
0.00120209
0.00120212
0.00120206
0.001202
0.00120191
0.00120182
0.00120172
0.00120161
0.00120148
0.00120135
0.00120121
0.00120105
0.00120089
0.00120071
0.00120055
0.00120022
0.00119991
0.00119959
0.00119931
0.00119916
0.00119894
0.00119882
0.00119875
0.00119859
0.00119884
0.00119924
0.00119937
0.00119968
0.00119987
0.00120036
0.00120079
0.00120086
0.00120137
0.0012017
0.00120183
0.00120206
0.00120222
0.00120241
0.00120234
0.00120215
0.00120223
0.00120241
0.00120244
0.00120246
0.00120196
0.00120189
0.00120268
0.0012032
0.00120326
0.00120324
0.00120321
0.00120318
0.00120315
0.00120312
0.00120308
0.00120305
0.00120302
0.00120299
0.00120296
0.00120294
0.00120291
0.00120289
0.00120287
0.00120285
0.00120283
0.00120281
0.0012028
0.00120268
0.00120253
0.00120246
0.00120248
0.00120229
0.00120217
0.00120211
0.00120209
0.00120196
0.00120169
0.00120184
0.00120188
0.00120166
0.00120164
0.00120151
0.00120154
0.00120121
0.00120147
0.00120166
0.00120101
0.001184
0.00119834
0.00120153
0.00120209
0.00120212
0.00120207
0.00120199
0.00120192
0.00120183
0.00120173
0.00120161
0.0012015
0.00120136
0.00120122
0.00120106
0.0012009
0.00120074
0.00120041
0.0012001
0.00119977
0.00119948
0.00119936
0.00119929
0.00119905
0.00119889
0.00119854
0.00119873
0.00119898
0.00119874
0.00119925
0.00119972
0.00119966
0.00120031
0.00120078
0.00120086
0.00120134
0.00120193
0.00120221
0.00120232
0.00120251
0.00120266
0.00120265
0.00120257
0.00120265
0.00120262
0.00120254
0.00120248
0.00120238
0.00120211
0.00120239
0.00120313
0.00120324
0.00120323
0.0012032
0.00120317
0.00120314
0.00120311
0.00120308
0.00120305
0.00120302
0.00120299
0.00120296
0.00120294
0.00120291
0.00120289
0.00120287
0.00120283
0.00120266
0.00120258
0.00120256
0.00120253
0.00120235
0.00120221
0.00120192
0.00120202
0.00120211
0.00120195
0.00120201
0.00120204
0.00120205
0.0012019
0.00120173
0.00120166
0.0012017
0.00120169
0.00120176
0.00120146
0.00120149
0.00120152
0.00120103
0.001184
0.00119834
0.00120153
0.00120209
0.00120212
0.00120207
0.001202
0.00120192
0.00120183
0.00120173
0.00120162
0.0012015
0.00120138
0.00120109
0.00120079
0.00120047
0.00120018
0.00119998
0.00119969
0.00119925
0.00119901
0.00119889
0.00119841
0.00119852
0.00119876
0.0011987
0.00119869
0.00119893
0.00119917
0.00119927
0.00119949
0.0011997
0.00120008
0.00120029
0.0012006
0.00120049
0.00120099
0.00120137
0.00120156
0.00120165
0.00120184
0.00120204
0.00120162
0.00120207
0.00120251
0.00120229
0.00120229
0.00120236
0.00120229
0.00120242
0.00120309
0.00120322
0.00120321
0.00120319
0.00120316
0.00120313
0.0012031
0.00120307
0.00120304
0.00120301
0.00120298
0.00120296
0.00120293
0.00120291
0.00120288
0.00120287
0.0012027
0.00120259
0.00120257
0.00120254
0.00120235
0.00120228
0.00120226
0.00120215
0.00120237
0.0012024
0.00120214
0.00120212
0.00120195
0.00120193
0.00120193
0.00120167
0.00120182
0.00120184
0.00120152
0.0012017
0.00120174
0.00120148
0.00120146
0.00120108
0.00118399
0.00119831
0.00120095
0.00120115
0.00120097
0.00120083
0.00120062
0.00120068
0.00120094
0.00120075
0.00120062
0.00120001
0.00120014
0.00120034
0.00119986
0.00119966
0.00119923
0.0011991
0.00119964
0.00119987
0.00119954
0.0011994
0.00119927
0.00119906
0.00119894
0.00119886
0.00119871
0.00119895
0.0011993
0.00119942
0.00119972
0.00119988
0.00120034
0.00120077
0.00120083
0.0012013
0.0012019
0.00120205
0.00120215
0.00120238
0.00120242
0.00120226
0.00120223
0.00120225
0.00120219
0.0012021
0.00120185
0.00120207
0.00120236
0.00120201
0.00120197
0.00120192
0.00120194
0.00120165
0.00120189
0.00120202
0.00120148
0.00120171
0.00120215
0.00120194
0.00120192
0.00120153
0.00120169
0.00120199
0.00120189
0.00120186
0.00120135
0.00120131
0.00120193
0.00120265
0.00120261
0.00120251
0.00120251
0.00120231
0.00120217
0.00120216
0.00120219