/*--------------------------------*- C++ -*----------------------------------*\
  =========                 |
  \\      /  F ield         | OpenFOAM: The Open Source CFD Toolbox
   \\    /   O peration     | Website:  https://openfoam.org
    \\  /    A nd           | Version:  11
     \\/     M anipulation  |
\*---------------------------------------------------------------------------*/
FoamFile
{
    format      ascii;
    class       volScalarField;
    location    "0.014";
    object      p;
}
// * * * * * * * * * * * * * * * * * * * * * * * * * * * * * * * * * * * * * //

dimensions      [0 2 -2 0 0 0 0];

internalField   nonuniform List<scalar> 
287084
(
1.12649
0.857832
0.775023
0.716801
0.6571
0.607802
0.565638
0.527914
0.490952
0.454411
0.419147
0.384445
0.350507
0.317114
0.284328
0.252244
0.221154
0.190742
0.161283
0.133353
0.106328
0.0808605
0.0574353
0.0359019
0.0174309
0.00053601
-0.015367
-0.0241874
-0.0268579
-0.03136
-0.0366495
-0.0379902
-0.0358722
-0.031644
-0.025098
-0.0167598
-0.0067292
0.00423639
0.0159059
0.0282614
0.0406972
0.0530397
0.0651085
0.076731
0.0877707
0.0981547
0.107819
0.116683
0.1247
0.131774
0.137868
0.142132
0.145784
0.151062
0.155436
0.159337
0.162849
0.162497
0.162666
0.163666
0.165276
0.165294
0.161192
0.161043
0.161191
0.15598
0.153435
0.15151
0.146011
0.139997
0.137125
0.133538
0.12566
0.119157
0.114164
0.109373
0.103829
0.0952796
0.0890299
0.0838515
0.0753964
0.0666312
0.0591411
0.0513905
0.0428023
0.0336095
0.0242371
0.014443
0.00489868
-0.000155293
0.995219
0.814809
0.752316
0.702078
0.649548
0.603807
0.562777
0.524648
0.488027
0.452258
0.417103
0.382645
0.348662
0.315367
0.282361
0.250144
0.2188
0.188159
0.158577
0.130218
0.103207
0.0775402
0.0537492
0.0325857
0.0137472
-0.0033672
-0.0174643
-0.0262386
-0.0332134
-0.0389826
-0.0423539
-0.0427706
-0.0403355
-0.0356362
-0.0288018
-0.0202194
-0.010019
0.00146965
0.0133962
0.0259323
0.0386326
0.0512215
0.0634925
0.0753157
0.0865309
0.0970776
0.106867
0.115871
0.12405
0.131352
0.137794
0.143344
0.14823
0.152714
0.155642
0.157847
0.161267
0.163473
0.163622
0.163985
0.164878
0.164815
0.163468
0.161263
0.159766
0.157433
0.153748
0.150439
0.146252
0.141311
0.136951
0.13219
0.126179
0.120026
0.114097
0.108198
0.101913
0.0948907
0.0881019
0.0812924
0.0736627
0.065915
0.0583099
0.0504312
0.0421432
0.0335952
0.0247196
0.0154543
0.00675455
0.00124423
0.965822
0.801815
0.741714
0.692135
0.641786
0.597941
0.558032
0.520496
0.484169
0.448596
0.413774
0.379348
0.34531
0.311541
0.278341
0.245754
0.213965
0.183002
0.153078
0.124272
0.0965756
0.0707395
0.0465337
0.0246158
0.00567737
-0.0110732
-0.0251461
-0.0360472
-0.0434869
-0.0488562
-0.0517331
-0.0515974
-0.0488402
-0.0436253
-0.0363329
-0.0269567
-0.016345
-0.0045694
0.00816976
0.0211991
0.0343794
0.0474444
0.0601752
0.0723876
0.0839746
0.0948376
0.104929
0.114192
0.122603
0.130175
0.136887
0.142695
0.147646
0.151935
0.155637
0.158988
0.16165
0.163324
0.164065
0.164688
0.165071
0.164631
0.163214
0.161344
0.159359
0.156711
0.153452
0.149893
0.145787
0.141234
0.136542
0.131558
0.125919
0.119954
0.113922
0.107747
0.101298
0.0944669
0.0875093
0.080388
0.0729077
0.0652194
0.0575312
0.0497119
0.0416498
0.033254
0.0246375
0.0157456
0.00714951
0.00123632
0.92743
0.774422
0.722481
0.677231
0.630862
0.58957
0.551267
0.514547
0.478743
0.443671
0.408924
0.374406
0.340091
0.306172
0.272431
0.239383
0.207086
0.175284
0.144758
0.115213
0.0867078
0.0603407
0.0354567
0.0129468
-0.00659337
-0.0239616
-0.0384897
-0.0496384
-0.0577405
-0.0631189
-0.0653355
-0.0648175
-0.0615
-0.0556683
-0.0475541
-0.0375122
-0.0259737
-0.0132251
0.000143913
0.0139166
0.0278045
0.0415823
0.0549684
0.0678336
0.0800246
0.0914191
0.101963
0.111641
0.120405
0.128289
0.135304
0.141447
0.146767
0.151361
0.155263
0.158546
0.161096
0.162882
0.163966
0.164548
0.164663
0.16415
0.162926
0.161196
0.159039
0.156339
0.153151
0.149527
0.145449
0.140964
0.1362
0.13109
0.125555
0.119712
0.11365
0.107361
0.100826
0.0940438
0.0870574
0.0798775
0.0724792
0.0648999
0.057243
0.0494846
0.0414732
0.0331771
0.0247834
0.0160799
0.00758872
0.0015555
0.902334
0.754389
0.706168
0.663448
0.619705
0.580502
0.543396
0.507579
0.472382
0.4374
0.402775
0.368062
0.333417
0.298986
0.264661
0.231016
0.1977
0.165062
0.133588
0.103059
0.0738823
0.0461818
0.0204615
-0.00279999
-0.0233697
-0.0411966
-0.0561248
-0.0677225
-0.0761074
-0.0813978
-0.0833102
-0.0824083
-0.0782746
-0.0714757
-0.0624878
-0.0515214
-0.0390516
-0.0254498
-0.0110328
0.00382159
0.018698
0.033414
0.0477559
0.0615027
0.0745212
0.0866984
0.0978995
0.108146
0.117415
0.125723
0.133108
0.139607
0.145246
0.15011
0.154214
0.157613
0.160265
0.162169
0.163419
0.164068
0.164165
0.163658
0.162488
0.160809
0.158621
0.155935
0.152767
0.149149
0.145106
0.140663
0.135863
0.130721
0.12523
0.119411
0.113346
0.107044
0.100504
0.0936909
0.0867098
0.0795153
0.0721448
0.0646322
0.0570253
0.049292
0.0414
0.0332828
0.0249156
0.0162646
0.00771213
0.00152872
0.88219
0.736629
0.690994
0.650458
0.608684
0.570761
0.534847
0.499654
0.464936
0.430188
0.39541
0.360416
0.325258
0.290149
0.255255
0.220536
0.186353
0.152686
0.1199
0.0879262
0.0574697
0.0286888
0.00206053
-0.0223633
-0.0441324
-0.0627839
-0.0783224
-0.0904885
-0.0990043
-0.10423
-0.105711
-0.104117
-0.0991266
-0.0914821
-0.0814236
-0.0691384
-0.0556206
-0.0408294
-0.0251757
-0.0091554
0.00695383
0.022906
0.0384152
0.053297
0.0673923
0.0805392
0.0926321
0.103652
0.113606
0.122458
0.130313
0.137202
0.143206
0.148345
0.152695
0.156288
0.159115
0.161188
0.162579
0.163333
0.163459
0.162995
0.161914
0.160281
0.158119
0.155473
0.152342
0.148747
0.144729
0.140303
0.13552
0.130389
0.124905
0.119116
0.113064
0.106741
0.100182
0.0934066
0.0864056
0.0792249
0.0718946
0.0644094
0.0568291
0.0491208
0.0411679
0.0331361
0.0249638
0.0163702
0.00792323
0.00163273
0.865772
0.721329
0.677288
0.638146
0.597968
0.561325
0.526064
0.491612
0.456924
0.422104
0.387205
0.351594
0.315913
0.280011
0.244103
0.208222
0.172744
0.137681
0.103601
0.0701303
0.038423
0.0078633
-0.0203934
-0.0460323
-0.0689297
-0.0885589
-0.104886
-0.117302
-0.126239
-0.131174
-0.132349
-0.129973
-0.12408
-0.115412
-0.10409
-0.0906612
-0.0757017
-0.0593528
-0.0422724
-0.0247748
-0.00721406
0.0101424
0.0270115
0.0431983
0.0585443
0.0728702
0.0860906
0.0980922
0.108888
0.118478
0.126913
0.1343
0.140688
0.146177
0.15082
0.154638
0.157651
0.159916
0.161472
0.162369
0.162591
0.162198
0.161212
0.15965
0.157542
0.154931
0.151855
0.14829
0.144312
0.139928
0.135147
0.130042
0.124583
0.11882
0.112777
0.106466
0.0999126
0.0931158
0.0861485
0.0789789
0.0716559
0.0641846
0.0566299
0.04898
0.0411456
0.0332041
0.0250898
0.0165083
0.00793714
0.00163897
0.85183
0.708023
0.665086
0.626859
0.587597
0.551909
0.51722
0.48286
0.448353
0.413471
0.377893
0.341751
0.305234
0.268384
0.231398
0.194248
0.157362
0.120722
0.0849189
0.0495997
0.0159095
-0.0160335
-0.0459269
-0.0731915
-0.0975406
-0.118269
-0.135389
-0.148623
-0.157661
-0.162391
-0.163161
-0.159979
-0.153072
-0.143095
-0.130394
-0.115402
-0.0986736
-0.0806519
-0.0618807
-0.0426933
-0.023468
-0.00452397
0.0138491
0.0314831
0.0481758
0.0637937
0.0782392
0.0914191
0.103229
0.113711
0.122904
0.130876
0.137754
0.143638
0.148593
0.152684
0.155965
0.158437
0.16017
0.161217
0.161568
0.161277
0.160392
0.158906
0.156884
0.154357
0.151307
0.147804
0.143861
0.139503
0.134776
0.129687
0.124252
0.118505
0.112477
0.106187
0.0996463
0.092886
0.0859115
0.078767
0.0715007
0.0640984
0.05659
0.0489426
0.0411321
0.0332237
0.0250632
0.0164459
0.00783562
0.00152032
0.839667
0.696245
0.654186
0.616665
0.577982
0.542342
0.508307
0.47433
0.439344
0.404038
0.367948
0.330926
0.293673
0.255643
0.21719
0.178711
0.140068
0.101733
0.0638594
0.0266722
-0.0090581
-0.0430869
-0.0750082
-0.103914
-0.129795
-0.151954
-0.170015
-0.183828
-0.192981
-0.19766
-0.197692
-0.193607
-0.185572
-0.174245
-0.159921
-0.143067
-0.124431
-0.10449
-0.083743
-0.0626513
-0.0415675
-0.0208692
-0.000818656
0.0183779
0.0365322
0.0535425
0.0692581
0.0836451
0.0966378
0.108163
0.118246
0.126968
0.134423
0.140758
0.1461
0.150497
0.154034
0.156744
0.158684
0.159898
0.160413
0.16026
0.159472
0.158099
0.156164
0.153691
0.150717
0.147278
0.143385
0.139057
0.134368
0.129321
0.123923
0.118199
0.112191
0.105914
0.0993887
0.0926441
0.0856694
0.0785451
0.0712284
0.0637675
0.0563173
0.0485344
0.0403527
0.0325694
0.0247855
0.0163524
0.00823639
0.00201213
0.828836
0.68559
0.64382
0.60663
0.568686
0.533675
0.499223
0.464883
0.429807
0.393804
0.356909
0.319404
0.280785
0.24172
0.202044
0.161617
0.121273
0.0808051
0.0406959
0.00144457
-0.0366533
-0.0728906
-0.106898
-0.137843
-0.165429
-0.18903
-0.208195
-0.22272
-0.232086
-0.236348
-0.235935
-0.230836
-0.22145
-0.208405
-0.192066
-0.173318
-0.15259
-0.130493
-0.107588
-0.0844039
-0.0612858
-0.038662
-0.0167947
0.00410033
0.0238496
0.0422959
0.059376
0.0750319
0.0892006
0.101866
0.112949
0.12253
0.130706
0.137585
0.143342
0.148092
0.151931
0.154905
0.157072
0.158468
0.159136
0.159137
0.158475
0.157214
0.155379
0.152994
0.150093
0.146712
0.142871
0.138612
0.13395
0.128935
0.123585
0.117879
0.111888
0.105655
0.0991298
0.0924111
0.085488
0.0783697
0.0711385
0.0638017
0.0563314
0.0487199
0.040992
0.0331108
0.024942
0.0163987
0.00787618
0.001592
0.818763
0.675645
0.634414
0.597699
0.559422
0.524127
0.489757
0.455153
0.419682
0.383228
0.345726
0.307124
0.267403
0.22688
0.1854
0.143415
0.101022
0.0583285
0.0159059
-0.0260399
-0.0663914
-0.10519
-0.14147
-0.174563
-0.204352
-0.229365
-0.24977
-0.264812
-0.274396
-0.278333
-0.277172
-0.270772
-0.259858
-0.245301
-0.226952
-0.205849
-0.182821
-0.158364
-0.133138
-0.107654
-0.0823712
-0.0576569
-0.0338295
-0.0111312
0.0102919
0.0302999
0.0487927
0.0657389
0.0811135
0.0949021
0.107078
0.117633
0.126604
0.134117
0.140372
0.145518
0.149675
0.152923
0.155322
0.156943
0.15779
0.157947
0.157425
0.156275
0.154553
0.152245
0.149433
0.146125
0.142349
0.138134
0.133531
0.128542
0.12322
0.117564
0.111595
0.105384
0.098895
0.092183
0.0852803
0.0782009
0.0709739
0.0635997
0.0561581
0.0486702
0.0409308
0.0330149
0.0249958
0.0165185
0.00801355
0.001693
0.809208
0.666427
0.625187
0.588161
0.550139
0.514669
0.479749
0.444887
0.409072
0.37209
0.333782
0.294109
0.253393
0.211312
0.168224
0.124269
0.0795203
0.0344481
-0.0105172
-0.0549285
-0.0981653
-0.139618
-0.178512
-0.213921
-0.24557
-0.272362
-0.293943
-0.309865
-0.31936
-0.322874
-0.320963
-0.313349
-0.300925
-0.28407
-0.263528
-0.240228
-0.214671
-0.187718
-0.160013
-0.132113
-0.1045
-0.0776013
-0.051734
-0.0271023
-0.00393017
0.0177013
0.0376861
0.0559764
0.0725876
0.087505
0.100733
0.112304
0.122159
0.13039
0.137232
0.142806
0.147313
0.15085
0.153503
0.155313
0.156366
0.156691
0.156323
0.155304
0.153673
0.151484
0.148756
0.1455
0.141806
0.137654
0.133081
0.128164
0.12287
0.117237
0.111309
0.105118
0.0986603
0.0919706
0.0850869
0.0780179
0.0708008
0.0634495
0.0559315
0.0482889
0.0407848
0.0331127
0.0250827
0.0166173
0.00799983
0.00167392
0.800077
0.657371
0.61585
0.578649
0.540425
0.504912
0.47005
0.43482
0.398562
0.360947
0.322003
0.281013
0.238585
0.19531
0.150212
0.104161
0.0572077
0.00946117
-0.0381968
-0.0852928
-0.131348
-0.17563
-0.217076
-0.255189
-0.288945
-0.317641
-0.340473
-0.356826
-0.366374
-0.369381
-0.366512
-0.357602
-0.343386
-0.324631
-0.301792
-0.275873
-0.247737
-0.21815
-0.18784
-0.157404
-0.127389
-0.0982002
-0.0701684
-0.043575
-0.0185868
0.00472899
0.0262208
0.0458823
0.0637614
0.0798077
0.0940795
0.106612
0.117422
0.126442
0.133907
0.139978
0.144857
0.148713
0.151627
0.153692
0.154931
0.155414
0.155184
0.154302
0.152796
0.150697
0.148049
0.144885
0.141251
0.137158
0.132648
0.127767
0.122504
0.116923
0.111027
0.10485
0.0984244
0.091762
0.084911
0.0778707
0.0706833
0.0633995
0.0559952
0.0484858
0.0408894
0.0330533
0.0250616
0.0166401
0.00795777
0.00159192
0.791467
0.648637
0.606999
0.569707
0.531416
0.495642
0.460275
0.424851
0.387806
0.349384
0.309388
0.267603
0.224122
0.178823
0.131935
0.0838253
0.0342598
-0.0161202
-0.0663633
-0.116722
-0.165662
-0.212791
-0.257167
-0.297558
-0.333766
-0.364264
-0.388148
-0.404904
-0.414578
-0.41737
-0.413417
-0.403135
-0.387097
-0.365909
-0.340734
-0.312291
-0.281464
-0.249162
-0.21619
-0.18316
-0.150651
-0.119125
-0.0889177
-0.0603021
-0.033436
-0.00843802
0.0145857
0.0356808
0.054798
0.0719752
0.0872927
0.100771
0.112462
0.122319
0.130457
0.137091
0.142383
0.146545
0.149716
0.152006
0.153448
0.154124
0.154043
0.153294
0.151908
0.149911
0.147352
0.144265
0.140695
0.136669
0.132218
0.127379
0.122158
0.116594
0.110741
0.104602
0.0982027
0.0915695
0.0847163
0.0777106
0.0705594
0.0632689
0.0559041
0.0483619
0.0407915
0.0331236
0.0251151
0.0166322
0.00798526
0.00159627
0.783556
0.640401
0.59858
0.56117
0.522494
0.486811
0.451205
0.415015
0.377591
0.338446
0.297424
0.254321
0.20935
0.162378
0.113608
0.0629684
0.010906
-0.0419352
-0.0952493
-0.148246
-0.200311
-0.250508
-0.297606
-0.340913
-0.379289
-0.411303
-0.436332
-0.45355
-0.463175
-0.465553
-0.460543
-0.448747
-0.430916
-0.407696
-0.379924
-0.34883
-0.315311
-0.280271
-0.244587
-0.208949
-0.17393
-0.140055
-0.107642
-0.0769926
-0.0482683
-0.021572
0.00300202
0.0254751
0.0458379
0.0641721
0.0804945
0.0948817
0.10742
0.11812
0.126959
0.134145
0.139873
0.144383
0.147851
0.150357
0.151992
0.152825
0.152917
0.152304
0.151017
0.149124
0.146653
0.14364
0.140154
0.136188
0.13178
0.126984
0.121819
0.1163
0.110474
0.104351
0.0979724
0.0913714
0.0845579
0.0775536
0.0704412
0.0631695
0.0557484
0.0482558
0.0407061
0.0330006
0.0250425
0.0166228
0.0080206
0.00162437
0.776034
0.633031
0.590948
0.553362
0.514525
0.478142
0.442245
0.405706
0.367561
0.327662
0.285638
0.241359
0.194943
0.146225
0.0953168
0.0425594
-0.0119093
-0.0676893
-0.123778
-0.179913
-0.234964
-0.287873
-0.338037
-0.38388
-0.424495
-0.458149
-0.483976
-0.501599
-0.511375
-0.513162
-0.507251
-0.494089
-0.474252
-0.448808
-0.418621
-0.384917
-0.348658
-0.310906
-0.272542
-0.23431
-0.196838
-0.16062
-0.126035
-0.093394
-0.0628208
-0.0344486
-0.00836466
0.0154745
0.0370846
0.0564924
0.0738072
0.0891164
0.102443
0.113879
0.123445
0.131211
0.137408
0.142254
0.145974
0.148729
0.150569
0.151569
0.151822
0.151315
0.150158
0.148386
0.145983
0.143059
0.139625
0.135709
0.131366
0.126614
0.12147
0.115994
0.110204
0.104117
0.0977682
0.0911913
0.0843992
0.0774217
0.0703001
0.0630425
0.0556643
0.0482088
0.0407214
0.0329924
0.0251298
0.0167758
0.00801342
0.00157077
0.76923
0.626035
0.583757
0.545982
0.506952
0.470583
0.434126
0.396955
0.358253
0.317487
0.274374
0.2289
0.181017
0.130458
0.0776237
0.0225865
-0.0343626
-0.0927873
-0.151687
-0.210548
-0.268755
-0.324772
-0.377505
-0.425903
-0.468438
-0.503558
-0.53022
-0.548324
-0.558213
-0.559477
-0.552555
-0.53784
-0.516111
-0.488596
-0.455957
-0.419727
-0.380877
-0.3405
-0.299548
-0.258805
-0.218931
-0.180468
-0.143799
-0.109176
-0.0768393
-0.0468574
-0.0193
0.00584629
0.0286301
0.0491149
0.0673754
0.0835045
0.0976089
0.109759
0.120006
0.128349
0.134993
0.14021
0.144209
0.147175
0.149193
0.150366
0.150754
0.150393
0.149338
0.147635
0.145329
0.142487
0.139122
0.135265
0.130958
0.126262
0.121176
0.115719
0.109949
0.103891
0.0975649
0.0910087
0.0842349
0.0772903
0.070192
0.0629891
0.0557102
0.0482905
0.0407013
0.0329741
0.0250657
0.0167046
0.00798872
0.00144243
0.762815
0.619663
0.577397
0.539372
0.500303
0.463464
0.426504
0.388865
0.349439
0.307719
0.263762
0.217125
0.167729
0.115686
0.0609241
0.00369433
-0.0557443
-0.116601
-0.178487
-0.240084
-0.300906
-0.359777
-0.415233
-0.466101
-0.510343
-0.546589
-0.574131
-0.592689
-0.602562
-0.603317
-0.595363
-0.579465
-0.555876
-0.526296
-0.491444
-0.452725
-0.411406
-0.36851
-0.325085
-0.281984
-0.239838
-0.19922
-0.160564
-0.124117
-0.0900896
-0.0585844
-0.0296246
-0.00322325
0.0206837
0.0421489
0.0613173
0.0782344
0.0930487
0.10584
0.116679
0.125572
0.132687
0.138255
0.142516
0.145702
0.147904
0.149242
0.149754
0.14951
0.148571
0.14696
0.144735
0.14195
0.138644
0.134852
0.130595
0.12592
0.120867
0.115456
0.109715
0.10368
0.0973906
0.0908439
0.0840801
0.0771362
0.0699966
0.0627149
0.0553028
0.0480336
0.0406097
0.0327197
0.024786
0.0165447
0.00810752
0.00172114
0.75713
0.614086
0.571596
0.533421
0.494007
0.457003
0.419897
0.381442
0.341464
0.29914
0.253998
0.206314
0.1557
0.101896
0.0451833
-0.0141052
-0.075654
-0.138959
-0.203278
-0.267551
-0.331201
-0.392426
-0.450394
-0.503499
-0.549091
-0.586579
-0.614763
-0.633813
-0.643591
-0.643903
-0.635082
-0.617727
-0.592631
-0.560997
-0.52406
-0.48313
-0.43954
-0.394362
-0.348675
-0.303362
-0.259125
-0.216551
-0.176036
-0.137879
-0.102288
-0.0693717
-0.0391328
-0.0115955
0.0133301
0.0357444
0.055705
0.0733554
0.088822
0.102193
0.113576
0.123025
0.130541
0.13645
0.140965
0.144343
0.146726
0.148184
0.148844
0.148708
0.147841
0.146316
0.14418
0.141464
0.138211
0.134448
0.13025
0.125621
0.120606
0.115222
0.109506
0.103494
0.0972223
0.0907006
0.0839594
0.0770513
0.0699893
0.0628167
0.0555705
0.0481529
0.040556
0.0328087
0.0248311
0.0164403
0.00790061
0.0015938
0.752215
0.609194
0.566536
0.528364
0.488741
0.451397
0.413707
0.375057
0.334322
0.291298
0.245508
0.196604
0.144724
0.0894706
0.0312752
-0.0299381
-0.0937485
-0.159147
-0.225685
-0.292377
-0.358303
-0.422125
-0.482264
-0.537042
-0.584165
-0.622287
-0.651494
-0.670788
-0.680547
-0.680397
-0.670702
-0.652104
-0.625551
-0.592294
-0.553392
-0.510465
-0.464804
-0.417555
-0.36985
-0.322556
-0.276444
-0.232088
-0.189928
-0.150247
-0.113259
-0.0790616
-0.047669
-0.0190812
0.00676426
0.0299918
0.050688
0.0689856
0.085034
0.0989335
0.11079
0.120682
0.128604
0.134811
0.139571
0.143129
0.145659
0.147254
0.148013
0.147974
0.147212
0.145758
0.143681
0.141025
0.137811
0.134118
0.129946
0.125338
0.120353
0.115002
0.109306
0.103325
0.0970728
0.0905471
0.0838443
0.0769462
0.0698726
0.0626764
0.0553592
0.0479482
0.0404693
0.0327227
0.0247943
0.016536
0.00801817
0.00167794
0.748111
0.605051
0.562378
0.523968
0.48405
0.446546
0.40871
0.36947
0.328355
0.284767
0.237999
0.188281
0.135186
0.0786454
0.0189581
-0.0440226
-0.109478
-0.176637
-0.245402
-0.314198
-0.382001
-0.447965
-0.51002
-0.566128
-0.614622
-0.653464
-0.682937
-0.702766
-0.712563
-0.712007
-0.70165
-0.68182
-0.653889
-0.619228
-0.578753
-0.534102
-0.486662
-0.437638
-0.388161
-0.339178
-0.291449
-0.245545
-0.201931
-0.160947
-0.122737
-0.0874303
-0.0550622
-0.0255781
0.0010765
0.0250073
0.0463393
0.0652051
0.0817406
0.0960851
0.108359
0.118634
0.126882
0.133368
0.138341
0.142075
0.144734
0.146435
0.14731
0.147332
0.146642
0.145274
0.143241
0.140643
0.137478
0.13381
0.129676
0.125101
0.120146
0.114818
0.10915
0.10317
0.0969418
0.0904589
0.0837488
0.0768622
0.0698165
0.0626288
0.055343
0.0479479
0.0404228
0.0327346
0.0248624
0.0165759
0.00799437
0.0016462
0.744819
0.601737
0.559021
0.520516
0.480524
0.442687
0.404419
0.364971
0.323406
0.278974
0.231893
0.181448
0.12742
0.0698869
0.00879432
-0.0554444
-0.122466
-0.191464
-0.26167
-0.332229
-0.401801
-0.469415
-0.533054
-0.59046
-0.6395
-0.679043
-0.709032
-0.729155
-0.739047
-0.738054
-0.726996
-0.706403
-0.677413
-0.641416
-0.599617
-0.553545
-0.504666
-0.454182
-0.403275
-0.352898
-0.303793
-0.256651
-0.211876
-0.169764
-0.130574
-0.0943581
-0.0611564
-0.0309562
-0.00362684
0.0209019
0.0427589
0.062067
0.0790311
0.0937372
0.106336
0.116912
0.125454
0.132172
0.137314
0.141191
0.143957
0.145768
0.1467
0.146809
0.146179
0.144853
0.142878
0.140313
0.137178
0.133559
0.129449
0.124904
0.11996
0.114644
0.109013
0.103063
0.0968346
0.0903456
0.0836714
0.0767989
0.0697614
0.0625895
0.0552861
0.0479009
0.0403989
0.0327023
0.0248924
0.0166396
0.00803001
0.00167672
0.742351
0.599234
0.556521
0.517954
0.477798
0.439811
0.401443
0.361591
0.319638
0.275021
0.227316
0.176076
0.121155
0.0629443
0.000899487
-0.0646025
-0.132429
-0.202496
-0.274151
-0.345902
-0.417259
-0.486044
-0.550828
-0.609255
-0.658589
-0.698903
-0.728853
-0.749235
-0.759453
-0.758138
-0.746481
-0.725141
-0.695296
-0.658492
-0.615643
-0.568505
-0.518498
-0.466881
-0.414862
-0.363424
-0.313304
-0.265186
-0.219492
-0.176566
-0.136591
-0.0996757
-0.0658446
-0.0350655
-0.00723722
0.0177247
0.0399899
0.0596692
0.0769198
0.0919179
0.104757
0.115559
0.124322
0.13123
0.136518
0.140501
0.143356
0.145238
0.146229
0.146387
0.145811
0.144517
0.142591
0.140056
0.136956
0.13335
0.129269
0.124755
0.119818
0.114532
0.108897
0.10295
0.0967442
0.090295
0.0836088
0.0767554
0.0697426
0.0625997
0.0553719
0.0480094
0.040496
0.0328106
0.0249506
0.0165773
0.00790018
0.00156808
0.740855
0.597614
0.554939
0.51629
0.475947
0.437963
0.399391
0.359461
0.317174
0.272093
0.224053
0.172506
0.117414
0.0582848
-0.00432101
-0.0703568
-0.139224
-0.210291
-0.28274
-0.355567
-0.427662
-0.497224
-0.563051
-0.621832
-0.671517
-0.712086
-0.742537
-0.763005
-0.773125
-0.771602
-0.759491
-0.737928
-0.707616
-0.669949
-0.626408
-0.578585
-0.527842
-0.475487
-0.422738
-0.370556
-0.319743
-0.270963
-0.224666
-0.181173
-0.140663
-0.103292
-0.0690497
-0.0378802
-0.00971574
0.0155657
0.0381008
0.0580122
0.075492
0.0906715
0.103664
0.114632
0.123553
0.130564
0.135975
0.139998
0.142925
0.144859
0.145887
0.146096
0.145543
0.144285
0.142366
0.139851
0.136794
0.133194
0.129126
0.124636
0.119722
0.114426
0.108824
0.102898
0.0966736
0.0902358
0.0835601
0.0767108
0.0696753
0.0625411
0.0552546
0.0478843
0.0402912
0.0325568
0.0248285
0.0165133
0.00804127
0.00171168
0.740132
0.596879
0.554201
0.515547
0.475115
0.437086
0.398545
0.35844
0.316085
0.270868
0.222578
0.170858
0.115131
0.0559503
-0.00698326
-0.0735119
-0.142684
-0.214028
-0.286949
-0.360301
-0.43268
-0.502857
-0.56915
-0.628309
-0.678466
-0.718735
-0.749226
-0.76984
-0.780158
-0.778696
-0.766274
-0.744285
-0.713764
-0.675744
-0.631866
-0.583694
-0.532563
-0.479828
-0.426703
-0.374153
-0.323021
-0.273906
-0.22729
-0.183516
-0.142744
-0.105122
-0.0706445
-0.0392871
-0.0109604
0.0144816
0.0371402
0.0571787
0.0747542
0.0900281
0.103114
0.114152
0.123147
0.130231
0.135679
0.139748
0.142701
0.144666
0.145721
0.145931
0.145397
0.144162
0.142273
0.13976
0.136695
0.133104
0.129059
0.124571
0.119661
0.114379
0.108749
0.102846
0.0966467
0.0901961
0.083546
0.0767037
0.0696975
0.0625694
0.0553209
0.0479887
0.0405172
0.0328276
0.0249531
0.0165387
0.00785315
0.00153998
0.740142
0.596845
0.55416
0.515493
0.475064
0.437105
0.398705
0.358471
0.316162
0.270859
0.222653
0.170941
0.115235
0.0560662
-0.00696742
-0.0734495
-0.142665
-0.214138
-0.287048
-0.360432
-0.432818
-0.502998
-0.569249
-0.628392
-0.678498
-0.71873
-0.749209
-0.769834
-0.780143
-0.778537
-0.766251
-0.744339
-0.713816
-0.675774
-0.631884
-0.583714
-0.532585
-0.479857
-0.426755
-0.374174
-0.323026
-0.273913
-0.227308
-0.18353
-0.142752
-0.105143
-0.0706851
-0.0393284
-0.0109878
0.0144553
0.0371149
0.0571519
0.07473
0.0900046
0.103092
0.114129
0.123129
0.130204
0.135655
0.139734
0.142684
0.14464
0.145695
0.145907
0.145373
0.144133
0.142225
0.139729
0.136661
0.133092
0.129041
0.124541
0.119628
0.114355
0.108737
0.102822
0.0966321
0.0901798
0.0835295
0.0766713
0.0696464
0.0624882
0.0551793
0.047781
0.0402578
0.032541
0.0248108
0.0166172
0.00803501
0.00166831
0.741028
0.597745
0.555087
0.51645
0.476113
0.438174
0.399653
0.359736
0.317508
0.272396
0.224284
0.172774
0.117565
0.0584172
-0.00401038
-0.0702688
-0.139074
-0.210061
-0.282712
-0.355596
-0.427539
-0.49728
-0.563115
-0.621858
-0.671732
-0.712388
-0.742528
-0.76292
-0.772969
-0.771586
-0.759577
-0.73787
-0.707629
-0.669945
-0.626394
-0.578588
-0.527843
-0.475503
-0.422765
-0.370579
-0.3198
-0.271018
-0.224711
-0.181216
-0.140735
-0.103356
-0.0691019
-0.0379401
-0.00978091
0.0154939
0.0380267
0.057938
0.0754108
0.0905825
0.103577
0.114547
0.123468
0.130479
0.135876
0.139913
0.142841
0.144771
0.145798
0.146014
0.145455
0.144191
0.142291
0.139776
0.13671
0.133113
0.129055
0.124565
0.119644
0.114373
0.108744
0.102829
0.0966404
0.0901937
0.0835451
0.0766852
0.0696723
0.062533
0.0552657
0.0478991
0.0404425
0.0328096
0.0249237
0.0165374
0.0079206
0.00162816
0.742834
0.599596
0.556902
0.518376
0.478229
0.44024
0.401798
0.362099
0.32001
0.275454
0.227848
0.176438
0.121577
0.0633473
0.00126289
-0.0641439
-0.132159
-0.202389
-0.273939
-0.345939
-0.416981
-0.485805
-0.550777
-0.608949
-0.658443
-0.69888
-0.729068
-0.7493
-0.759282
-0.757878
-0.746187
-0.725093
-0.695289
-0.658416
-0.615568
-0.568454
-0.518469
-0.46688
-0.414901
-0.363436
-0.313348
-0.265245
-0.219567
-0.176655
-0.136676
-0.0997913
-0.0659847
-0.0351985
-0.00739035
0.0175812
0.0398177
0.0594839
0.0767514
0.0917273
0.104566
0.115371
0.124136
0.131037
0.13633
0.140309
0.143173
0.145036
0.146033
0.146201
0.14561
0.144336
0.142414
0.139874
0.136788
0.133197
0.129121
0.124611
0.119699
0.114407
0.108795
0.102879
0.0966825
0.0902369
0.0835879
0.0767296
0.0697186
0.0625863
0.0553096
0.0479362
0.0404649
0.0327405
0.0248803
0.0165696
0.00794393
0.00160683
0.745453
0.602354
0.559672
0.521204
0.481203
0.443373
0.405041
0.365553
0.323998
0.279543
0.232418
0.181915
0.127945
0.0703196
0.00925384
-0.0550734
-0.121871
-0.190764
-0.261344
-0.331997
-0.401565
-0.469112
-0.532814
-0.590085
-0.639283
-0.679079
-0.708994
-0.728948
-0.738696
-0.737764
-0.72671
-0.706301
-0.677328
-0.641235
-0.599489
-0.553468
-0.5046
-0.454154
-0.403275
-0.352912
-0.303857
-0.256731
-0.211981
-0.169902
-0.130722
-0.094526
-0.0613463
-0.0311481
-0.00384696
0.0206353
0.0425056
0.0618248
0.0787473
0.0934414
0.106045
0.116623
0.125162
0.131875
0.137018
0.140881
0.143668
0.145468
0.146395
0.14653
0.145897
0.144569
0.142606
0.140058
0.13695
0.133337
0.129239
0.124708
0.119787
0.114489
0.108871
0.102947
0.0967394
0.0902904
0.0836379
0.0767853
0.0697801
0.0626273
0.0553957
0.0480686
0.0406544
0.0330308
0.0251074
0.0166752
0.00786437
0.00144256
0.749013
0.605958
0.563251
0.524919
0.485008
0.447288
0.409342
0.370204
0.32895
0.285383
0.238961
0.188978
0.135813
0.0793733
0.0195675
-0.0433064
-0.10874
-0.176244
-0.244914
-0.313706
-0.381659
-0.447605
-0.509685
-0.565748
-0.614098
-0.653135
-0.682789
-0.702481
-0.712185
-0.711718
-0.701254
-0.681567
-0.653701
-0.61901
-0.578606
-0.533987
-0.486576
-0.437593
-0.38817
-0.339211
-0.291506
-0.245654
-0.202072
-0.161126
-0.122941
-0.087658
-0.0553227
-0.0258605
0.000775297
0.0246773
0.0459931
0.0648392
0.0813673
0.0957086
0.10797
0.118242
0.126487
0.132971
0.137955
0.141672
0.144332
0.146055
0.146892
0.146952
0.14626
0.144893
0.142899
0.140306
0.137153
0.133516
0.129403
0.124848
0.119915
0.114609
0.108971
0.103025
0.0968219
0.0903846
0.0837147
0.0768656
0.0698526
0.0627012
0.0554355
0.0481041
0.0405133
0.03278
0.0250184
0.0166952
0.00800855
0.00159393
0.753311
0.610287
0.56762
0.529363
0.48972
0.452429
0.414713
0.376054
0.335305
0.29207
0.246357
0.197479
0.145406
0.0902762
0.0318963
-0.0292023
-0.0928567
-0.158385
-0.225044
-0.291945
-0.357822
-0.421506
-0.481771
-0.536541
-0.583676
-0.621921
-0.650898
-0.67052
-0.680093
-0.680005
-0.670408
-0.65175
-0.625322
-0.5919
-0.55318
-0.510336
-0.464691
-0.417513
-0.369838
-0.322597
-0.276523
-0.232226
-0.190103
-0.150461
-0.113512
-0.0793481
-0.0479944
-0.019452
0.00638011
0.0295668
0.0502456
0.0685412
0.0845492
0.098441
0.110307
0.120187
0.128108
0.134308
0.139053
0.142637
0.145149
0.146752
0.147517
0.147489
0.146728
0.145301
0.143238
0.140603
0.137431
0.133753
0.129604
0.125024
0.120068
0.114748
0.109107
0.103162
0.096937
0.0904888
0.0838011
0.076958
0.0699339
0.0627736
0.0554901
0.0481159
0.0406061
0.0329443
0.0251014
0.0166759
0.00797009
0.00161411
0.758433
0.615389
0.572887
0.534737
0.495173
0.458101
0.421022
0.382717
0.342493
0.30004
0.255303
0.20727
0.156588
0.10297
0.0461989
-0.013215
-0.0747927
-0.138151
-0.202426
-0.26694
-0.330366
-0.391919
-0.449879
-0.502737
-0.548682
-0.585883
-0.614242
-0.633326
-0.643041
-0.643549
-0.634734
-0.617345
-0.592365
-0.560761
-0.523844
-0.483019
-0.439435
-0.394311
-0.348678
-0.303424
-0.259246
-0.21672
-0.17626
-0.138176
-0.102621
-0.0697322
-0.0395367
-0.0120258
0.0128789
0.0352404
0.0551836
0.072803
0.0882514
0.101609
0.112986
0.122417
0.129938
0.135835
0.140354
0.143738
0.146123
0.147603
0.148242
0.148116
0.147274
0.145771
0.143661
0.140977
0.137734
0.13402
0.129854
0.125253
0.120255
0.114915
0.109258
0.103288
0.0970627
0.0905871
0.0839252
0.0770534
0.0700231
0.0628623
0.0555756
0.0481964
0.0407107
0.033049
0.0251047
0.0166665
0.00798149
0.00157378
0.764295
0.621175
0.57881
0.540606
0.501444
0.464963
0.428203
0.390279
0.350656
0.309024
0.265058
0.218356
0.169009
0.116681
0.0619307
0.00462101
-0.0547929
-0.115695
-0.177472
-0.239386
-0.300196
-0.358986
-0.414495
-0.465372
-0.509646
-0.546001
-0.573515
-0.592243
-0.602002
-0.602977
-0.595022
-0.578989
-0.55562
-0.525838
-0.491103
-0.452529
-0.411253
-0.368464
-0.325102
-0.282051
-0.239977
-0.199444
-0.160844
-0.124436
-0.0904759
-0.0590045
-0.0301012
-0.00374225
0.0201083
0.0415461
0.0606805
0.0775807
0.0923695
0.105157
0.115987
0.124882
0.131982
0.137529
0.141804
0.144988
0.147204
0.148527
0.149065
0.148826
0.147911
0.146324
0.144127
0.141373
0.13811
0.134338
0.130121
0.125497
0.120486
0.115123
0.109433
0.103453
0.097215
0.090733
0.0840324
0.0771561
0.070113
0.0629051
0.0555904
0.0481827
0.0405427
0.0328701
0.0250988
0.0167344
0.00811624
0.00166147
0.770763
0.627635
0.585383
0.547484
0.508579
0.472262
0.435859
0.398564
0.359645
0.31876
0.275797
0.230313
0.182159
0.131814
0.078937
0.0237268
-0.0332109
-0.0916765
-0.150741
-0.209856
-0.267844
-0.323699
-0.376794
-0.425303
-0.467766
-0.502805
-0.529498
-0.547801
-0.557517
-0.55888
-0.552018
-0.53743
-0.515865
-0.488274
-0.455753
-0.419564
-0.380792
-0.340481
-0.299586
-0.258923
-0.219129
-0.180737
-0.14412
-0.109583
-0.0773019
-0.0473779
-0.019863
0.00524574
0.0279839
0.0484427
0.0666629
0.082772
0.0968376
0.108972
0.1192
0.127529
0.134175
0.139382
0.143384
0.146346
0.148397
0.149579
0.149956
0.149614
0.148591
0.146913
0.144661
0.141837
0.138495
0.134696
0.130444
0.125772
0.120732
0.115335
0.10962
0.103632
0.0973573
0.0908722
0.0841759
0.0772718
0.0702195
0.0630496
0.0557312
0.0483367
0.040857
0.0331353
0.0251759
0.0167756
0.00801995
0.00154156
0.777989
0.634914
0.592743
0.55503
0.516023
0.48009
0.444313