# vtk DataFile Version 2.0
tracks
ASCII
DATASET POLYDATA
POINTS 778 float
-0.2 -0.2 -0.01 -0.199974 -0.200002 -0.00999582 -0.194425 -0.200367 -0.00909259 -0.187871 -0.200786
-0.00795816 -0.176005 -0.201525 -0.00578016 -0.162809 -0.202386 -0.00278967 -0.151115 -0.204376 0.00151774
-0.150454 -0.204545 0.00184912 -0.137748 -0.207776 0.00821636 -0.126589 -0.212666 0.0126692 -0.12521
-0.213429 0.0132063 -0.104101 -0.225211 0.0212667 -0.100314 -0.226889 0.021477 -0.0754203 -0.238111
0.0231009 -0.0515273 -0.246921 0.0255745 -0.0515273 -0.246921 0.0255745 -0.0503705 -0.247197 0.025538
-0.0372862 -0.250214 0.0250426 -0.0253106 -0.252789 0.0247214 -0.000250024 -0.257715 0.0242026 0.0498793
-0.266168 0.0263061 0.0999608 -0.271891 0.0256027 0.149983 -0.273079 0.0220821 0.199994 -0.274851
0.0198852 0.299999 -0.282936 0.022421 0.4 -0.283716 0.0206885 0.5 -0.284127 0.0195161
0.6 -0.284284 0.018699 0.7 -0.284319 0.0181084 0.8 -0.2843 0.0176677 0.9
-0.284259 0.0173296 1 -0.284211 0.017064 1.1 -0.284166 0.016851 1.2 -0.284125
0.0166771 1.3 -0.28409 0.0165327 1.4 -0.284059 0.0164111 1.5 -0.284034 0.0163075
1.6 -0.284013 0.0162181 1.7 -0.283995 0.0161403 1.8 -0.283981 0.016072 1.9
-0.283968 0.0160115 2 -0.283958 0.0159576 2.1 -0.283949 0.0159093 2.2 -0.283942
0.0158657 2.3 -0.283936 0.0158263 2.4 -0.283931 0.0157904 2.5 -0.283927 0.0157577
2.6 -0.283923 0.0157277 2.7 -0.28392 0.0157002 2.8 -0.283917 0.0156749 2.9
-0.283915 0.0156516 3 -0.283913 0.0156301 3.1 -0.283911 0.0156102 3.2 -0.283909
0.0155917 3.3 -0.283908 0.0155747 3.4 -0.283907 0.0155588 3.5 -0.283906 0.0155441
3.6 -0.283905 0.0155305 3.7 -0.283904 0.0155178 3.8 -0.283904 0.0155061 3.9
-0.283903 0.0154952 4 -0.283903 0.0154851 4.1 -0.283903 0.0154757 4.2 -0.283902
0.015467 4.3 -0.283902 0.015459 4.4 -0.283902 0.0154517 4.5 -0.283902 0.0154449
4.6 -0.283902 0.0154387 4.7 -0.283902 0.015433 4.8 -0.283902 0.0154279 4.9
-0.283902 0.0154233 5 -0.283902 0.0154191 5.1 -0.283902 0.0154155 5.2 -0.283903
0.0154123 5.3 -0.283903 0.0154096 5.4 -0.283904 0.0154073 5.5 -0.283904 0.0154055
5.6 -0.283905 0.015404 5.7 -0.283906 0.0154029 5.8 -0.283906 0.0154021 5.9
-0.283907 0.0154016 6 -0.283907 0.0154013 -6.91738e-17 -0.2 -0.01 0.00031875 -0.200025
-0.0100054 0.0499778 -0.203974 -0.0108543 0.0999908 -0.206818 -0.0120651 0.199998 -0.21372 -0.011133
0.3 -0.218134 -0.00963208 0.4 -0.218861 -0.0109201 0.5 -0.219219 -0.0118463 0.6
-0.219368 -0.012528 0.7 -0.219414 -0.0130407 0.8 -0.21941 -0.0134347 0.9 -0.219384
-0.0137437 1 -0.21935 -0.0139905 1.1 -0.219317 -0.014191 1.2 -0.219286 -0.0143564
1.3 -0.219258 -0.0144948 1.4 -0.219235 -0.0146121 1.5 -0.219215 -0.0147125 1.6
-0.219198 -0.0147995 1.7 -0.219184 -0.0148754 1.8 -0.219173 -0.0149423 1.9 -0.219163
-0.0150016 2 -0.219155 -0.0150546 2.1 -0.219148 -0.0151022 2.2 -0.219142 -0.0151452
2.3 -0.219138 -0.0151841 2.4 -0.219133 -0.0152196 2.5 -0.21913 -0.0152519 2.6
-0.219127 -0.0152816 2.7 -0.219124 -0.0153088 2.8 -0.219122 -0.0153339 2.9 -0.21912
-0.015357 3 -0.219119 -0.0153784 3.1 -0.219118 -0.0153981 3.2 -0.219116 -0.0154164
3.3 -0.219115 -0.0154334 3.4 -0.219115 -0.0154491 3.5 -0.219114 -0.0154637 3.6
-0.219113 -0.0154773 3.7 -0.219113 -0.0154899 3.8 -0.219112 -0.0155015 3.9 -0.219112
-0.0155124 4 -0.219111 -0.0155224 4.1 -0.219111 -0.0155317 4.2 -0.219111 -0.0155403
4.3 -0.219111 -0.0155483 4.4 -0.219111 -0.0155556 4.5 -0.219111 -0.0155624 4.6
-0.219111 -0.0155685 4.7 -0.219111 -0.0155742 4.8 -0.219111 -0.0155793 4.9 -0.219111
-0.0155839 5 -0.219111 -0.015588 5.1 -0.219111 -0.0155916 5.2 -0.219112 -0.0155948
5.3 -0.219112 -0.0155975 5.4 -0.219113 -0.0155998 5.5 -0.219113 -0.0156016 5.6
-0.219114 -0.0156031 5.7 -0.219115 -0.0156042 5.8 -0.219115 -0.015605 5.9 -0.219116
-0.0156056 6 -0.219116 -0.0156058 0.2 -0.2 -0.01 0.200024 -0.200001 -0.00999989
0.3 -0.203685 -0.0095579 0.4 -0.2044 -0.0108273 0.5 -0.204738 -0.0117484 0.6
-0.204882 -0.0124276 0.7 -0.204928 -0.0129392 0.8 -0.204927 -0.0133328 0.9 -0.204904
-0.0136416 1 -0.204874 -0.0138885 1.1 -0.204843 -0.0140891 1.2 -0.204814 -0.0142547
1.3 -0.204788 -0.0143932 1.4 -0.204767 -0.0145105 1.5 -0.204748 -0.0146111 1.6
-0.204733 -0.0146981 1.7 -0.20472 -0.0147742 1.8 -0.204709 -0.0148411 1.9 -0.2047
-0.0149005 2 -0.204692 -0.0149536 2.1 -0.204686 -0.0150012 2.2 -0.20468 -0.0150442
2.3 -0.204676 -0.0150832 2.4 -0.204672 -0.0151187 2.5 -0.204669 -0.0151511 2.6
-0.204666 -0.0151807 2.7 -0.204664 -0.015208 2.8 -0.204662 -0.0152331 2.9 -0.20466
-0.0152562 3 -0.204658 -0.0152776 3.1 -0.204657 -0.0152974 3.2 -0.204656 -0.0153157
3.3 -0.204655 -0.0153326 3.4 -0.204654 -0.0153484 3.5 -0.204654 -0.015363 3.6
-0.204653 -0.0153765 3.7 -0.204652 -0.0153891 3.8 -0.204652 -0.0154008 3.9 -0.204652
-0.0154117 4 -0.204651 -0.0154217 4.1 -0.204651 -0.015431 4.2 -0.204651 -0.0154396
4.3 -0.204651 -0.0154476 4.4 -0.204651 -0.0154549 4.5 -0.204651 -0.0154617 4.6
-0.204651 -0.0154678 4.7 -0.204651 -0.0154735 4.8 -0.204651 -0.0154786 4.9 -0.204651
-0.0154832 5 -0.204651 -0.0154873 5.1 -0.204651 -0.0154909 5.2 -0.204652 -0.0154941
5.3 -0.204652 -0.0154968 5.4 -0.204653 -0.0154991 5.5 -0.204653 -0.015501 5.6
-0.204654 -0.0155025 5.7 -0.204655 -0.0155036 5.8 -0.204655 -0.0155044 5.9 -0.204656
-0.0155049 6 -0.204656 -0.0155052 0.4 -0.2 -0.01 0.4 -0.2 -0.01
0.4 -0.2 -0.01 0.5 -0.200333 -0.0109282 0.6 -0.200475 -0.011611 0.7
-0.200521 -0.0121246 0.8 -0.200521 -0.0125194 0.9 -0.200499 -0.0128291 1 -0.20047
-0.0130765 1.1 -0.200439 -0.0132775 1.2 -0.200411 -0.0134434 1.3 -0.200386 -0.0135821
1.4 -0.200365 -0.0136997 1.5 -0.200347 -0.0138004 1.6 -0.200332 -0.0138875 1.7
-0.200319 -0.0139636 1.8 -0.200308 -0.0140307 1.9 -0.200299 -0.0140901 2 -0.200292
-0.0141432 2.1 -0.200286 -0.0141909 2.2 -0.20028 -0.0142339 2.3 -0.200276 -0.0142729
2.4 -0.200272 -0.0143084 2.5 -0.200269 -0.0143409 2.6 -0.200266 -0.0143706 2.7
-0.200264 -0.0143978 2.8 -0.200262 -0.0144229 2.9 -0.20026 -0.0144461 3 -0.200259
-0.0144675 3.1 -0.200258 -0.0144872 3.2 -0.200257 -0.0145056 3.3 -0.200256 -0.0145225
3.4 -0.200255 -0.0145383 3.5 -0.200254 -0.0145529 3.6 -0.200254 -0.0145664 3.7
-0.200253 -0.014579 3.8 -0.200253 -0.0145907 3.9 -0.200253 -0.0146016 4 -0.200252
-0.0146116 4.1 -0.200252 -0.0146209 4.2 -0.200252 -0.0146295 4.3 -0.200252 -0.0146375
4.4 -0.200252 -0.0146448 4.5 -0.200251 -0.0146516 4.6 -0.200251 -0.0146578 4.7
-0.200252 -0.0146634 4.8 -0.200252 -0.0146685 4.9 -0.200252 -0.0146731 5 -0.200252
-0.0146772 5.1 -0.200252 -0.0146809 5.2 -0.200253 -0.014684 5.3 -0.200253 -0.0146868
5.4 -0.200254 -0.0146891 5.5 -0.200254 -0.0146909 5.6 -0.200255 -0.0146924 5.7
-0.200256 -0.0146935 5.8 -0.200256 -0.0146944 5.9 -0.200257 -0.0146949 6 -0.200257
-0.0146951 -0.2 3.54365e-17 -0.01 -0.194357 -1.49369e-06 -0.00967296 -0.18769 -2.72886e-06 -0.0094445
-0.174941 -3.86672e-06 -0.00935854 -0.160302 -4.40837e-06 -0.00895617 -0.149698 -4.2458e-06 -0.0104839 -0.124838
-5.12297e-06 -0.013205 -0.0999203 -7.21062e-06 -0.0155166 -0.049978 -1.25343e-05 -0.0168935 5.46845e-06 -1.84592e-05
-0.0191124 0.100001 -2.81408e-05 -0.0188262 0.2 -3.22348e-05 -0.0207606 0.3 -3.38379e-05 -0.0221717
0.4 -3.4576e-05 -0.0232173 0.5 -3.49969e-05 -0.0240053 0.6 -3.52977e-05 -0.024608 0.7
-3.55492e-05 -0.0250755 0.8 -3.57751e-05 -0.0254433 0.9 -3.59817e-05 -0.0257369 1 -3.61703e-05
-0.0259745 1.1 -3.63412e-05 -0.0261693 1.2 -3.64948e-05 -0.0263313 1.3 -3.66319e-05 -0.0264675
1.4 -3.67536e-05 -0.0265833 1.5 -3.68613e-05 -0.0266828 1.6 -3.69564e-05 -0.0267692 1.7
-3.70402e-05 -0.0268447 1.8 -3.71141e-05 -0.0269114 1.9 -3.71794e-05 -0.0269705 2 -3.72373e-05
-0.0270234 2.1 -3.72889e-05 -0.0270709 2.2 -3.73353e-05 -0.0271138 2.3 -3.73775e-05 -0.0271527
2.4 -3.74163e-05 -0.0271881 2.5 -3.74528e-05 -0.0272205 2.6 -3.74875e-05 -0.0272501 2.7
-3.75212e-05 -0.0272773 2.8 -3.75545e-05 -0.0273024 2.9 -3.75879e-05 -0.0273255 3 -3.76221e-05
-0.0273469 3.1 -3.76574e-05 -0.0273666 3.2 -3.76943e-05 -0.0273849 3.3 -3.77331e-05 -0.0274019
3.4 -3.77741e-05 -0.0274176 3.5 -3.78178e-05 -0.0274322 3.6 -3.78646e-05 -0.0274458 3.7
-3.79147e-05 -0.0274584 3.8 -3.79688e-05 -0.02747 3.9 -3.80277e-05 -0.0274809 4 -3.80922e-05
-0.0274909 4.1 -3.8164e-05 -0.0275002 4.2 -3.82448e-05 -0.0275088 4.3 -3.83372e-05 -0.0275168
4.4 -3.84447e-05 -0.0275241 4.5 -3.85711e-05 -0.0275309 4.6 -3.87212e-05 -0.0275371 4.7
-3.89001e-05 -0.0275427 4.8 -3.91133e-05 -0.0275478 4.9 -3.93665e-05 -0.0275525 5 -3.96655e-05
-0.0275566 5.1 -4.00159e-05 -0.0275603 5.2 -4.04228e-05 -0.0275635 5.3 -4.08891e-05 -0.0275663
5.4 -4.14123e-05 -0.0275687 5.5 -4.19801e-05 -0.0275706 5.6 -4.25659e-05 -0.0275722 5.7
-4.31279e-05 -0.0275734 5.8 -4.36137e-05 -0.0275743 5.9 -4.39709e-05 -0.0275748 6 -4.41595e-05
-0.0275751 -1.61646e-16 3.29607e-17 -0.01 6.19887e-06 -5.73024e-10 -0.0100001 0.000155762 -1.43986e-08 -0.0100017
0.100001 -9.08025e-06 -0.0117354 0.2 -1.31339e-05 -0.0138118 0.3 -1.46631e-05 -0.0153019 0.4
-1.53503e-05 -0.0163952 0.5 -1.57427e-05 -0.0172132 0.6 -1.60299e-05 -0.0178353 0.7 -1.62763e-05
-0.0183157 0.8 -1.65017e-05 -0.0186923 0.9 -1.67102e-05 -0.0189919 1 -1.69017e-05 -0.0192337
1.1 -1.70757e-05 -0.0194317 1.2 -1.72324e-05 -0.0195959 1.3 -1.73723e-05 -0.0197337 1.4
-1.74967e-05 -0.0198508 1.5 -1.76067e-05 -0.0199513 1.6 -1.77039e-05 -0.0200384 1.7 -1.77897e-05
-0.0201145 1.8 -1.78654e-05 -0.0201816 1.9 -1.79323e-05 -0.0202411 2 -1.79916e-05 -0.0202943
2.1 -1.80446e-05 -0.020342 2.2 -1.80924e-05 -0.0203851 2.3 -1.81358e-05 -0.0204242 2.4
-1.81759e-05 -0.0204597 2.5 -1.82135e-05 -0.0204922 2.6 -1.82493e-05 -0.0205219 2.7 -1.82841e-05
-0.0205492 2.8 -1.83184e-05 -0.0205744 2.9 -1.83529e-05 -0.0205975 3 -1.8388e-05 -0.020619
3.1 -1.84242e-05 -0.0206388 3.2 -1.8462e-05 -0.0206571 3.3 -1.85017e-05 -0.0206741 3.4
-1.85436e-05 -0.0206899 3.5 -1.85881e-05 -0.0207045 3.6 -1.86356e-05 -0.0207181 3.7 -1.86865e-05
-0.0207307 3.8 -1.87413e-05 -0.0207424 3.9 -1.88008e-05 -0.0207532 4 -1.8866e-05 -0.0207633
4.1 -1.89384e-05 -0.0207726 4.2 -1.90198e-05 -0.0207813 4.3 -1.91129e-05 -0.0207892 4.4
[...]
POINT_DATA 778
FIELD attributes 2
age 1 778 float
0 2.61209e-06 0.000566635 0.0012809 0.00268098 0.00459803 0.00616584 0.00625984 0.00805004 0.0099243 0.0101656
0.0138681 0.0144381 0.0181231 0.0214251 0.0214251 0.0215741 0.0232526 0.0247932 0.0280164 0.034297
0.0400995 0.0456083 0.0512545 0.0623461 0.0726349 0.082784 0.0928875 0.102962 0.113017 0.123059
0.133091 0.143116 0.153136 0.163152 0.173166 0.183176 0.193185 0.203193 0.213199 0.223205
0.233209 0.243213 0.253217 0.26322 0.273222 0.283225 0.293227 0.303228 0.31323 0.323232
0.333233 0.343234 0.353235 0.363236 0.373237 0.383238 0.393239 0.403239 0.41324 0.423241
0.433241 0.443242 0.453242 0.463243 0.473243 0.483243 0.493244 0.503244 0.513245 0.523245
0.533245 0.543245 0.553246 0.563246 0.573246 0.583246 0.593247 0.603247 0.613248 0.623248
0.633249 0 3.61403e-05 0.00566798 0.0112881 0.022343 0.0330271 0.0432295 0.053367 0.0634667
0.0735408 0.083597 0.0936402 0.103674 0.113701 0.123722 0.133739 0.143753 0.153765 0.163774
0.173782 0.183789 0.193795 0.2038 0.213804 0.223807 0.233811 0.243813 0.253816 0.263818
0.27382 0.283822 0.293823 0.303825 0.313826 0.323827 0.333828 0.343829 0.35383 0.363831
0.373832 0.383832 0.393833 0.403833 0.413834 0.423834 0.433835 0.443835 0.453836 0.463836
0.473837 0.483837 0.493837 0.503838 0.513838 0.523838 0.533838 0.543839 0.553839 0.563839
0.57384 0.58384 0.593841 0.603841 0 2.58078e-06 0.0105735 0.0207609 0.0308934 0.0409905
0.0510633 0.0611188 0.0711618 0.0811955 0.0912221 0.101243 0.111261 0.121275 0.131286 0.141296
0.151304 0.161311 0.171317 0.181322 0.191326 0.201329 0.211333 0.221335 0.231338 0.24134
0.251342 0.261344 0.271345 0.281347 0.291348 0.301349 0.31135 0.321351 0.331352 0.341353
0.351353 0.361354 0.371355 0.381355 0.391356 0.401356 0.411357 0.421357 0.431358 0.441358
0.451359 0.461359 0.471359 0.48136 0.49136 0.50136 0.51136 0.521361 0.531361 0.541361
0.551362 0.561362 0.571363 0.581363 0 0 0 0.0101309 0.0202271 0.0302994
0.0403547 0.0503976 0.0604312 0.0704578 0.0804791 0.0904964 0.10051 0.110522 0.120532 0.13054
0.140547 0.150552 0.160557 0.170561 0.180565 0.190568 0.200571 0.210574 0.220576 0.230578
0.240579 0.250581 0.260582 0.270584 0.280585 0.290586 0.300587 0.310588 0.320588 0.330589
0.34059 0.350591 0.360591 0.370592 0.380592 0.390593 0.400593 0.410594 0.420594 0.430594
0.440595 0.450595 0.460595 0.470596 0.480596 0.490596 0.500596 0.510597 0.520597 0.530598
0.540598 0.550599 0.560599 0 0.000753432 0.00164718 0.00336103 0.00529435 0.00665438 0.00962171
0.0124502 0.0180166 0.0234538 0.0342189 0.0445323 0.0547209 0.064859 0.0749655 0.0850491 0.0951153
0.105168 0.11521 0.125243 0.13527 0.145292 0.15531 0.165325 0.175337 0.185347 0.195355
0.205362 0.215368 0.225373 0.235378 0.245382 0.255385 0.265388 0.275391 0.285393 0.295395
0.305397 0.315398 0.3254 0.335401 0.345402 0.355403 0.365404 0.375405 0.385406 0.395407
0.405407 0.415408 0.425409 0.435409 0.44541 0.45541 0.465411 0.475411 0.485411 0.495412
0.505412 0.515413 0.525413 0.535413 0.545414 0.555414 0.565414 0.575414 0.585415 0.595415
0.605416 0.615416 0.625417 0 6.64459e-07 1.66962e-05 0.0106746 0.0209908 0.0311781 0.0413149
0.0514203 0.061503 0.0715685 0.0816206 0.0916621 0.101695 0.111722 0.121744 0.131762 0.141776
0.151788 0.161798 0.171806 0.181813 0.191819 0.201825 0.211829 0.221833 0.231836 0.241839
0.251841 0.261844 0.271846 0.281847 0.291849 0.30185 0.311852 0.321853 0.331854 0.341855
0.351856 0.361857 0.371857 0.381858 0.391859 0.401859 0.41186 0.42186 0.431861 0.441861
0.451862 0.461862 0.471863 0.481863 0.491863 0.501864 0.511864 0.521864 0.531865 0.541865
0.551865 0.561866 0.571866 0.581866 0.591867 0.601867 0 0 4.30667e-06 0.0101867
0.0203227 0.0304274 0.0405097 0.0505748 0.0606266 0.0706679 0.0807011 0.0907277 0.100749 0.110767
0.120781 0.130793 0.140803 0.150812 0.160819 0.170825 0.18083 0.190834 0.200838 0.210841
0.220844 0.230846 0.240849 0.250851 0.260852 0.270854 0.280855 0.290857 0.300858 0.310859
0.32086 0.330861 0.340862 0.350862 0.360863 0.370864 0.380864 0.390865 0.400865 0.410866
0.420866 0.430867 0.440867 0.450867 0.460868 0.470868 0.480869 0.490869 0.500869 0.510869
0.52087 0.53087 0.54087 0.550871 0.560871 0.570872 0.580872 0 2.24354e-17 1.05271e-06
0.0101044 0.0201863 0.0302512 0.0403027 0.0503439 0.0603769 0.0704035 0.080425 0.0904426 0.100457
0.110469 0.120479 0.130487 0.140494 0.1505 0.160505 0.170509 0.180513 0.190516 0.200519
0.210522 0.220524 0.230526 0.240528 0.250529 0.260531 0.270532 0.280533 0.290534 0.300535
0.310536 0.320537 0.330538 0.340538 0.350539 0.36054 0.37054 0.380541 0.390541 0.400542
0.410542 0.420542 0.430543 0.440543 0.450544 0.460544 0.470544 0.480544 0.490545 0.500545
0.510545 0.520546 0.530546 0.540547 0.550547 0.560548 0 2.49855e-06 0.000566573 0.00128151
0.00268219 0.00459996 0.00617179 0.00626403 0.00805264 0.00993283 0.0101697 0.0138837 0.0144475 0.0181368
0.0215897 0.0232091 0.0248022 0.0280198 0.0342891 0.0401038 0.0456122 0.0512588 0.062349 0.0726842
0.0828297 0.0929318 0.103006 0.113061 0.123102 0.133134 0.14316 0.15318 0.163196 0.173209
0.18322 0.193229 0.203236 0.213242 0.223248 0.233252 0.243256 0.25326 0.263263 0.273265
0.283268 0.29327 0.303272 0.313273 0.323275 0.333276 0.343277 0.353278 0.363279 0.37328
0.383281 0.393282 0.403283 0.413283 0.423284 0.433284 0.443285 0.453285 0.463286 0.473286
0.483287 0.493287 0.503287 0.513288 0.523288 0.533288 0.543289 0.553289 0.563289 0.57329
0.58329 0.59329 0.603291 0.613291 0.623292 0.633292 0 3.47602e-05 0.00566493 0.0112832
0.0223363 0.0330199 0.0432274 0.0533654 0.0634651 0.0735392 0.0835954 0.0936386 0.103672 0.113699
0.12372 0.133737 0.143751 0.153763 0.163772 0.173781 0.183787 0.193793 0.203798 0.213802
0.223806 0.233809 0.243812 0.253814 0.263816 0.273818 0.28382 0.293822 0.303823 0.313824
0.323825 0.333826 0.343827 0.353828 0.363829 0.37383 0.38383 0.393831 0.403832 0.413832
0.423833 0.433833 0.443834 0.453834 0.463834 0.473835 0.483835 0.493836 0.503836 0.513836
0.523837 0.533837 0.543837 0.553838 0.563838 0.573838 0.583839 0.593839 0.60384 0
2.58039e-06 0.010573 0.0207623 0.030895 0.0409921 0.0510649 0.0611204 0.0711633 0.081197 0.0912236
0.101245 0.111262 0.121276 0.131288 0.141297 0.151306 0.161312 0.171318 0.181323 0.191327
0.201331 0.211334 0.221337 0.231339 0.241342 0.251343 0.261345 0.271347 0.281348 0.291349
0.301351 0.311352 0.321353 0.331353 0.341354 0.351355 0.361356 0.371356 0.381357 0.391357
0.401358 0.411358 0.421359 0.431359 0.44136 0.45136 0.46136 0.471361 0.481361 0.491361
0.501362 0.511362 0.521362 0.531363 0.541363 0.551364 0.561364 0.571364 0.581365 0
4.49879e-17 0.0101309 0.0202271 0.0302994 0.0403547 0.0503975 0.0604311 0.0704577 0.080479 0.0904963
0.10051 0.110522 0.120532 0.13054 0.140546 0.150552 0.160557 0.170561 0.180565 0.190568
0.200571 0.210573 0.220576 0.230578 0.240579 0.250581 0.260582 0.270584 0.280585 0.290586
0.300587 0.310588 0.320588 0.330589 0.34059 0.35059 0.360591 0.370592 0.380592 0.390593
0.400593 0.410593 0.420594 0.430594 0.440595 0.450595 0.460595 0.470596 0.480596 0.490596
0.500597 0.510597 0.520597 0.530598 0.540598 0.550599 0.560599 
U 3 778 float
9.8378 -0.647902 1.60004 9.83801 -0.647849 1.60141 9.17724 -0.586647 1.58826 8.47483 -0.527917
1.55561 6.88363 -0.449021 1.55995 7.45838 -1.26951 2.74741 7.04062 -1.79754 3.52511
7.09742 -1.80468 3.55672 5.95386 -2.60889 2.37579 5.71185 -3.16072 2.22571 5.70155
-3.1822 2.17705 6.64309 -2.9449 0.368925 6.75535 -3.04522 0.440668 7.23603 -2.66822
0.749127 7.7617 -1.84869 -0.2447 7.7617 -1.84869 -0.2447 7.79543 -1.7976 -0.295121
7.77327 -1.67161 -0.208507 7.77489 -1.52808 -0.160942 7.98171 -1.34591 0.334916 8.63091
-0.986419 -0.121214 9.08043 -0.21564 -0.639094 8.85753 -0.31379 -0.389096 9.01625 -0.728879
0.228627 9.71946 -0.0758728 -0.168389 9.85303 -0.0405196 -0.115523 9.89757 -0.0154841 -0.0808678
9.926 -0.00351919 -0.0586244 9.94512 0.00192969 -0.0438331 9.95843 0.00411059 -0.0336666 9.96793
0.00469472 -0.0264714 9.97487 0.00454133 -0.0212457 9.98002 0.00408564 -0.0173624 9.98391 0.00354154
-0.0144168 9.9869 0.0030085 -0.0121411 9.98922 0.00252792 -0.0103532 9.99105 0.00211253 -0.00892704
9.9925 0.0017617 -0.00777343 9.99367 0.00146916 -0.00682817 9.99462 0.00122685 -0.00604432 9.99539
0.00102673 -0.00538707 9.99603 0.000861512 -0.00483027 9.99656 0.00072497 -0.00435404 9.997 0.000611876
-0.00394308 9.99737 0.000517935 -0.00358551 9.99768 0.000439647 -0.00327202 9.99794 0.000374173 -0.00299523
9.99817 0.000319218 -0.00274925 9.99837 0.000272924 -0.00252935 9.99853 0.000233786 -0.00233168 9.99868
0.00020058 -0.00215309 9.9988 0.00017231 -0.00199101 9.99891 0.000148163 -0.00184328 9.99901 0.000127468
-0.00170811 9.99909 0.000109675 -0.001584 9.99917 9.43265e-05 -0.00146965 9.99924 8.10424e-05 -0.00136399
9.9993 6.95021e-05 -0.00126605 9.99935 5.94332e-05 -0.00117502 9.99939 5.05999e-05 -0.00109015 9.99944
4.27923e-05 -0.00101081 9.99948 3.58179e-05 -0.000936388 9.99952 2.94927e-05 -0.000866352 9.99955 2.36357e-05
-0.000800206 9.99958 1.80656e-05 -0.000737495 9.99961 1.26012e-05 -0.000677807 9.99963 7.06508e-06 -0.000620767
9.99965 1.28586e-06 -0.00056604 9.99967 -4.90458e-06 -0.000513316 9.99969 -1.16829e-05 -0.000462308 9.99971
-1.92493e-05 -0.000412745 9.99972 -2.78158e-05 -0.0003644 9.99973 -3.75065e-05 -0.000317151 9.99973 -4.81134e-05
-0.000271102 9.99972 -5.87599e-05 -0.000226688 9.9997 -6.77076e-05 -0.000184677 9.99966 -7.2592e-05 -0.000145936
9.9996 -7.11471e-05 -0.000111022 9.99953 -6.21071e-05 -7.9846e-05 9.99946 -4.58048e-05 -5.1675e-05 9.99942
-2.41887e-05 -2.54167e-05 9.99941 -1.23876e-05 -1.26181e-05 8.81979 -0.701263 -0.149593 8.81756 -0.701044
-0.150735 8.89896 -0.506203 -0.21544 9.04638 -0.624309 0.0843157 9.35989 -0.413158 0.140482
9.80167 -0.0712464 -0.126247 9.86432 -0.0353106 -0.0913618 9.90127 -0.0147745 -0.0674984 9.92642
-0.00450964 -0.0508942 9.94414 0.000422837 -0.0391816 9.95695 0.00257796 -0.0307641 9.96638 0.00331667
-0.0245982 9.97342 0.00336495 -0.0199982 9.97875 0.0031049 -0.0165071 9.98284 0.00273234 -0.0138146
9.986 0.00234322 -0.0117066 9.98848 0.00198094 -0.0100328 9.99044 0.00166192 -0.0086861 9.992
0.00138935 -0.00758896 9.99325 0.00116037 -0.00668463 9.99427 0.000969796 -0.00593098 9.9951 0.000811911
-0.00529636 9.99578 0.000681318 -0.00475677 9.99635 0.000573258 -0.0042938 9.99682 0.000483694 -0.00389317
9.99721 0.000409273 -0.00354374 9.99755 0.000347244 -0.00323672 9.99783 0.000295369 -0.00296513 9.99807
0.00025183 -0.00272337 9.99828 0.000215156 -0.00250691 9.99845 0.00018415 -0.00231207 9.99861 0.000157843
-0.00213585 9.99874 0.000135444 -0.00197574 9.99886 0.000116305 -0.00182967 9.99896 9.98953e-05 -0.00169592
9.99905 8.57784e-05 -0.00157302 9.99913 7.35913e-05 -0.00145973 9.9992 6.30315e-05 -0.00135497 9.99926
5.38439e-05 -0.00125783 9.99931 4.58104e-05 -0.00116751 9.99936 3.87404e-05 -0.00108327 9.99941 3.24621e-05
-0.0010045 9.99945 2.68147e-05 -0.000930596 9.99949 2.16418e-05 -0.000861045 9.99953 1.6787e-05 -0.000795357
9.99956 1.20918e-05 -0.00073309 9.99959 7.39803e-06 -0.00067384 9.99961 2.55239e-06 -0.000617244 9.99963
-2.58979e-06 -0.000562974 9.99965 -8.16515e-06 -0.000510729 9.99967 -1.43111e-05 -0.000460232 9.99969 -2.11783e-05
-0.00041122 9.9997 -2.8921e-05 -0.000363467 9.99971 -3.76183e-05 -0.000316834 9.99971 -4.70716e-05 -0.000271375
9.9997 -5.65151e-05 -0.000227444 9.99969 -6.44249e-05 -0.000185724 9.99965 -6.86792e-05 -0.00014704 9.99959
-6.71693e-05 -0.000111986 9.99953 -5.86328e-05 -8.05626e-05 9.99946 -4.32767e-05 -5.2128e-05 9.99943 -2.28712e-05
-2.56323e-05 9.99941 -1.17183e-05 -1.27229e-05 9.45753 -0.348624 0.0418571 9.45763 -0.34855 0.0418122
9.81603 -0.0701352 -0.124607 9.86926 -0.0333983 -0.0909036 9.90384 -0.0142684 -0.067271 9.92771
-0.00456867 -0.0507885 9.94476 0.000158418 -0.0391381 9.95721 0.00226286 -0.0307523 9.96645 0.003014
-0.0246019 9.97341 0.00309706 -0.020009 9.97871 0.00287652 -0.0165204 9.98278 0.00254114 -0.0138282
9.98594 0.00218449 -0.0117194 9.98843 0.00184958 -0.0100443 9.99039 0.00155322 -0.00869613 9.99196
0.00129927 -0.00759761 9.99322 0.00108553 -0.00669203 9.99424 0.000907418 -0.00593727 9.99508 0.000759749
-0.00530171 9.99576 0.000637546 -0.00476132 9.99633 0.0005364 -0.00429766 9.99681 0.000452554 -0.00389646
9.9972 0.000382878 -0.00354655 9.99754 0.000324802 -0.00323914 9.99782 0.000276233 -0.00296721 9.99806
0.000235469 -0.00272516 9.99827 0.000201131 -0.00250846 9.99845 0.000172101 -0.00231342 9.9986 0.000147468
-0.00213702 9.99874 0.000126492 -0.00197676 9.99885 0.000108568 -0.00183058 9.99896 9.3197e-05 -0.00169672
9.99905 7.99704e-05 -0.00157373 9.99913 6.85486e-05 -0.00146035 9.9992 5.8648e-05 -0.00135553 9.99926
5.00293e-05 -0.00125833 9.99931 4.24877e-05 -0.00116795 9.99936 3.58435e-05 -0.00108367 9.99941 2.99338e-05
-0.00100486 9.99945 2.46057e-05 -0.000930927 9.99949 1.9709e-05 -0.000861349 9.99952 1.50929e-05 -0.000795641
9.99956 1.06039e-05 -0.000733359 9.99959 6.08893e-06 -0.000674103 9.99961 1.39947e-06 -0.000617509 9.99963
-3.60363e-06 -0.000563249 9.99965 -9.0508e-06 -0.000511026 9.99967 -1.50719e-05 -0.000460563 9.99969 -2.18081e-05
-0.000411601 9.9997 -2.94024e-05 -0.000363916 9.99971 -3.79238e-05 -0.000317371 9.99971 -4.71717e-05 -0.000272012
9.9997 -5.63963e-05 -0.000228181 9.99969 -6.41087e-05 -0.000186535 9.99965 -6.82294e-05 -0.000147874 9.99959
-6.66773e-05 -0.000112773 9.99953 -5.81895e-05 -8.12279e-05 9.99947 -4.29505e-05 -5.26067e-05 9.99943 -2.27006e-05
-2.58811e-05 9.99942 -1.16316e-05 -1.28493e-05 9.87078 -0.0328443 -0.0916181 9.87078 -0.0328443 -0.0916181
9.87078 -0.0328443 -0.0916181 9.90472 -0.0141149 -0.0676344 9.92819 -0.00458342 -0.0509918 9.94501
8.0059e-05 -0.039262 9.95734 0.00216757 -0.0308333 9.96651 0.00292148 -0.024658 9.97344 0.00301461
-0.0200495 9.97871 0.00280591 -0.0165505 9.98278 0.00248184 -0.0138511 9.98594 0.00213515 -0.0117372
9.98842 0.00180869 -0.0100582 9.99038 0.00151936 -0.00870721 9.99195 0.00127118 -0.0076065 9.99321
0.00106218 -0.00669922 9.99424 0.00088796 -0.00594314 9.99507 0.000743475 -0.00530653 9.99576 0.000623889
-0.00476531 9.99633 0.000524901 -0.00430099 9.9968 0.000442839 -0.00389925 9.9972 0.000374644 -0.00354891
9.99754 0.000317802 -0.00324114 9.99782 0.000270264 -0.00296892 9.99806 0.000230366 -0.00272663 9.99827
0.000196757 -0.00250974 9.99845 0.000168342 -0.00231453 9.9986 0.000144232 -0.00213799 9.99874 0.0001237
-0.00197762 9.99885 0.000106154 -0.00183133 9.99896 9.11069e-05 -0.00169739 9.99905 7.81578e-05 -0.00157432
9.99913 6.69745e-05 -0.00146089 9.9992 5.72792e-05 -0.00135601 9.99926 4.88377e-05 -0.00125876 9.99931
4.14493e-05 -0.00116834 9.99936 3.49376e-05 -0.00108403 9.99941 2.91427e-05 -0.00100518 9.99945 2.39138e-05
-0.000931223 9.99949 1.9103e-05 -0.00086162 9.99953 1.45608e-05 -0.000795891 9.99956 1.01356e-05 -0.000733592
9.99959 5.6755e-06 -0.000674321 9.99961 1.03362e-06 -0.000617715 9.99963 -3.92766e-06 -0.000563448 9.99965
-9.33695e-06 -0.000511221 9.99967 -1.53219e-05 -0.000460759 9.99969 -2.2021e-05 -0.000411803 9.9997 -2.95741e-05
-0.000364131 9.99971 -3.80469e-05 -0.000317605 9.99971 -4.7238e-05 -0.000272273 9.9997 -5.64013e-05 -0.00022847
9.99969 -6.40575e-05 -0.000186847 9.99965 -6.81386e-05 -0.000148194 9.9996 -6.65708e-05 -0.000113076 9.99953
-5.80909e-05 -8.14871e-05 9.99947 -4.28773e-05 -5.27948e-05 9.99943 -2.26623e-05 -2.59794e-05 9.99942 -1.16121e-05
-1.28994e-05 7.48911 -0.00198251 0.434062 7.45988 -0.00138202 0.255621 7.43886 -0.000663924 0.0501604
7.57223 -0.000280166 0.208124 7.79688 0.000119537 -1.12333 8.3779 -0.000295612 -0.916991 8.80938
-0.000738075 -0.81727 8.97204 -0.000956382 -0.247366 9.19302 -0.00108972 -0.408097 9.28881 -0.000899352
0.0265909 9.69608 -0.000396957 -0.18757 9.81485 -0.000157341 -0.138491 9.8638 -7.28044e-05 -0.103134
9.89461 -4.16462e-05 -0.0779755 9.91707 -2.98311e-05 -0.059771 9.93428 -2.49883e-05 -0.0464425 9.94771
-2.2463e-05 -0.0365891 9.95825 -2.05749e-05 -0.0292315 9.96652 -1.88025e-05 -0.0236774 9.97303 -1.70444e-05
-0.019436 9.97816 -1.5324e-05 -0.0161583 9.9822 -1.36839e-05 -0.0135949 9.9854 -1.21562e-05 -0.0115661
9.98794 -1.07586e-05 -0.00994175 9.98997 -9.49818e-06 -0.00862626 9.9916 -8.37501e-06 -0.00754914 9.99292
-7.38541e-06 -0.00665783 9.99399 -6.52385e-06 -0.00591276 9.99487 -5.78357e-06 -0.00528387 9.99559 -5.15736e-06
-0.00474814 9.99619 -4.63753e-06 -0.0042878 9.99668 -4.21649e-06 -0.00388898 9.9971 -3.88676e-06 -0.00354082
9.99745 -3.64047e-06 -0.00323468 9.99774 -3.47024e-06 -0.00296372 9.998 -3.36901e-06 -0.0027224 9.99821
-3.33017e-06 -0.00250626 9.9984 -3.34761e-06 -0.00231165 9.99856 -3.41578e-06 -0.00213558 9.9987 -3.52966e-06
-0.00197559 9.99882 -3.68495e-06 -0.00182961 9.99893 -3.87816e-06 -0.00169591 9.99902 -4.10694e-06 -0.00157305
9.9991 -4.37067e-06 -0.00145979 9.99917 -4.67136e-06 -0.00135505 9.99924 -5.01491e-06 -0.00125792 9.9993
-5.41273e-06 -0.00116759 9.99935 -5.88374e-06 -0.00108336 9.99939 -6.45652e-06 -0.0010046 9.99944 -7.17117e-06
-0.000930726 9.99948 -8.08024e-06 -0.000861224 9.99951 -9.24751e-06 -0.000795623 9.99954 -1.07442e-05 -0.000733496
9.99957 -1.26424e-05 -0.000674456 9.9996 -1.50072e-05 -0.000618156 9.99962 -1.78889e-05 -0.000564286 9.99964
-2.13208e-05 -0.000512565 9.99965 -2.53206e-05 -0.00046274 9.99967 -2.98963e-05 -0.000414578 9.99968 -3.50402e-05
-0.00036788 9.99968 -4.06896e-05 -0.000322506 9.99969 -4.66262e-05 -0.000278433 9.99968 -5.23176e-05 -0.000235829
9.99967 -5.67746e-05 -0.000195089 9.99964 -5.85773e-05 -0.000156733 9.9996 -5.61982e-05 -0.00012114 9.99955
-4.85836e-05 -8.82794e-05 9.9995 -3.57212e-05 -5.76594e-05 9.99947 -1.88592e-05 -2.84994e-05 9.99946 -9.66238e-06
-1.41767e-05 9.32919 -0.000862391 -0.0990785 9.3292 -0.00086239 -0.0989877 9.36819 -0.000850624 -0.162672
9.69342 -0.000392939 -0.201278 9.81607 -0.000150107 -0.146271 9.86511 -6.77935e-05 -0.107849 9.8957
-3.88323e-05 -0.0809495 9.91792 -2.84794e-05 -0.0617024 9.93494 -2.44892e-05 -0.0477271 9.94821 -2.24225e-05
-0.037462 9.95863 -2.07608e-05 -0.0298365 9.96682 -1.90855e-05 -0.0241045 9.97326 -1.73558e-05 -0.0197427
9.97834 -1.56299e-05 -0.0163822 9.98234 -1.39696e-05 -0.0137608 9.98551 -1.24167e-05 -0.0116908 9.98803
-1.09941e-05 -0.0100368 9.99005 -9.71091e-06 -0.00869958 9.99166 -8.56799e-06 -0.0076064 9.99297 -7.56171e-06
-0.00670306 9.99404 -6.68624e-06 -0.00594886 9.9949 -5.93441e-06 -0.00531298 9.99562 -5.2986e-06 -0.00477185
9.99621 -4.77075e-06 -0.00430728 9.99671 -4.34295e-06 -0.00390514 9.99712 -4.00743e-06 -0.00355432 9.99747
-3.7561e-06 -0.00324607 9.99776 -3.58138e-06 -0.00297339 9.99801 -3.47611e-06 -0.00273068 9.99823 -3.43353e-06
-0.0025134 9.99841 -3.44747e-06 -0.00231785 9.99857 -3.51232e-06 -0.002141 9.99871 -3.62299e-06 -0.00198035
9.99883 -3.77513e-06 -0.00183382 9.99893 -3.96522e-06 -0.00169966 9.99903 -4.19086e-06 -0.0015764 9.99911
-4.45141e-06 -0.00146279 9.99918 -4.74886e-06 -0.00135775 9.99924 -5.08911e-06 -0.00126037 9.9993 -5.48362e-06
-0.00116981 9.99935 -5.95139e-06 -0.00108539 9.9994 -6.52114e-06 -0.00100644 9.99944 -7.23319e-06 -0.000932407
9.99948 -8.14039e-06 -0.000862759 9.99951 -9.3069e-06 -0.000797026 9.99954 -1.08044e-05 -0.000734778 9.99957
-1.27054e-05 -0.000675625 9.9996 -1.50753e-05 -0.00061922 9.99962 -1.7965e-05 -0.000565252 9.99964 -2.14082e-05
-0.00051344 9.99966 -2.54232e-05 -0.00046353 9.99967 -3.00187e-05 -0.000415291 9.99968 -3.51874e-05 -0.000368525
9.99969 -4.08668e-05 -0.000323094 9.99969 -4.68369e-05 -0.000278981 9.99969 -5.25609e-05 -0.000236358 9.99967
-5.70425e-05 -0.000195618 9.99964 -5.88532e-05 -0.000157266 9.9996 -5.64591e-05 -0.000121658 9.99955 -4.88043e-05
-8.87384e-05 9.9995 -3.58801e-05 -5.80032e-05 9.99947 -1.89418e-05 -2.86824e-05 9.99946 -9.70432e-06 -1.42707e-05
9.81674 -0.000144652 -0.150539 9.81674 -0.000144652 -0.150539 9.81676 -0.000144616 -0.15052 9.86583
-6.4172e-05 -0.110435 9.89629 -3.68224e-05 -0.082581 9.91839 -2.75154e-05 -0.0627619 9.9353 -2.41293e-05
-0.0484318 9.94849 -2.2386e-05 -0.0379409 9.95885 -2.08833e-05 -0.0301685 9.96699 -1.92756e-05 -0.0243388