/*--------------------------------*- C++ -*----------------------------------*\
  =========                 |
  \\      /  F ield         | OpenFOAM: The Open Source CFD Toolbox
   \\    /   O peration     | Website:  https://openfoam.org
    \\  /    A nd           | Version:  11
     \\/     M anipulation  |
\*---------------------------------------------------------------------------*/
FoamFile
{
    format      ascii;
    class       volScalarField;
    location    "0.038";
    object      k;
}
// * * * * * * * * * * * * * * * * * * * * * * * * * * * * * * * * * * * * * //

dimensions      [0 2 -2 0 0 0 0];

internalField   nonuniform List<scalar> 
287084
(
0.382414
0.395708
0.403383
0.40641
0.40691
0.406925
0.406924
0.406749
0.406843
0.407023
0.407027
0.407027
0.406922
0.406809
0.406806
0.406784
0.406937
0.407155
0.406984
0.407091
0.407185
0.407075
0.407059
0.407021
0.407016
0.406905
0.40697
0.40711
0.407066
0.406953
0.406867
0.406864
0.406688
0.40669
0.406886
0.406937
0.406906
0.406874
0.406833
0.406643
0.406729
0.406865
0.40661
0.406627
0.406768
0.406638
0.406585
0.406768
0.406858
0.406741
0.406767
0.406771
0.406763
0.40676
0.406567
0.406651
0.406791
0.406777
0.406805
0.40672
0.406731
0.406603
0.406684
0.406859
0.406854
0.406851
0.406629
0.406715
0.406854
0.406781
0.406779
0.406694
0.406782
0.406969
0.406947
0.406927
0.40692
0.406724
0.406769
0.406907
0.406895
0.406886
0.406765
0.406701
0.406653
0.406512
0.406607
0.406787
0.406763
0.406682
0.382451
0.395573
0.403295
0.406413
0.406961
0.406935
0.406945
0.406904
0.406971
0.406996
0.406947
0.406791
0.406809
0.406918
0.406687
0.406675
0.406852
0.406869
0.406766
0.406813
0.407068
0.407036
0.407072
0.407136
0.407114
0.406973
0.407067
0.407172
0.406929
0.406995
0.40707
0.406801
0.406809
0.406946
0.406825
0.406761
0.406787
0.406754
0.406897
0.406991
0.406964
0.406951
0.406771
0.406866
0.406946
0.406889
0.406765
0.40667
0.406664
0.40661
0.406555
0.406677
0.406825
0.406782
0.406625
0.406677
0.406838
0.40663
0.406716
0.406859
0.406843
0.406864
0.406775
0.406756
0.406649
0.40675
0.40689
0.406855
0.406733
0.406715
0.406921
0.407008
0.406955
0.406723
0.406753
0.406912
0.406765
0.406852
0.406898
0.406822
0.406852
0.406808
0.406657
0.406708
0.406757
0.406718
0.406601
0.406578
0.406715
0.406545
0.382451
0.395563
0.403287
0.406378
0.406955
0.407148
0.407147
0.40692
0.406961
0.407137
0.407103
0.407102
0.407099
0.40703
0.406941
0.407024
0.407125
0.407075
0.406958
0.406873
0.40691
0.40691
0.407061
0.407201
0.407208
0.407208
0.406992
0.407057
0.407152
0.406905
0.406965
0.407136
0.406903
0.406952
0.407121
0.40691
0.406982
0.407154
0.407074
0.407062
0.407027
0.406939
0.406964
0.407006
0.406972
0.406876
0.406915
0.406977
0.406969
0.406966
0.40672
0.406765
0.406838
0.406641
0.406737
0.406878
0.406626
0.406667
0.406812
0.406804
0.406803
0.406694
0.406712
0.406668
0.406816
0.406934
0.406901
0.406794
0.406806
0.406887
0.406828
0.406816
0.406622
0.406706
0.406825
0.406596
0.406633
0.406841
0.406787
0.406802
0.406727
0.406833
0.4069
0.406676
0.406749
0.406869
0.406622
0.406687
0.406795
0.406543
0.382442
0.395592
0.403214
0.406392
0.407116
0.407269
0.407251
0.407271
0.407184
0.407188
0.407202
0.407177
0.407174
0.407009
0.407107
0.407182
0.407126
0.406986
0.406917
0.406992
0.406969
0.406967
0.406932
0.406953
0.406943
0.406941
0.406784
0.406781
0.407086
0.407141
0.407078
0.406903
0.406844
0.406903
0.406788
0.406767
0.406848
0.406755
0.406857
0.407033
0.406942
0.406918
0.406883
0.406908
0.406918
0.406874
0.406801
0.406702
0.406743
0.406826
0.406804
0.40681
0.406754
0.406573
0.406659
0.406854
0.40664
0.406721
0.406862
0.406838
0.406834
0.406654
0.406783
0.406961
0.406901
0.406908
0.406927
0.40691
0.406941
0.40695
0.406729
0.406798
0.406905
0.406704
0.406761
0.406967
0.406923
0.406984
0.407004
0.406946
0.406719
0.406727
0.40688
0.406896
0.406881
0.406641
0.406703
0.406816
0.406781
0.406673
0.382442
0.395588
0.403204
0.406415
0.407084
0.407083
0.406997
0.407067
0.407178
0.406969
0.407055
0.407124
0.407094
0.40709
0.40694
0.406991
0.407004
0.406973
0.40697
0.406924
0.40684
0.406987
0.407201
0.407057
0.407051
0.407047
0.40691
0.406971
0.407122
0.406994
0.406899
0.406871
0.406828
0.406971
0.407163
0.406969
0.407061
0.407134
0.407132
0.407128
0.406851
0.406886
0.406966
0.406962
0.406959
0.406712
0.406777
0.406876
0.406655
0.406739
0.406884
0.40667
0.40662
0.40669
0.406599
0.406698
0.40689
0.406762
0.406755
0.406752
0.40663
0.406694
0.406872
0.406651
0.406715
0.406865
0.406629
0.406622
0.40676
0.406633
0.406719
0.406908
0.406919
0.40692
0.406702
0.406788
0.406918
0.406786
0.406799
0.406754
0.406612
0.406699
0.406882
0.406679
0.406774
0.406896
0.406678
0.406768
0.406894
0.406626
0.382426
0.395622
0.403234
0.406234
0.406738
0.406584
0.406647
0.40697
0.406991
0.406928
0.406708
0.406689
0.406892
0.406813
0.40694
0.407112
0.406993
0.407021
0.406968
0.40694
0.406935
0.406809
0.406879
0.40704
0.406878
0.406813
0.406972
0.407054
0.407012
0.406879
0.406924
0.407124
0.407075
0.407103
0.407051
0.406848
0.406849
0.40694
0.406708
0.406697
0.406828
0.40667
0.406726
0.406904
0.406704
0.406763
0.406945
0.406817
0.406809
0.406805
0.406673
0.4067
0.406917
0.406925
0.406885
0.406818
0.406678
0.406743
0.406838
0.406814
0.406801
0.406612
0.406714
0.406891
0.406872
0.40689
0.406861
0.406834
0.406826
0.406725
0.406837
0.406989
0.406787
0.406878
0.406964
0.406722
0.406789
0.406929
0.406697
0.406756
0.406905
0.406723
0.406826
0.406933
0.406896
0.406918
0.406899
0.406924
0.406873
0.406665
0.382397
0.395665
0.403222
0.406277
0.406824
0.406655
0.406753
0.406885
0.406847
0.406766
0.406723
0.407236
0.407483
0.407336
0.407339
0.407468
0.407492
0.407481
0.407483
0.407434
0.407449
0.407399
0.407212
0.407258
0.40731
0.407276
0.407269
0.407121
0.407124
0.407128
0.407007
0.407086
0.40718
0.406921
0.406958
0.407113
0.406901
0.406962
0.407116
0.407117
0.407113
0.406879
0.406956
0.407077
0.407005
0.407
0.406908
0.406931
0.406936
0.406896
0.406749
0.406827
0.406893
0.406705
0.406643
0.4068
0.406877
0.406833
0.406759
0.406627
0.406597
0.406511
0.406638
0.406798
0.40678
0.406779
0.406727
0.406714
0.406542
0.406648
0.406793
0.406561
0.406543
0.406764
0.406882
0.406834
0.406619
0.406645
0.40683
0.406707
0.40682
0.406903
0.406687
0.406762
0.406897
0.406835
0.406862
0.406873
0.406851
0.406611
0.382435
0.395614
0.403154
0.406355
0.407452
0.407738
0.407733
0.407703
0.407669
0.407634
0.407589
0.40756
0.407526
0.40753
0.407551
0.407522
0.40753
0.407558
0.407586
0.407541
0.407513
0.407446
0.407223
0.407255
0.407314
0.407287
0.407286
0.407203
0.407154
0.406927
0.406983
0.407162
0.406927
0.406976
0.407138
0.407066
0.406979
0.4071
0.407251
0.407251
0.407248
0.407024
0.407102
0.407202
0.407155
0.407085
0.407064
0.407136
0.407076
0.407138
0.407213
0.407199
0.407207
0.407165
0.407084
0.407041
0.407004
0.406964
0.406906
0.40672
0.406801
0.406954
0.406861
0.406889
0.406845
0.406677
0.406757
0.406886
0.40675
0.406718
0.406745
0.406752
0.406625
0.40656
0.406773
0.406923
0.406911
0.406905
0.406664
0.406737
0.40693
0.406798
0.406869
0.406894
0.406845
0.406698
0.406725
0.40685
0.406818
0.406662
0.382412
0.395645
0.403224
0.406268
0.406863
0.406833
0.406863
0.406857
0.406727
0.40671
0.407188
0.407459
0.407454
0.407436
0.407403
0.407427
0.407382
0.407432
0.407512
0.407493
0.407452
0.407461
0.407433
0.407343
0.407301
0.407276
0.40715
0.40707
0.407046
0.406903
0.406994
0.407174
0.406933
0.406981
0.407141
0.407066
0.406973
0.407079
0.40726
0.407178
0.407183
0.407203
0.40716
0.40717
0.407176
0.407154
0.407134
0.406858
0.406784
0.406784
0.406588
0.406654
0.406776
0.40664
0.406561
0.406714
0.406847
0.406824
0.406809
0.406618
0.406712
0.406839
0.406831
0.406827
0.40662
0.406712
0.406908
0.406768
0.406866
0.406926
0.406879
0.406799
0.406688
0.406804
0.4069
0.40686
0.406964
0.406987
0.406933
0.406923
0.406744
0.406816
0.406966
0.40684
0.40683
0.406829
0.406793
0.406767
0.406714
0.406534
0.382387
0.395666
0.403293
0.406103
0.406803
0.406811
0.406814
0.406703
0.406842
0.407029
0.407025
0.407021
0.406814
0.406934
0.407094
0.407078
0.407068
0.406933
0.406917
0.406824
0.406948
0.407081
0.406974
0.406907
0.407035
0.40714
0.406959
0.407064
0.407207
0.406946
0.406952
0.407095
0.407079
0.407086
0.407073
0.407075
0.407054
0.406875
0.406898
0.406939
0.406653
0.406629
0.406742
0.406571
0.406634
0.406783
0.406583
0.406543
0.406626
0.406596
0.406651
0.406662
0.406621
0.406477
0.406538
0.40672
0.406536
0.406498
0.406694
0.406813
0.406756
0.406585
0.406512
0.406665
0.406711
0.406607
0.406705
0.40682
0.406674
0.406676
0.406666
0.406527
0.40659
0.406766
0.406607
0.406552
0.40673
0.406827
0.406772
0.406627
0.406558
0.40675
0.406858
0.406844
0.40684
0.406647
0.406658
0.406815
0.406814
0.406691
0.382416
0.395617
0.403251
0.406303
0.406916
0.406933
0.40693
0.406767
0.406886
0.407031
0.407019
0.406973
0.407047
0.407192
0.406987
0.407023
0.407273
0.407285
0.407256
0.407241
0.407146
0.407071
0.407109
0.407122
0.407085
0.406991
0.40703
0.407123
0.407076
0.40691
0.406973
0.407173
0.407153
0.407153
0.407088
0.406886
0.406851
0.406909
0.406686
0.40667
0.406791
0.406635
0.406691
0.406868
0.406668
0.406684
0.406936
0.40696
0.406904
0.406687
0.406727
0.406835
0.406588
0.406581
0.406712
0.406751
0.406757
0.406598
0.406686
0.406758
0.406708
0.4066
0.406542
0.4067
0.406736
0.406695
0.406606
0.406553
0.406679
0.406757
0.40672
0.406668
0.406833
0.406961
0.406741
0.40682
0.40697
0.40679
0.406885
0.406968
0.406785
0.406889
0.406972
0.406704
0.406729
0.406854
0.406727
0.406726
0.406713
0.406565
0.382406
0.395647
0.403205
0.406336
0.406955
0.406931
0.406998
0.40701
0.406979
0.406898
0.407148
0.407471
0.407357
0.407465
0.40753
0.407454
0.407489
0.407446
0.407295
0.407361
0.407412
0.407219
0.40732
0.407423
0.407402
0.4074
0.407309
0.407243
0.406964
0.406989
0.407107
0.406847
0.406855
0.406981
0.406768
0.40677
0.4069
0.406721
0.406767
0.40693
0.406724
0.406776
0.406947
0.406814
0.406803
0.406798
0.406662
0.40671
0.406901
0.406911
0.40692
0.406877
0.406771
0.406684
0.406671
0.406577
0.406685
0.406744
0.406536
0.406515
0.406786
0.406871
0.406788
0.40683
0.406848
0.406803
0.406613
0.406609
0.40687
0.406899
0.406841
0.406618
0.406602
0.406763
0.406776
0.406761
0.406556
0.406581
0.406831
0.406894
0.406852
0.406648
0.406742
0.406844
0.40682
0.406815
0.406625
0.406731
0.406856
0.406597
0.382435
0.395614
0.403153
0.406349
0.407471
0.407626
0.407535
0.407525
0.40752
0.407553
0.407559
0.407473
0.407512
0.407559
0.407505
0.407523
0.407533
0.407518
0.407478
0.407467
0.407488
0.407493
0.407344
0.407371
0.407397
0.407343
0.407242
0.407158
0.407132
0.406965
0.407042
0.407203
0.407153
0.407045
0.407102
0.40728
0.407246
0.407201
0.406984
0.407041
0.407152
0.407125
0.407117
0.406914
0.406998
0.407084
0.407052
0.407048
0.406963
0.40695
0.406924
0.406913
0.406705
0.406699
0.406857
0.40688
0.406868
0.406651
0.406714
0.406954
0.406936
0.406896
0.406689
0.406769
0.406925
0.40669
0.406757
0.406888
0.406752
0.406719
0.406744
0.40675
0.406623
0.406557
0.406769
0.40692
0.406903
0.406894
0.406683
0.406763
0.406863
0.406851
0.406847
0.406641
0.406731
0.406938
0.406843
0.40687
0.406823
0.406624
0.382396
0.395646
0.403288
0.406209
0.406677
0.40656
0.406682
0.406944
0.406838
0.40686
0.406816
0.406687
0.406726
0.406888
0.406839
0.406962
0.407026
0.406965
0.406936
0.406959
0.40694
0.40709
0.40731
0.407153
0.407249
0.407306
0.407227
0.407258
0.407207
0.407018
0.407041
0.407174
0.407152
0.407042
0.407095
0.407231
0.407165
0.407168
0.407159
0.407135
0.407096
0.407091
0.407072
0.40709
0.407049
0.407003
0.406962
0.406955
0.406903
0.406865
0.406674
0.406738
0.406909
0.406877
0.406836
0.406625
0.406659
0.406833
0.40688
0.406839
0.406599
0.406628
0.406799
0.40678
0.406776
0.406612
0.406716
0.406832
0.406818
0.406813
0.406589
0.406597
0.406781
0.406683
0.406784
0.406986
0.406824
0.406931
0.407016
0.406952
0.406943
0.406925
0.40692
0.40672
0.40672
0.406925
0.406996
0.406967
0.406941
0.406719
0.382435
0.395613
0.403153
0.406352
0.407449
0.407735
0.40773
0.4077
0.40767
0.407682
0.407693
0.407622
0.407582
0.407577
0.407592
0.407572
0.407527
0.407389
0.407436
0.407482
0.407452
0.407407
0.407428
0.407465
0.407427
0.407391
0.407302
0.407255
0.407179
0.407142
0.407085
0.406907
0.406955
0.407065
0.406789
0.406759
0.406867
0.406702
0.40675
0.406908
0.406697
0.406751
0.406919
0.406917
0.406913
0.406684
0.406741
0.406896
0.406831
0.406846
0.406856
0.406811
0.406854
0.4069
0.406882
0.406876
0.406643
0.406745
0.406996
0.40686
0.406955
0.407084
0.406993
0.407007
0.406987
0.406772
0.40677
0.406846
0.40674
0.406714
0.406741
0.406747
0.406621
0.406555
0.406768
0.406919
0.406902
0.406893
0.406682
0.406762
0.406861
0.406828
0.406791
0.40665
0.406623
0.406588
0.406727
0.406824
0.406773
0.406598
0.382468
0.395555
0.403187
0.406379
0.406985
0.406868
0.406989
0.407119
0.406951
0.407021
0.407109
0.407064
0.406911
0.406953
0.407094
0.40709
0.407088
0.406912
0.406959
0.407037
0.407018
0.406973
0.407088
0.407202
0.406992
0.407069
0.407222
0.40708
0.406998
0.407126
0.407204
0.407034
0.407129
0.407203
0.40703
0.407012
0.406977
0.406986
0.406927
0.406698
0.406678
0.406761
0.40663
0.406565
0.406595
0.406514
0.406554
0.406849
0.406887
0.406826
0.406832
0.406818
0.406657
0.406642
0.407069
0.407256
0.407169
0.407234
0.407313
0.407291
0.40729
0.407144
0.407162
0.407191
0.407149
0.407146
0.407082
0.406873
0.406839
0.406888
0.406682
0.406746
0.406879
0.406877
0.406876
0.406687
0.406772
0.406825
0.406619
0.406648
0.406907
0.406923
0.406879
0.406694
0.406756
0.406888
0.406769
0.406785
0.406771
0.406605
0.382454
0.395602
0.403116
0.406321
0.407432
0.407768
0.407768
0.407705
0.407705
0.407712
0.407693
0.407612
0.407569
0.407573
0.407509
0.407526
0.407535
0.407356
0.407428
0.407479
0.407234
0.4073
0.407399
0.407357
0.407357
0.407366
0.40735
0.407065
0.407064
0.407204
0.407193
0.407148
0.406885
0.406911
0.406979
0.406973
0.406965
0.40671
0.406656
0.406712
0.406546
0.406553
0.406766
0.406793
0.406749
0.406538
0.406512
0.406724
0.406781
0.406712
0.406776
0.406795
0.406582
0.406693
0.407034
0.406925
0.407047
0.407139
0.406966
0.407065
0.407131
0.406954
0.407023
0.407054
0.406967
0.406969
0.406951
0.406769
0.406806
0.406884
0.406731
0.406758
0.406773
0.406728
0.406632
0.406554
0.406704
0.406858
0.406849
0.406847
0.406666
0.406667
0.406808
0.406711
0.406822
0.406893
0.406715
0.406823
0.406912
0.406636
0.382436
0.395613
0.403153
0.406353
0.40745
0.407771
0.407811
0.40779
0.407747
0.407717
0.407719
0.407698
0.40763
0.407589
0.407591
0.407577
0.407511
0.407527
0.407537
0.407384
0.40745
0.407506
0.407415
0.407407
0.407366
0.407309
0.407268
0.407211
0.407018
0.407099
0.407192
0.406916
0.40695
0.407055
0.406784
0.406753
0.406854
0.406682
0.406724
0.406876
0.406666
0.406686
0.406846
0.406768
0.40677
0.406792
0.406773
0.406802
0.406815
0.406761
0.406756
0.40664
0.406766
0.407068
0.406935
0.407048
0.407139
0.407124
0.407096
0.4071
0.407112
0.40699
0.407021
0.406977
0.406817
0.406886
0.406946
0.406739
0.40681
0.406975
0.406994
0.40695
0.406852
0.406704
0.40676
0.4069
0.406876
0.406863
0.406735
0.406711
0.406633
0.406759
0.40687
0.406858
0.406853
0.406622
0.406705
0.406872
0.40683
0.406668
0.382454
0.395602
0.403116
0.406322
0.407434
0.407732
0.40773
0.407703
0.407671
0.407642
0.407648
0.407606
0.407574
0.407503
0.407516
0.407525
0.407345
0.407417
0.407471
0.407229
0.407298
0.407411
0.40731
0.407312
0.40726
0.407089
0.407138
0.407263
0.406994
0.406975
0.407094
0.406921
0.40695
0.407099
0.407105
0.407111
0.407054
0.40701
0.406985
0.406948
0.406648
0.406659
0.406772
0.406523
0.406547
0.406673
0.406454
0.406466
0.406691
0.406758
0.406714
0.406635
0.406517
0.40664
0.407046
0.40695
0.407054
0.407178
0.407158
0.407151
0.407146
0.407175
0.407139
0.407145
0.407121
0.406919
0.406957
0.407004
0.406881
0.406898
0.406961
0.406937
0.406875
0.406884
0.406835
0.406657
0.406644
0.40683
0.406848
0.406809
0.406627
0.406678
0.406814
0.406618
0.406711
0.406806
0.406575
0.406637
0.406806
0.406565
0.382453
0.395607
0.403089
0.406438
0.407159
0.407153
0.407185
0.407205
0.407135
0.407194
0.407232
0.407129
0.407037
0.407079
0.407215
0.407184
0.407183
0.407149
0.407144
0.406977
0.406996
0.407362
0.407442
0.407392
0.407261
0.407181
0.407159
0.406991
0.407058
0.407187
0.406918
0.406933
0.40705
0.40681
0.406791
0.406896
0.406819
0.406826
0.406808
0.406636
0.406679
0.406792
0.406692
0.406696
0.406676
0.406644
0.406647
0.406657
0.406524
0.406617
0.407169
0.407538
0.40755
0.407531
0.407538
0.407465
0.407429
0.407438
0.407422
0.407276
0.407309
0.407343
0.407255
0.407273
0.407192
0.407189
0.407211
0.407186
0.407204
0.407173
0.407122
0.406916
0.406954
0.407015
0.406972
0.406894
0.406828
0.406826
0.406844
0.406845
0.406653
0.40672
0.406784
0.406578
0.406643
0.406817
0.406702
0.406706
0.406695
0.406555
0.382427
0.395612
0.403232
0.406267
0.406787
0.406776
0.406674
0.406718
0.406876
0.406735
0.40669
0.406747
0.406681
0.406809
0.407002
0.406966
0.406964
0.406869
0.407031
0.407175
0.407317
0.407439
0.40732
0.407342
0.407295
0.407129
0.407198
0.407328
0.40706
0.407029
0.407132
0.406967
0.407024
0.407167
0.406928
0.406989
0.407098
0.407076
0.407065
0.406816
0.406879
0.40696
0.406818
0.406803
0.406733
0.406791
0.40681
0.406759
0.406606
0.406635
0.406692
0.406464
0.406496
0.40666
0.406646
0.406639
0.406618
0.406615
0.40643
0.406493
0.406687
0.406472
0.406507
0.406668
0.406612
0.406619
0.40662
0.406526
0.406635
0.406857
0.406815
0.406767
0.406777
0.406792
0.406669
0.406606
0.406776
0.406919
0.406893
0.406876
0.406739
0.4067
0.406588
0.406699
0.406794
0.406566
0.406594
0.406752
0.406748
0.406685
0.382436
0.395613
0.403154
0.406349
0.407488
0.407601
0.40754
0.407526
0.407502
0.407505
0.407483
0.407499
0.40752
0.407482
0.407316
0.407365
0.407411
0.407392
0.407355
0.407372
0.407429
0.407415
0.407412
0.407234
0.407206
0.407248
0.407244
0.40707
0.407086
0.407205
0.407192
0.407086
0.407105
0.407116
0.407089
0.407075
0.406794
0.406835
0.406873
0.406727
0.406737
0.406689
0.406588
0.406511
0.406526
0.406497
0.40665
0.406762
0.406716
0.406728
0.40666
0.406884
0.407434
0.407566
0.40755
0.40752
0.407506
0.40751
0.407429
0.40741
0.407424
0.407362
0.407365
0.407359
0.407349
0.407168
0.407195
0.407242
0.407106
0.407201
0.407257
0.40723
0.407258
0.407232
0.407187
0.407088
0.407038
0.40698
0.406869
0.406781
0.406756
0.406628
0.406728
0.406894
0.406852
0.406841
0.406627
0.406708
0.406805
0.406557
0.382435
0.395613
0.403153
0.406354
0.407451
0.407778
0.407772
0.407707
0.407711
0.407717
0.407697
0.40762
0.407578
0.407583
0.407524
0.407545
0.407558
0.407384
0.407462
0.407521
0.4075
0.407444
0.407471
0.407514
0.407483
0.407482
0.407393
0.407331
0.407095
0.407153
0.407245
0.406985
0.407034
0.407177
0.406931
0.406918
0.407028
0.407011
0.40697
0.407045
0.407088
0.407049
0.407039
0.406852
0.406923
0.406964
0.406956
0.406955
0.406904
0.406822
0.406683
0.406917
0.407448
0.407608
0.407607
0.407582
0.407544
0.407511
0.407514
0.40753
0.407481
0.407453
0.407396
0.407359
0.407258
0.407306
0.407344
0.40725
0.407313
0.407342
0.407316
0.407316
0.407249
0.407241
0.407169
0.407163
0.407098
0.407083
0.407066
0.407097
0.407043
0.406815
0.406838
0.406926
0.406686
0.406726
0.406928
0.406923
0.406881
0.406631
0.382416
0.395618
0.403279
0.406225
0.406757
0.40696
0.406992
0.406728
0.406764
0.406904
0.406864
0.406862
0.406779
0.407119
0.407468
0.407338
0.407409
0.407593
0.407621
0.407581
0.407382
0.40745
0.40752
0.407258
0.407312
0.407422
0.407318
0.407298
0.407266
0.407248
0.407007
0.407023
0.407106
0.406872
0.406831
0.406882
0.406882
0.406774
0.406847
0.407006
0.406916
0.406908
0.406854
0.406854
0.406866
0.406878
0.406878
0.406802
0.406844
0.406866
0.406643
0.406705
0.40675
0.406685
0.406608
0.406721
0.406987
0.406882
0.406884
0.40687
0.40688
0.406792
0.406881
0.406996
0.406935
0.406927
0.40681
0.406901
0.407032
0.406997
0.406957
0.406894
0.406753
0.406796
0.406921
0.406894
0.40681
0.406885
0.406995
0.406745
0.406805
0.406912
0.406667
0.406732
0.406818
0.406791
0.406778
0.406672
0.40667
0.406528
0.382435
0.395617
0.403136
0.406423
0.407262
0.407215
0.407325
0.407401
0.40729
0.407357
0.407435
0.407416
0.407408
0.40729
0.407221
0.407185
0.407062
0.40716
0.407256
0.407229
0.407199
0.407113
0.407237
0.40728
0.407163
0.407262
0.407352
0.407062
0.407036
0.407122
0.407122
0.407018
0.407049
0.407062
0.40703
0.407013
0.4068
0.406679
0.406644
0.406503
0.406583
0.406726
0.406472
0.406503
0.406643
0.406496
0.406438
0.406476
0.406402
0.406501
0.406749
0.40674
0.406682
0.406458
0.406461
0.406623
0.406626
0.4066
0.406693
0.406782
0.40677
0.406769
0.406682
0.406662
0.406463
0.406498
0.406686
0.406499
0.406549
0.406713
0.406721
0.406746
0.406674
0.406683
0.406686
0.406676
0.406701
0.406713
0.406499
0.406479
0.406765
0.406868
0.406809
0.406595
0.406574
0.4067
0.406516
0.406551
0.406709
0.406512
0.382435
0.395614
0.403153
0.406353
0.407467
0.407666
0.407625
0.40763
0.407626
0.407638
0.407595
0.407561
0.407537
0.407497
0.407485
0.407486
0.407497
0.407497
0.40739
0.407422
0.407535
0.407449
0.407442
0.407438
0.407346
0.407279
0.407219
0.407018
0.407081
0.40721
0.406933
0.40695
0.407041
0.406926
0.406786
0.406869
0.406968
0.40691
0.406786
0.406672
0.406722
0.406753
0.406699
0.406486
0.40646
0.406617
0.406529
0.406649
0.406793
0.406764
0.406722
0.406624
0.406589
0.406497
0.406454
0.406494
0.406438
0.406574
0.406723
0.406571
0.406506
0.406695
0.406819
0.406777
0.406692
0.406609
0.406627
0.406489
0.406549
0.406715
0.406544
0.406507
0.406732
0.406822
0.406769
0.406583
0.406573
0.406701
0.406524
0.406553
0.406717
0.406563
0.406661
0.406792
0.40678
0.406781
0.406665
0.40675
0.406785
0.406653
0.382435
0.395614
0.403153
0.406354
0.40745
0.407773
0.407811
0.40779
0.407753
0.407725
0.407729
0.407711
0.407638
0.407597
0.407601
0.407545
0.407572
0.407587
0.407415
0.407493
0.407561
0.407359
0.407448
0.407595
0.407572
0.407578
0.407515
0.407347
0.40734
0.40735
0.407289
0.407099
0.407088
0.407173
0.406939
0.406994
0.407095
0.407063
0.40705
0.406886
0.406799
0.406908
0.406957
0.406903
0.406729
0.406757
0.406803
0.406766
0.406759
0.406577
0.406665
0.407199
0.407538
0.407629
0.40761
0.407581
0.407543
0.40751
0.40752
0.40754
0.407448
0.407415
0.407417
0.407395
0.407245
0.407266
0.407306
0.407173
0.407251
0.407286
0.407234
0.407221
0.407195
0.407211
0.407179
0.406972
0.406993
0.407027
0.406981
0.406902
0.406845
0.406842
0.406819
0.406866
0.406889
0.406845
0.406604
0.40658
0.4067
0.406537
0.382435
0.395613
0.403153
0.406354
0.407452
0.40778
0.407773
0.407708
0.407713
0.40772
0.4077
0.407622
0.40758
0.407585
0.407527
0.407547
0.40756
0.407386
0.407463
0.407524
0.407499
0.407434
0.407441
0.407484
0.407433
0.407307
0.407249
0.40727
0.40707
0.407094
0.407219
0.406998
0.407042
0.407174
0.406932
0.406918
0.407028
0.40701
0.406972
0.40705
0.40709
0.40705
0.407041
0.406852
0.406922
0.406964
0.406956
0.406955
0.406911
0.406877
0.406725
0.40693
0.407434
0.407428
0.407376
0.407367
0.407379
0.40739
0.407307
0.407271
0.40722
0.407284
0.40731
0.407206
0.407242
0.407255
0.407225
0.407219
0.407186
0.406999
0.407056
0.407105
0.407058
0.406979
0.406871
0.406836
0.406687
0.40676
0.406938
0.40679
0.406862
0.406903
0.406777
0.406847
0.406869
0.406818
0.406663
0.406705
0.406814
0.406556
0.382435
0.395613
0.403154
0.406348
0.407488
0.407601
0.407541
0.407527
0.407504
0.407506
0.407483
0.40746
0.407424
0.407469
0.407537
0.4075
0.407333
0.407373
0.407411
0.407358
0.407355
0.407313
0.407257
0.407136
0.407204
0.40725
0.407134
0.407253
0.407349
0.407328
0.407324
0.407252
0.407238
0.407201
0.407153
0.406924
0.406823
0.406791
0.406674
0.406769
0.406821
0.406778
0.406731
0.406563
0.406538
0.406489
0.406634
0.406761
0.406724
0.406722
0.406644
0.406875
0.407457
0.407459
0.407374
0.407377
0.407428
0.407426
0.407398
0.407385
0.407202
0.407241
0.407292
0.407295
0.407295
0.407056
0.407105
0.40717
0.406966
0.407056
0.407129
0.407126
0.407124
0.40687
0.406915
0.407031
0.407024
0.407024
0.406939
0.406931
0.406879
0.406723
0.406774
0.406898
0.406652
0.406693
0.406871
0.406873
0.406863
0.406606
0.382427
0.395612
0.403234
0.406253
0.40682
0.406829
0.40683
0.406682
0.406788
0.406999
0.406997
0.406995
0.406828
0.406912
0.407058
0.406963
0.406957
0.40697
0.406962
0.40704
0.407027
0.407195
0.4074
0.40719
0.407285
0.407401
0.407151
0.407201
0.407331
0.407325
0.407316
0.407039
0.407076
0.407194
0.407023
0.406946
0.407051
0.407172
0.407143
0.407057
0.40707
0.407084
0.407024
0.407015
0.407021
0.407029
0.406992
0.406955
0.406917
0.406839
0.406807
0.406766
0.406693
0.406451
0.406477
0.406659
0.406591
0.406513
0.40662
0.406795
0.40678
0.406769
0.406583
0.406715
0.406916
0.406938
0.406895
0.406844
0.406736
0.406751
0.407012
0.407087
0.407049
0.406989
0.406978
0.406922
0.406899
0.406898
0.406869
0.406836
0.406788
0.406661
0.406645
0.406898
0.406999
0.406946
0.406764
0.406782
0.406837
0.406566
0.382469
0.39555
0.403202
0.406355
0.406953
0.40685
0.406976
0.40711
0.406962
0.406954
0.40695
0.406806
0.406795
0.407048
0.407106
0.407048
0.406837
0.406814
0.407005
0.406965
0.407112
0.407237
0.407213
0.40721
0.407027
0.407115
0.407273
0.407012
0.406982
0.407097
0.406982
0.406946
0.407105
0.407149
0.407096
0.406927
0.40698
0.407043
0.407007
0.406982
0.406813
0.406744
0.406742
0.406749
0.406746
0.406729
0.406676
0.406516
0.406514
0.406694
0.406572
0.406675
0.406843
0.406808
0.406724
0.40679
0.407042
0.406925
0.407033
0.407097
0.407061
0.406957
0.406996
0.40704
0.406994
0.40702
0.406953
0.406929
0.406924
0.406937
0.406915
0.406899
0.406854
0.406698
0.406761
0.406901
0.406876
0.406862
0.406732
0.406684
0.406555
0.406662
0.406765
0.406733
0.406727
0.406552
0.406641
0.406769
0.406726
0.406577
0.382467
0.395555
0.403188
0.406378
0.406985
0.406863
0.406977
0.407113
0.406969
0.406977
0.406965
0.406806
0.406775
0.407031
0.407114
0.407061
0.406946
0.406839
0.407066
0.407231
0.407189
0.407027
0.40702
0.407146
0.406956
0.406974
0.407135
0.406961
0.406981
0.407126
0.406946
0.407019
0.407139
0.407138
0.407129
0.406837
0.406832
0.40692
0.40694
0.406941
0.406861
0.406819
0.406544
0.406544
0.406717
0.406735
0.406722
0.406506
0.406477
0.406924
0.407181
0.407019
0.407101
0.407215
0.407195
0.40719
0.406998
0.407068
0.407153
0.407149
0.407149
0.407077
0.407066
0.406926
0.407012
0.407065
0.406955
0.407011
0.407039
0.406985
0.406786
0.406823
0.406905
0.406818
0.406851
0.406875
0.406832
0.406677
0.406596
0.406617
0.406617
0.406648
0.406601
0.406572
0.406472
0.406551
0.406824
0.406815
0.406767
0.406532
0.382435
0.395613
0.403153
0.406354
0.407449
0.407776
0.407771
0.407746
0.407755
0.407676
0.407639
0.407658
0.407627
0.407588
0.407591
0.407578
0.407511
0.407527
0.407536
0.407385
0.407451
0.407507
0.407415
0.40742
0.407372
0.407187
0.407189
0.407269
0.407038
0.40706
0.407198
0.407137
0.40704
0.407079
0.407108
0.406939
0.407038
0.407159
0.406919
0.406974
0.407117
0.406952
0.407034
0.407142
0.40704
0.407101
0.40712
0.407061
0.40706
0.407057
0.407013
0.406719
0.40672
0.406987
0.406898
0.407022
0.407121
0.406991
0.40699
0.406981
0.406993
0.406976
0.407007
0.406962
0.406809
0.406878
0.406937
0.406733
0.406806
0.406974
0.406994
0.40695
0.406852
0.406705
0.406761
0.406901
0.406894
0.406889
0.406656
0.406734
0.406928
0.406794
0.406861
0.406885
0.406836
0.406691
0.406723
0.406854
0.406821
0.406663
0.382454
0.395602
0.403115
0.406322
0.407435
0.407765
0.407809
0.407787
0.40775
0.407722
0.407725
0.407702
0.407674
0.407627
0.407594
0.407573
0.40754
0.40753
0.407527
0.407552
0.407548
0.40742
0.407435
0.407529
0.407481
0.407487
0.407484
0.407495
0.407427
0.407187
0.407099
0.40713
0.407128
0.407018
0.407078
0.407207
0.407191
0.407183
0.406947
0.406999
0.407118
0.407036
0.406976
0.406938
0.406969
0.406969
0.406878
0.406923
0.406976
0.406978
0.406978
0.406906
0.406778
0.40678
0.406971
0.407053
0.407023
0.406989
0.40688
0.406994
0.407172
0.407025
0.407109
0.40722
0.407183
0.407179
0.407174
0.407186
0.407122
0.407079
0.406929
0.406984
0.407035
0.407025
0.407021
0.406761
0.406772
0.406886
0.406907
0.406901
0.406643
0.406684
0.40684
0.40662
0.40669
0.406845
0.406603
0.406639
0.406789
0.406564
0.382453
0.395607
0.403089
0.406429
0.407234
0.407301
0.407247
0.407027
0.407094
0.407208
0.406997
0.407079
0.407147
0.40693
0.407016
0.407101
0.407024
0.406935
0.407022
0.407207
0.407175
0.407115
0.407025
0.407024
0.406885
0.406929
0.407107
0.406928
0.407
0.407151
0.40709
0.407081
0.406966
0.407066
0.407124
0.407059
0.406917
0.4068
0.406771
0.406594
0.406597
0.406727
0.406579
0.40667
0.406785
0.406767
0.406794
0.406706
0.406761
0.406851
0.406812
0.406743
0.406636
0.406794
0.407077
0.406925
0.407017
0.40715
0.40712
0.407078
0.406968
0.406943
0.406891
0.407011
0.407156
0.407078
0.407105
0.40706
0.406871
0.406896
0.406985
0.40692
0.406942
0.406917
0.406847
0.406896
0.406918
0.406699
0.406779
0.406906
0.406877
0.40684
0.406785
0.406773
0.406594
0.40665
0.406897
0.406901
0.406857
0.406606
0.382435
0.395614
0.403153
0.406353
0.407447
0.407773
0.407768
0.407742
0.407749
0.407669
0.407635
0.407651
0.407618
0.407579
0.407589
0.407622
0.407603
0.407589
0.407563
0.407482
0.407502
0.407518
0.407457
0.407275
0.40722
0.407236
0.407062
0.407143
0.407258
0.407239
0.407235
0.407154
0.407099
0.406828
0.406807
0.406929
0.40674
0.406783
0.406937
0.406723
0.406776
0.406939
0.406723
0.406793
0.406948
0.406746
0.40682
0.406961
0.406811
0.406903
0.406951
0.406922
0.406914
0.406742
0.40682
0.406966
0.406926
0.406783
0.406807
0.406958
0.406948
0.406851
0.406882
0.406968
0.406753
0.406837
0.406942
0.40674
0.406835
0.407008
0.406976
0.406936
0.406879
0.406732
0.406746
0.406873
0.406865
0.40685
0.406648
0.406741
0.406859
0.406828
0.40679
0.40665
0.406623
0.406587
0.406725
0.406822
0.406771
0.406596
0.382403
0.395653
0.403254
0.406223
0.406697
0.406688
0.406607
0.406613
0.406823
0.40688
0.406831
0.406722
0.406652
0.406891
0.407316
0.407274
0.407277
0.407231
0.407359
0.407426
0.407258
0.40735
0.407422
0.407426
0.407427
0.407251
0.407215
0.40716
0.406965
0.407018
0.407188
0.407143
0.407041
0.407057
0.407109
0.407189
0.40724
0.406993
0.407061
0.407164
0.407092
0.407078
0.406902
0.406982
0.407052
0.407001
0.4069
0.406834
0.40678
0.406577
0.406614
0.406765
0.406625
0.406723
0.406785
0.406746
0.406626