/*--------------------------------*- C++ -*----------------------------------*\
  =========                 |
  \\      /  F ield         | OpenFOAM: The Open Source CFD Toolbox
   \\    /   O peration     | Website:  https://openfoam.org
    \\  /    A nd           | Version:  11
     \\/     M anipulation  |
\*---------------------------------------------------------------------------*/
FoamFile
{
    format      ascii;
    class       volScalarField;
    location    "0.038";
    object      nut;
}
// * * * * * * * * * * * * * * * * * * * * * * * * * * * * * * * * * * * * * //

dimensions      [0 2 -1 0 0 0 0];

internalField   nonuniform List<scalar> 
287084
(
0.000838446
0.000868542
0.000886649
0.000894269
0.000895853
0.000896176
0.000896314
0.000895991
0.000896204
0.000896588
0.00089658
0.000896549
0.000896271
0.000895963
0.000895896
0.000895783
0.000896053
0.000896466
0.000896027
0.000896201
0.000896356
0.000896066
0.000895991
0.000895885
0.000895856
0.000895604
0.000895749
0.000896051
0.000895957
0.000895753
0.000895666
0.000895796
0.000895523
0.000895641
0.000896187
0.000896422
0.000896473
0.000896525
0.000896555
0.000896252
0.000896553
0.00089696
0.000896496
0.000896624
0.00089702
0.000896806
0.000896755
0.000897216
0.000897465
0.000897251
0.000897343
0.000897377
0.000897366
0.000897362
0.000896935
0.000897095
0.000897372
0.000897334
0.000897396
0.000897201
0.000897215
0.00089692
0.000897089
0.000897456
0.000897431
0.000897414
0.000896896
0.000897075
0.000897387
0.000897215
0.000897207
0.000897012
0.000897208
0.00089762
0.000897564
0.000897502
0.000897473
0.000897036
0.000897115
0.000897416
0.000897401
0.000897364
0.000897099
0.000896972
0.000896848
0.000896532
0.000896754
0.000897154
0.000897096
0.00089689
0.00118505
0.00122608
0.00125043
0.00126047
0.00126232
0.00126234
0.00126242
0.00126231
0.00126251
0.00126255
0.00126235
0.0012618
0.00126178
0.00126203
0.00126122
0.00126109
0.00126155
0.0012615
0.0012611
0.00126116
0.00126187
0.0012617
0.00126176
0.00126193
0.00126184
0.00126141
0.00126171
0.00126206
0.00126136
0.00126166
0.001262
0.00126129
0.00126145
0.00126202
0.0012618
0.00126178
0.00126203
0.0012621
0.00126271
0.00126317
0.00126324
0.00126336
0.00126293
0.00126336
0.00126372
0.00126365
0.00126336
0.00126315
0.0012632
0.00126309
0.00126297
0.00126339
0.00126388
0.00126378
0.0012633
0.00126345
0.00126395
0.0012633
0.00126356
0.00126401
0.00126395
0.001264
0.00126371
0.00126364
0.00126328
0.00126359
0.00126402
0.00126388
0.00126349
0.00126343
0.00126406
0.00126432
0.00126415
0.00126342
0.0012635
0.00126398
0.0012635
0.00126377
0.00126391
0.00126365
0.00126374
0.0012636
0.00126311
0.00126328
0.00126343
0.00126329
0.00126293
0.00126287
0.00126329
0.00126275
0.00118512
0.00122623
0.00125061
0.00126051
0.00126242
0.00126308
0.0012631
0.00126239
0.0012625
0.001263
0.00126284
0.00126277
0.00126267
0.00126237
0.001262
0.00126216
0.00126237
0.00126212
0.00126166
0.00126131
0.00126135
0.00126128
0.00126169
0.00126209
0.00126209
0.00126209
0.00126143
0.00126169
0.00126205
0.00126137
0.00126166
0.00126231
0.00126172
0.00126203
0.00126272
0.00126223
0.00126263
0.00126335
0.00126327
0.0012634
0.00126345
0.00126333
0.00126355
0.00126381
0.00126382
0.00126363
0.00126384
0.00126412
0.00126416
0.00126421
0.0012635
0.00126367
0.00126393
0.00126335
0.00126367
0.00126412
0.00126334
0.00126346
0.0012639
0.00126388
0.00126387
0.00126353
0.00126357
0.00126342
0.00126387
0.00126422
0.00126411
0.00126377
0.00126379
0.00126403
0.00126383
0.00126378
0.00126317
0.00126341
0.00126377
0.00126305
0.00126315
0.00126379
0.00126361
0.00126365
0.0012634
0.00126372
0.00126393
0.00126322
0.00126344
0.00126381
0.00126303
0.00126323
0.00126356
0.00126275
0.00118511
0.00122648
0.00125062
0.00126078
0.00126312
0.0012636
0.00126353
0.00126355
0.00126324
0.00126318
0.00126316
0.00126301
0.00126291
0.00126229
0.0012625
0.00126263
0.00126235
0.00126182
0.00126151
0.00126165
0.00126149
0.00126141
0.00126125
0.00126127
0.00126122
0.00126121
0.00126075
0.00126079
0.00126181
0.00126207
0.00126198
0.00126156
0.00126153
0.00126187
0.00126168
0.0012618
0.00126223
0.00126212
0.00126262
0.00126334
0.00126322
0.0012633
0.00126334
0.00126355
0.00126369
0.00126366
0.00126353
0.0012633
0.00126349
0.00126381
0.00126379
0.00126384
0.0012637
0.00126316
0.00126345
0.00126407
0.00126341
0.00126366
0.0012641
0.00126402
0.001264
0.00126343
0.00126382
0.00126436
0.00126416
0.00126417
0.00126421
0.00126414
0.00126422
0.00126424
0.00126353
0.00126373
0.00126405
0.00126341
0.00126357
0.0012642
0.00126406
0.00126423
0.00126428
0.00126409
0.00126338
0.0012634
0.00126386
0.0012639
0.00126385
0.0012631
0.00126328
0.00126363
0.00126352
0.00126315
0.00118513
0.00122653
0.00125069
0.00126095
0.00126311
0.00126311
0.0012628
0.00126296
0.00126325
0.00126253
0.00126272
0.00126284
0.00126266
0.00126254
0.00126197
0.00126202
0.00126195
0.00126175
0.00126163
0.00126139
0.00126104
0.00126143
0.00126203
0.00126154
0.0012615
0.00126148
0.00126108
0.00126132
0.00126186
0.00126156
0.00126139
0.00126144
0.00126146
0.00126207
0.00126285
0.00126244
0.00126292
0.00126333
0.00126351
0.00126368
0.00126298
0.00126325
0.00126364
0.00126376
0.00126387
0.00126321
0.0012635
0.00126388
0.00126326
0.00126358
0.00126408
0.00126345
0.00126332
0.00126356
0.00126329
0.0012636
0.00126421
0.00126381
0.00126378
0.00126377
0.00126338
0.00126356
0.00126411
0.00126341
0.00126359
0.00126404
0.00126329
0.00126325
0.00126366
0.00126325
0.00126351
0.00126408
0.0012641
0.00126409
0.00126339
0.00126365
0.00126404
0.00126362
0.00126365
0.0012635
0.00126305
0.00126331
0.00126387
0.00126323
0.00126352
0.00126389
0.00126321
0.00126348
0.00126387
0.00126301
0.00118508
0.00122666
0.00125085
0.00126047
0.00126212
0.00126163
0.00126177
0.00126271
0.0012627
0.00126242
0.00126165
0.00126149
0.00126202
0.00126167
0.00126194
0.00126237
0.00126188
0.00126185
0.00126158
0.00126139
0.00126128
0.00126081
0.00126096
0.00126141
0.00126089
0.00126068
0.0012612
0.00126151
0.00126146
0.00126116
0.00126141
0.00126219
0.0012622
0.00126247
0.0012625
0.00126207
0.00126228
0.00126276
0.00126223
0.00126238
0.00126296
0.00126263
0.00126295
0.00126364
0.00126314
0.00126342
0.00126408
0.00126376
0.0012638
0.00126383
0.00126347
0.00126358
0.00126428
0.00126432
0.00126421
0.00126401
0.00126358
0.00126377
0.00126407
0.00126398
0.00126393
0.00126333
0.00126363
0.00126417
0.00126409
0.00126413
0.00126402
0.00126392
0.00126388
0.00126355
0.00126388
0.00126434
0.00126369
0.00126396
0.00126421
0.00126345
0.00126364
0.00126407
0.00126333
0.00126351
0.00126396
0.00126338
0.0012637
0.00126402
0.0012639
0.00126396
0.00126389
0.00126397
0.0012638
0.00126313
0.001185
0.00122682
0.00125084
0.00126065
0.00126243
0.00126189
0.00126214
0.00126247
0.00126228
0.00126193
0.0012617
0.00126319
0.00126384
0.00126327
0.00126316
0.00126343
0.00126339
0.00126323
0.00126312
0.00126286
0.0012628
0.00126256
0.00126191
0.00126201
0.00126214
0.00126204
0.00126204
0.00126164
0.00126173
0.00126186
0.00126162
0.00126202
0.0012625
0.0012619
0.00126222
0.00126291
0.00126247
0.00126287
0.00126355
0.00126375
0.00126391
0.00126335
0.00126374
0.00126425
0.00126414
0.00126423
0.00126403
0.00126418
0.00126425
0.00126418
0.00126376
0.00126403
0.00126426
0.00126369
0.0012635
0.00126399
0.00126423
0.00126409
0.00126385
0.00126342
0.00126332
0.00126303
0.00126341
0.00126389
0.00126382
0.0012638
0.00126362
0.00126356
0.001263
0.00126331
0.00126375
0.00126301
0.00126294
0.00126361
0.00126396
0.0012638
0.00126312
0.00126319
0.00126375
0.00126336
0.0012637
0.00126395
0.00126327
0.00126349
0.0012639
0.00126371
0.00126378
0.00126381
0.00126374
0.00126296
0.00118512
0.00122667
0.00125066
0.00126092
0.00126442
0.00126529
0.00126521
0.00126503
0.00126484
0.00126463
0.00126439
0.00126418
0.00126396
0.00126384
0.00126378
0.00126356
0.00126345
0.00126341
0.00126337
0.00126311
0.00126292
0.00126262
0.00126185
0.00126189
0.00126205
0.00126197
0.00126199
0.0012618
0.00126174
0.00126116
0.00126149
0.00126222
0.00126169
0.00126206
0.00126279
0.00126279
0.00126275
0.00126335
0.00126403
0.00126423
0.00126441
0.00126388
0.00126428
0.00126473
0.00126469
0.00126458
0.0012646
0.00126489
0.00126476
0.001265
0.00126527
0.00126525
0.00126529
0.00126517
0.00126492
0.00126478
0.00126466
0.00126453
0.00126433
0.00126374
0.00126398
0.00126443
0.00126412
0.00126419
0.00126404
0.00126349
0.00126372
0.0012641
0.00126366
0.00126354
0.00126361
0.00126361
0.0012632
0.00126298
0.00126363
0.00126408
0.00126403
0.001264
0.00126324
0.00126345
0.00126404
0.00126362
0.00126383
0.00126391
0.00126375
0.00126328
0.00126336
0.00126375
0.00126364
0.00126312
0.00118505
0.00122677
0.00125089
0.00126067
0.00126261
0.0012625
0.00126253
0.00126243
0.00126193
0.00126177
0.00126314
0.00126386
0.00126371
0.00126352
0.00126328
0.00126321
0.00126293
0.00126294
0.00126306
0.00126288
0.00126263
0.00126256
0.00126239
0.00126206
0.00126189
0.00126182
0.00126146
0.00126128
0.00126131
0.00126101
0.00126145
0.00126221
0.00126168
0.00126206
0.0012628
0.00126282
0.00126277
0.00126334
0.00126413
0.00126409
0.0012643
0.00126453
0.00126455
0.00126472
0.00126486
0.00126489
0.00126491
0.00126411
0.00126394
0.00126398
0.0012634
0.00126362
0.00126401
0.00126359
0.00126334
0.00126381
0.00126421
0.00126413
0.00126407
0.00126345
0.00126373
0.0012641
0.00126405
0.00126402
0.00126335
0.00126362
0.0012642
0.00126375
0.00126403
0.0012642
0.00126403
0.00126376
0.0012634
0.00126375
0.00126403
0.00126389
0.0012642
0.00126426
0.00126408
0.00126403
0.00126347
0.00126368
0.00126414
0.00126374
0.0012637
0.00126368
0.00126356
0.00126348
0.0012633
0.00126272
0.00118497
0.00122684
0.00125111
0.00126018
0.00126244
0.00126245
0.00126238
0.00126196
0.00126229
0.00126275
0.00126262
0.00126248
0.0012617
0.00126193
0.00126228
0.00126208
0.00126189
0.00126132
0.00126113
0.0012607
0.00126096
0.00126127
0.00126085
0.00126058
0.00126094
0.00126127
0.00126074
0.00126115
0.00126171
0.00126105
0.00126125
0.00126191
0.0012621
0.00126237
0.0012626
0.00126287
0.00126307
0.00126277
0.00126308
0.00126343
0.00126274
0.00126285
0.00126336
0.00126296
0.00126327
0.00126383
0.00126329
0.00126323
0.00126353
0.00126347
0.00126367
0.00126372
0.00126359
0.00126314
0.00126333
0.00126388
0.00126329
0.00126316
0.00126374
0.00126409
0.00126389
0.00126334
0.00126308
0.00126354
0.00126365
0.00126331
0.00126359
0.00126392
0.00126345
0.00126343
0.00126338
0.00126293
0.0012631
0.00126363
0.00126312
0.00126294
0.00126347
0.00126376
0.00126358
0.00126312
0.00126289
0.00126348
0.00126381
0.00126375
0.00126373
0.00126312
0.00126315
0.00126364
0.00126363
0.00126322
0.00118506
0.00122669
0.00125098
0.00126081
0.0012628
0.00126284
0.00126275
0.00126216
0.00126242
0.00126275
0.00126259
0.00126231
0.00126239
0.00126269
0.0012619
0.00126185
0.00126246
0.00126234
0.00126209
0.00126189
0.00126146
0.00126111
0.00126113
0.00126111
0.00126096
0.00126067
0.00126083
0.0012612
0.00126119
0.00126084
0.00126124
0.0012621
0.0012623
0.00126257
0.00126266
0.00126232
0.0012625
0.00126295
0.00126251
0.00126269
0.00126328
0.00126298
0.00126331
0.001264
0.00126349
0.00126364
0.00126449
0.00126462
0.00126449
0.00126384
0.00126399
0.00126433
0.00126356
0.00126353
0.00126393
0.00126403
0.00126403
0.00126351
0.00126376
0.00126396
0.00126378
0.00126341
0.0012632
0.00126367
0.00126375
0.0012636
0.0012633
0.00126311
0.00126348
0.00126369
0.00126356
0.00126337
0.00126387
0.00126425
0.00126355
0.00126378
0.00126422
0.00126365
0.00126393
0.00126418
0.0012636
0.00126391
0.00126416
0.00126332
0.00126339
0.00126377
0.00126337
0.00126336
0.00126331
0.00126283
0.00118503
0.00122678
0.00125084
0.00126091
0.00126292
0.00126283
0.00126297
0.00126291
0.0012627
0.00126233
0.00126297
0.00126383
0.00126331
0.00126349
0.00126352
0.00126311
0.00126305
0.00126274
0.00126211
0.00126215
0.00126216
0.00126144
0.00126165
0.0012619
0.00126179
0.00126179
0.00126155
0.00126145
0.00126072
0.00126098
0.00126158
0.00126103
0.00126134
0.00126203
0.00126169
0.00126201
0.00126272
0.00126245
0.00126286
0.00126361
0.00126318
0.00126354
0.00126423
0.00126395
0.00126403
0.00126411
0.00126375
0.00126395
0.00126458
0.00126463
0.00126467
0.00126454
0.0012642
0.00126392
0.00126386
0.00126354
0.00126385
0.00126401
0.00126333
0.00126324
0.00126405
0.00126428
0.00126399
0.00126409
0.00126412
0.00126395
0.00126333
0.00126329
0.00126408
0.00126415
0.00126394
0.00126323
0.00126316
0.00126364
0.00126366
0.0012636
0.00126294
0.00126301
0.00126377
0.00126395
0.00126381
0.00126317
0.00126345
0.00126376
0.00126367
0.00126365
0.00126305
0.00126337
0.00126375
0.00126292
0.00118512
0.00122668
0.00125068
0.00126095
0.00126453
0.00126499
0.00126463
0.0012645
0.00126437
0.00126435
0.00126422
0.0012638
0.00126376
0.00126373
0.00126338
0.00126326
0.0012631
0.00126287
0.00126257
0.00126236
0.00126227
0.00126215
0.00126157
0.00126158
0.00126162
0.00126146
0.0012612
0.00126104
0.00126112
0.0012608
0.00126129
0.00126208
0.00126224
0.00126223
0.00126275
0.00126364
0.00126386
0.00126403
0.00126364
0.00126407
0.00126464
0.00126475
0.00126489
0.00126439
0.00126476
0.00126512
0.00126508
0.00126511
0.00126488
0.00126485
0.00126477
0.00126473
0.00126407
0.00126403
0.0012645
0.00126454
0.00126447
0.00126377
0.00126393
0.00126464
0.00126455
0.00126439
0.00126371
0.00126393
0.00126438
0.00126362
0.0012638
0.00126418
0.00126373
0.0012636
0.00126365
0.00126365
0.00126323
0.001263
0.00126364
0.0012641
0.00126403
0.00126398
0.00126331
0.00126355
0.00126385
0.0012638
0.00126378
0.00126313
0.0012634
0.00126404
0.00126373
0.00126381
0.00126366
0.00126301
0.001185
0.00122678
0.0012511
0.00126052
0.00126206
0.00126168
0.00126198
0.00126269
0.00126224
0.00126217
0.00126189
0.00126133
0.00126128
0.0012616
0.00126126
0.00126144
0.00126144
0.00126105
0.00126077
0.00126066
0.00126043
0.00126075
0.00126131
0.00126074
0.001261
0.00126118
0.001261
0.00126121
0.00126122
0.00126086
0.00126121
0.00126193
0.00126221
0.00126223
0.00126276
0.00126354
0.00126368
0.00126402
0.00126429
0.00126448
0.00126459
0.00126477
0.00126488
0.00126507
0.00126505
0.00126499
0.00126492
0.00126493
0.00126479
0.00126468
0.00126409
0.00126427
0.00126478
0.00126466
0.0012645
0.0012638
0.00126387
0.00126438
0.00126449
0.00126432
0.00126353
0.00126359
0.00126408
0.00126399
0.00126394
0.00126339
0.00126369
0.00126402
0.00126394
0.0012639
0.00126318
0.00126318
0.00126373
0.0012634
0.0012637
0.00126431
0.00126379
0.0012641
0.00126435
0.00126414
0.0012641
0.00126403
0.00126401
0.00126337
0.00126337
0.001264
0.00126421
0.00126412
0.00126403
0.00126331
0.00118512
0.00122668
0.00125068
0.00126096
0.00126446
0.00126532
0.00126522
0.00126502
0.00126481
0.0012647
0.00126458
0.00126419
0.00126389
0.00126368
0.00126353
0.00126326
0.00126291
0.00126227
0.00126221
0.00126215
0.00126188
0.00126158
0.00126152
0.00126154
0.00126138
0.00126128
0.00126107
0.00126106
0.00126101
0.00126114
0.00126127
0.00126105
0.00126157
0.0012623
0.00126184
0.00126213
0.00126284
0.00126267
0.00126313
0.00126389
0.00126348
0.00126385
0.00126454
0.00126466
0.00126475
0.00126412
0.00126435
0.00126486
0.00126467
0.00126472
0.00126474
0.00126458
0.00126468
0.00126479
0.0012647
0.00126464
0.00126387
0.00126415
0.00126489
0.00126442
0.00126467
0.00126503
0.00126471
0.00126471
0.00126462
0.00126391
0.00126387
0.00126407
0.00126371
0.0012636
0.00126366
0.00126366
0.00126324
0.00126301
0.00126365
0.00126411
0.00126403
0.00126399
0.00126332
0.00126355
0.00126385
0.00126374
0.00126361
0.00126316
0.00126307
0.00126295
0.00126337
0.00126367
0.0012635
0.00126293
0.00118522
0.0012265
0.00125078
0.00126104
0.00126301
0.00126262
0.00126291
0.00126321
0.00126256
0.00126263
0.00126274
0.00126242
0.00126176
0.00126169
0.00126191
0.00126168
0.00126145
0.00126069
0.00126061
0.00126065
0.0012604
0.00126008
0.00126031
0.00126057
0.00125987
0.00126012
0.00126067
0.00126037
0.00126032
0.00126099
0.00126156
0.0012614
0.0012621
0.00126274
0.00126262
0.00126298
0.00126326
0.00126365
0.00126379
0.00126336
0.00126355
0.00126401
0.00126377
0.0012637
0.00126389
0.00126371
0.00126388
0.00126482
0.00126495
0.00126475
0.00126475
0.00126468
0.00126414
0.00126406
0.00126535
0.00126588
0.00126556
0.00126572
0.00126591
0.0012658
0.00126575
0.00126525
0.00126526
0.00126531
0.00126514
0.00126509
0.00126486
0.00126417
0.00126403
0.00126416
0.00126349
0.00126366
0.00126405
0.00126402
0.001264
0.00126339
0.00126364
0.00126378
0.00126313
0.0012632
0.00126399
0.00126403
0.00126388
0.0012633
0.00126348
0.00126389
0.00126351
0.00126355
0.0012635
0.00126296
0.00118518
0.00122665
0.00125056
0.00126086
0.00126439
0.00126541
0.00126532
0.00126501
0.00126488
0.00126475
0.00126452
0.00126409
0.00126376
0.00126356
0.00126314
0.00126296
0.00126275
0.00126197
0.00126195
0.00126189
0.00126093
0.00126095
0.00126112
0.00126088
0.00126084
0.00126088
0.00126091
0.00126019
0.00126041
0.00126113
0.00126145
0.00126171
0.00126132
0.00126185
0.0012625
0.00126292
0.0012633
0.00126289
0.00126306
0.00126353
0.00126326
0.00126349
0.00126432
0.00126454
0.00126449
0.0012639
0.00126386
0.00126454
0.00126472
0.00126449
0.00126466
0.00126469
0.00126398
0.00126428
0.00126529
0.0012649
0.00126523
0.00126546
0.00126487
0.00126513
0.00126528
0.00126469
0.00126485
0.0012649
0.00126459
0.00126456
0.00126446
0.00126386
0.00126394
0.00126415
0.00126365
0.00126371
0.00126373
0.00126356
0.00126324
0.00126298
0.00126343
0.00126389
0.00126385
0.00126382
0.00126325
0.00126324
0.00126367
0.00126336
0.00126369
0.0012639
0.00126334
0.00126368
0.00126394
0.00126305
0.00118512
0.00122668
0.00125067
0.00126096
0.00126445
0.00126541
0.00126545
0.00126527
0.00126499
0.00126474
0.00126457
0.00126432
0.0012639
0.00126356
0.00126333
0.00126305
0.00126259
0.0012624
0.00126218
0.00126148
0.00126146
0.00126145
0.00126102
0.00126088
0.00126071
0.00126055
0.00126052
0.00126051
0.00126016
0.00126072
0.00126139
0.00126095
0.00126151
0.00126231
0.00126194
0.0012623
0.00126304
0.0012629
0.00126338
0.00126415
0.00126376
0.00126403
0.00126469
0.00126458
0.00126467
0.0012648
0.00126478
0.00126488
0.00126492
0.00126473
0.00126468
0.00126428
0.00126462
0.00126551
0.00126504
0.00126534
0.00126556
0.00126546
0.00126531
0.00126527
0.00126525
0.00126482
0.00126487
0.00126469
0.00126414
0.00126431
0.00126446
0.00126378
0.00126397
0.00126445
0.00126448
0.00126431
0.00126398
0.00126349
0.00126365
0.00126406
0.00126397
0.00126391
0.00126349
0.00126341
0.00126315
0.00126353
0.00126386
0.00126381
0.00126378
0.00126305
0.0012633
0.00126382
0.00126368
0.00126315
0.00118518
0.00122665
0.00125056
0.00126085
0.00126439
0.00126528
0.00126518
0.00126497
0.00126474
0.00126448
0.00126433
0.001264
0.00126369
0.00126324
0.00126304
0.00126282
0.001262
0.00126196
0.00126188
0.00126088
0.00126086
0.00126101
0.00126054
0.00126044
0.00126024
0.00125973
0.00125999
0.00126055
0.00125998
0.00126026
0.00126103
0.00126094
0.00126151
0.00126247
0.00126298
0.00126347
0.00126374
0.00126401
0.00126429
0.00126448
0.00126381
0.00126406
0.00126457
0.00126392
0.00126409
0.00126454
0.00126388
0.00126393
0.00126462
0.0012648
0.00126462
0.00126433
0.00126391
0.00126423
0.00126544
0.00126507
0.00126533
0.00126566
0.00126554
0.00126546
0.00126538
0.00126542
0.00126526
0.00126523
0.0012651
0.00126443
0.00126451
0.00126462
0.0012642
0.00126422
0.00126438
0.00126428
0.00126406
0.00126406
0.00126388
0.00126331
0.00126325
0.00126381
0.00126385
0.00126371
0.00126313
0.00126328
0.00126369
0.00126307
0.00126335
0.00126364
0.00126291
0.0012631
0.00126362
0.00126284
0.00118518
0.00122666
0.00125047
0.00126121
0.00126353
0.00126348
0.00126348
0.00126342
0.00126306
0.00126308
0.00126301
0.00126249
0.00126198
0.00126188
0.00126205
0.00126169
0.00126142
0.00126105
0.00126077
0.00126
0.00125982
0.00126075
0.00126083
0.00126057
0.00126011
0.00125989
0.00125994
0.0012596
0.0012601
0.00126085
0.00126044
0.00126095
0.00126182
0.00126159
0.00126204
0.00126286
0.00126308
0.00126352
0.00126383
0.00126361
0.00126401
0.00126457
0.00126443
0.00126456
0.00126459
0.00126454
0.00126457
0.0012646
0.00126417
0.00126443
0.0012661
0.0012672
0.00126718
0.00126705
0.00126701
0.00126672
0.00126654
0.0012665
0.00126639
0.00126587
0.00126592
0.00126596
0.00126563
0.00126564
0.00126534
0.00126528
0.00126531
0.00126519
0.00126521
0.00126508
0.00126489
0.00126422
0.00126431
0.00126447
0.00126431
0.00126405
0.00126383
0.0012638
0.00126384
0.00126383
0.00126321
0.00126341
0.0012636
0.00126295
0.00126314
0.00126367
0.0012633
0.00126332
0.00126327
0.0012628
0.00118509
0.00122668
0.00125091
0.00126068
0.00126237
0.0012623
0.00126188
0.0012619
0.00126224
0.00126163
0.0012613
0.00126127
0.00126085
0.001261
0.00126134
0.00126096
0.00126068
0.00126011
0.00126034
0.00126052
0.00126071
0.00126088
0.00126034
0.0012603
0.0012601
0.00125962
0.00125995
0.00126056
0.00126002
0.0012603
0.00126106
0.00126103
0.00126174
0.00126271
0.0012625
0.0012632
0.00126401
0.00126437
0.00126471
0.00126425
0.00126471
0.00126518
0.00126491
0.00126498
0.00126485
0.00126507
0.00126515
0.00126499
0.00126449
0.00126454
0.00126467
0.00126391
0.00126394
0.00126438
0.00126427
0.00126418
0.00126405
0.00126397
0.00126333
0.00126346
0.001264
0.00126327
0.00126332
0.00126377
0.00126355
0.00126352
0.00126348
0.00126315
0.00126345
0.0012641
0.00126394
0.00126376
0.00126376
0.00126378
0.00126338
0.00126316
0.00126367
0.00126409
0.00126399
0.00126392
0.00126348
0.00126335
0.00126299
0.00126333
0.00126361
0.00126289
0.00126297
0.00126346
0.00126344
0.00126321
0.00118512
0.00122668
0.00125067
0.00126093
0.00126455
0.00126486
0.00126457
0.00126439
0.00126417
0.00126401
0.00126375
0.00126358
0.00126342
0.00126305
0.00126228
0.00126215
0.00126201
0.00126167
0.00126127
0.00126105
0.00126097
0.00126071
0.00126053
0.00125987
0.00125973
0.0012599
0.00126001
0.00125969
0.00126005
0.0012608
0.00126121
0.00126139
0.00126199
0.00126257
0.00126303
0.0012635
0.00126311
0.00126367
0.00126417
0.00126404
0.00126434
0.00126441
0.00126426
0.00126414
0.00126427
0.00126422
0.00126472
0.00126506
0.00126489
0.00126488
0.00126462
0.00126525
0.0012669
0.00126724
0.00126712
0.00126695
0.00126684
0.00126678
0.00126645
0.00126633
0.00126631
0.00126605
0.00126601
0.00126593
0.00126585
0.00126524
0.00126528
0.00126538
0.00126492
0.00126518
0.00126532
0.00126521
0.00126526
0.00126515
0.00126499
0.00126466
0.00126448
0.00126428
0.00126392
0.00126363
0.00126354
0.00126313
0.00126343
0.00126393
0.00126379
0.00126375
0.00126308
0.00126332
0.00126362
0.00126281
0.00118512
0.00122668
0.00125067
0.00126094
0.00126443
0.00126541
0.00126528
0.00126495
0.00126481
0.00126466
0.0012644
0.00126394
0.00126358
0.00126334
0.00126289
0.00126268
0.00126242
0.0012616
0.00126155
0.00126145
0.00126113
0.00126073
0.00126065
0.00126066
0.00126052
0.00126056
0.00126041
0.00126044
0.00126003
0.0012606
0.00126136
0.00126107
0.00126177
0.00126277
0.00126256
0.00126305
0.00126388
0.00126427
0.00126452
0.00126508
0.00126549
0.00126558
0.00126572
0.00126525
0.00126555
0.00126573
0.00126572
0.0012657
0.00126551
0.00126521
0.00126472
0.00126539
0.00126697
0.0012674
0.00126732
0.00126716
0.00126697
0.0012668
0.00126673
0.00126672
0.0012665
0.00126635
0.00126611
0.00126594
0.00126558
0.00126568
0.00126575
0.00126541
0.00126557
0.00126562
0.00126551
0.00126547
0.00126524
0.00126518
0.00126494
0.00126489
0.00126467
0.0012646
0.00126454
0.00126461
0.00126443
0.00126371
0.00126377
0.00126403
0.00126327
0.00126339
0.00126401
0.00126399
0.00126385
0.00126305
0.00118506
0.00122669
0.00125106
0.00126054
0.00126227
0.00126286
0.00126286
0.00126191
0.00126187
0.00126212
0.0012618
0.00126157
0.00126108
0.00126188
0.0012627
0.00126201
0.00126193
0.00126221
0.001262
0.0012616
0.00126072
0.00126071
0.00126075
0.00125981
0.00125994
0.00126032
0.00126013
0.00126029
0.00126052
0.00126087
0.0012606
0.00126118
0.00126199
0.00126184
0.00126227
0.00126296
0.00126346
0.00126356
0.00126417
0.001265
0.00126499
0.00126518
0.00126518
0.0012653
0.00126541
0.00126549
0.0012655
0.00126525
0.00126535
0.00126538
0.00126462
0.00126475
0.00126482
0.00126454
0.00126423
0.0012645
0.00126525
0.00126485
0.00126479
0.00126467
0.00126464
0.0012643
0.00126452
0.00126482
0.00126458
0.0012645
0.00126409
0.00126433
0.0012647
0.00126455
0.0012644
0.00126416
0.0012637
0.0012638
0.00126417
0.00126406
0.00126378
0.00126399
0.00126432
0.00126352
0.00126369
0.00126401
0.00126324
0.00126343
0.00126369
0.00126359
0.00126354
0.00126321
0.00126319
0.00126272
0.00118512
0.00122669
0.00125062
0.00126116
0.00126384
0.00126365
0.00126389
0.00126399
0.00126349
0.00126353
0.00126357
0.00126329
0.00126303
0.0012624
0.00126192
0.00126152
0.00126085
0.00126085
0.00126085
0.00126049
0.00126013
0.00125964
0.00125985
0.00125986
0.00125945
0.00125981
0.00126021
0.00125955
0.00125979
0.00126047
0.00126095
0.00126116
0.00126182
0.00126243
0.00126289
0.00126338
0.00126321
0.00126328
0.00126356
0.00126345
0.00126397
0.00126464
0.00126401
0.00126422
0.00126474
0.00126432
0.00126415
0.00126426
0.00126399
0.00126426
0.00126497
0.00126487
0.00126462
0.00126384
0.00126378
0.0012642
0.00126414
0.00126398
0.0012642
0.0012644
0.0012643
0.00126423
0.0012639
0.00126378
0.00126311
0.00126317
0.00126371
0.00126308
0.0012632
0.00126367
0.00126366
0.00126371
0.00126345
0.00126346
0.00126344
0.00126338
0.00126344
0.00126346
0.00126277
0.00126269
0.00126357
0.00126387
0.00126368
0.001263
0.00126293
0.00126331
0.00126273
0.00126284
0.00126332
0.00126268
0.00118512
0.00122668
0.00125067
0.00126094
0.00126447
0.00126505
0.00126482
0.0012647
0.00126454
0.0012644
0.00126406
0.00126374
0.00126343
0.00126305
0.00126274
0.00126245
0.00126219
0.00126189
0.00126127
0.00126109
0.00126117
0.00126068
0.00126048
0.00126035
0.00126002
0.00125986
0.0012598
0.00125941
0.00125993
0.00126075
0.00126037
0.00126095
0.00126179
0.00126201
0.00126213
0.00126293
0.00126373
0.001264
0.00126401
0.00126398
0.00126441
0.00126472
0.00126472
0.00126417
0.00126417
0.0012647
0.00126444
0.0012648
0.00126521
0.00126507
0.00126488
0.00126451
0.00126433
0.00126397
0.00126376
0.0012638
0.00126355
0.0012639
0.00126429
0.00126375
0.00126348
0.001264
0.00126433
0.00126414
0.00126382
0.00126352
0.00126353
0.00126305
0.0012632
0.00126368
0.00126311
0.00126296
0.00126363
0.00126389
0.00126369
0.00126309
0.00126304
0.00126342
0.00126285
0.00126292
0.00126342
0.00126293
0.00126322
0.00126362
0.00126357
0.00126356
0.0012632
0.00126346
0.00126356
0.00126311
0.00118512
0.00122668
0.00125067
0.00126094
0.00126442
0.00126538
0.0012654
0.0012652
0.00126494
0.00126467
0.00126449
0.00126421
0.00126374
0.00126336
0.0012631
0.00126265
0.00126244
0.00126219
0.00126137
0.00126133
0.00126128
0.00126043
0.00126052
0.00126086
0.00126074
0.00126081
0.00126075
0.00126045
0.00126075
0.00126119
0.00126148
0.00126141
0.00126194
0.00126277
0.0012626
0.00126331
0.00126411
0.00126446
0.00126481
0.00126463
0.00126463
0.00126518
0.0012655
0.00126545
0.00126499
0.00126512
0.00126527
0.00126514
0.00126509
0.00126448
0.00126469
0.00126629
0.00126727
0.00126748
0.00126735
0.00126718
0.00126698
0.0012668
0.00126676
0.00126676
0.0012664
0.00126624
0.00126619
0.00126606
0.00126554
0.00126556
0.00126564
0.00126518
0.00126538
0.00126545
0.00126525
0.00126518
0.00126507
0.00126509
0.00126497
0.0012643
0.00126434
0.00126443
0.00126427
0.00126401
0.00126382
0.00126379
0.00126371
0.00126384
0.00126391
0.00126376
0.00126301
0.00126293
0.00126329
0.00126275
0.00118512
0.00122668
0.00125067
0.00126095
0.00126443
0.00126541
0.00126528
0.00126496
0.00126482
0.00126467
0.0012644
0.00126395
0.00126358
0.00126335
0.0012629
0.00126268
0.00126243
0.0012616
0.00126155
0.00126146
0.00126113
0.0012607
0.00126055
0.00126056
0.00126036
0.00126001
0.00125996
0.00126025
0.00125995
0.00126042
0.00126127
0.00126111
0.00126179
0.00126276
0.00126256
0.00126305
0.00126388
0.00126426
0.00126453
0.0012651
0.0012655
0.00126559
0.00126572
0.00126526
0.00126555
0.00126572
0.00126571
0.0012657
0.00126554
0.00126539
0.00126486
0.00126543
0.00126693
0.00126684
0.0012666
0.0012665
0.00126646
0.00126642
0.00126609
0.00126591
0.00126569
0.00126582
0.00126584
0.00126547
0.00126553
0.00126552
0.00126538
0.00126532
0.00126518
0.00126456
0.0012647
0.00126482
0.00126464
0.00126437
0.00126401
0.00126388
0.00126339
0.0012636
0.00126414
0.00126366
0.00126387
0.00126398
0.00126358
0.00126379
0.00126384
0.00126368
0.00126319
0.00126331
0.00126364
0.00126281
0.00118512
0.00122668
0.00125067
0.00126093
0.00126454
0.00126486
0.00126457
0.0012644
0.00126418
0.00126401
0.00126375
0.00126347
0.00126312
0.00126301
0.00126296
0.00126258
0.00126177
0.00126161
0.00126144
0.00126101
0.00126075
0.0012604
0.00126005
0.00125956
0.00125973
0.00125991
0.00125967
0.00126025
0.00126086
0.00126118
0.00126162
0.00126191
0.0012624
0.00126284
0.00126323
0.00126304
0.0012632
0.00126354
0.00126355
0.00126417
0.00126461
0.00126469
0.0012647
0.0012643
0.00126431
0.0012642
0.00126467
0.00126505
0.00126491
0.00126486
0.00126457
0.00126523
0.00126697
0.00126691
0.00126657
0.00126651
0.00126659
0.00126651
0.00126636
0.00126625
0.00126562
0.00126568
0.00126578
0.00126573
0.00126568
0.00126489
0.001265
0.00126516
0.00126449
0.00126473
0.00126492
0.00126488
0.00126485
0.00126403
0.00126414
0.00126448
0.00126444
0.00126442
0.00126414
0.0012641
0.00126392
0.00126342
0.00126357
0.00126395
0.00126317
0.00126328
0.00126383
0.00126383
0.00126379
0.00126296
0.00118509
0.00122668
0.00125092
0.00126064
0.00126248
0.00126246
0.00126237
0.00126178
0.00126196
0.00126245
0.00126226
0.00126204
0.0012613
0.00126132
0.00126152
0.00126095
0.00126066
0.00126042
0.00126012
0.0012601
0.00125981
0.00126012
0.00126059
0.00125982
0.00126007
0.00126046
0.00125981
0.00126017
0.00126086
0.00126122
0.00126163
0.00126126
0.0012619
0.0012628
0.0012628
0.00126306
0.00126386
0.00126466
0.00126495
0.001265
0.00126531
0.00126557
0.00126555
0.00126564
0.00126574
0.00126581
0.00126572
0.0012656
0.00126546
0.00126518
0.00126503
0.00126484
0.00126455
0.00126374
0.00126375
0.00126424
0.00126396
0.00126365
0.00126392
0.0012644
0.00126429
0.0012642
0.00126356
0.00126392
0.00126449
0.00126452
0.00126434
0.00126414
0.00126376
0.00126378
0.00126455
0.00126475
0.00126461
0.00126439