/*--------------------------------*- C++ -*----------------------------------*\
  =========                 |
  \\      /  F ield         | OpenFOAM: The Open Source CFD Toolbox
   \\    /   O peration     | Website:  https://openfoam.org
    \\  /    A nd           | Version:  11
     \\/     M anipulation  |
\*---------------------------------------------------------------------------*/
FoamFile
{
    format      ascii;
    class       volScalarField;
    location    "0.038";
    object      omega;
}
// * * * * * * * * * * * * * * * * * * * * * * * * * * * * * * * * * * * * * //

dimensions      [0 0 -1 0 0 0 0];

internalField   nonuniform List<scalar> 
287084
(
55.085
56.005
56.5001
56.6795
56.7037
56.7029
56.7025
56.6919
56.6989
56.7107
56.7105
56.7102
56.7009
56.6941
56.6975
56.6957
56.706
56.7199
56.7083
56.7157
56.7213
56.712
56.7118
56.712
56.7116
56.7029
56.7071
56.7165
56.7126
56.7011
56.698
56.7014
56.6875
56.6889
56.7013
56.7041
56.7022
56.6969
56.6959
56.6844
56.691
56.6999
56.682
56.6846
56.6952
56.682
56.6795
56.6948
56.6995
56.6929
56.693
56.6931
56.6924
56.6919
56.6797
56.686
56.6951
56.6934
56.6919
56.6889
56.6933
56.683
56.6885
56.7001
56.6987
56.6983
56.6838
56.6904
56.6994
56.6959
56.6965
56.6897
56.6953
56.7043
56.7051
56.7036
56.7028
56.6905
56.6943
56.7039
56.7014
56.6986
56.6893
56.6841
56.6822
56.6751
56.683
56.6948
56.693
56.6872
55.0874
55.9954
56.495
56.6804
56.7073
56.7059
56.707
56.7037
56.7065
56.7077
56.7048
56.6935
56.696
56.7038
56.6867
56.6875
56.6984
56.6985
56.6933
56.6971
56.716
56.7128
56.7142
56.7186
56.7178
56.7069
56.7136
56.72
56.7033
56.7081
56.7128
56.6941
56.6963
56.7067
56.6939
56.6907
56.6962
56.6934
56.7026
56.708
56.7053
56.7029
56.6926
56.7002
56.705
56.7006
56.6884
56.6849
56.688
56.6804
56.6771
56.6878
56.6971
56.6939
56.6827
56.6875
56.6986
56.6838
56.6901
56.6995
56.6976
56.6955
56.6924
56.6944
56.686
56.6926
56.7015
56.699
56.6902
56.6912
56.7048
56.7095
56.7067
56.6894
56.6931
56.7045
56.6937
56.6992
56.7016
56.6954
56.6948
56.6946
56.6859
56.6887
56.6917
56.6889
56.6807
56.6814
56.6923
56.678
55.0874
55.9948
56.4944
56.6781
56.7048
56.7157
56.7181
56.7031
56.7071
56.7198
56.7178
56.7181
56.7168
56.7079
56.7031
56.7106
56.717
56.7134
56.7014
56.6981
56.7046
56.7042
56.7138
56.7222
56.7221
56.722
56.7079
56.7125
56.7186
56.7016
56.7067
56.7184
56.7017
56.7062
56.7181
56.7026
56.7082
56.7198
56.7124
56.7124
56.7102
56.7043
56.7062
56.709
56.7066
56.7001
56.7032
56.7073
56.7064
56.7061
56.6897
56.6929
56.6977
56.6847
56.6918
56.7008
56.6832
56.687
56.6971
56.6948
56.6947
56.6892
56.6917
56.688
56.6977
56.7046
56.7021
56.6946
56.6965
56.7024
56.6959
56.6949
56.683
56.6893
56.6969
56.6812
56.6851
56.7004
56.6932
56.6924
56.69
56.6982
56.7019
56.6868
56.6922
56.7
56.6828
56.6877
56.6946
56.6771
55.0869
55.9966
56.4893
56.6803
56.7168
56.7274
56.7253
56.7233
56.7204
56.7211
56.7221
56.7201
56.7198
56.7098
56.7165
56.7208
56.7169
56.7034
56.7014
56.7107
56.7081
56.7082
56.7054
56.7073
56.7033
56.7003
56.6921
56.6947
56.7155
56.7176
56.7135
56.6975
56.6963
56.7045
56.6916
56.6913
56.701
56.6929
56.6998
56.7113
56.7032
56.7024
56.7029
56.7023
56.7017
56.6983
56.6908
56.6872
56.6913
56.6969
56.6947
56.694
56.6906
56.6788
56.6865
56.6994
56.6845
56.6905
56.6997
56.6971
56.6967
56.6856
56.6955
56.7068
56.7042
56.7054
56.7049
56.7035
56.7049
56.7052
56.6906
56.6956
56.7025
56.689
56.694
56.7086
56.7059
56.7082
56.709
56.7057
56.689
56.6915
56.703
56.7013
56.6985
56.6834
56.6888
56.6961
56.6936
56.6859
55.0869
55.9963
56.4887
56.6818
56.7167
56.7159
56.7093
56.7138
56.7209
56.7068
56.7129
56.7169
56.7141
56.7138
56.705
56.7076
56.708
56.7054
56.7019
56.7019
56.6985
56.7089
56.7225
56.7132
56.714
56.7132
56.7025
56.7069
56.7172
56.7053
56.6999
56.7013
56.6982
56.7078
56.7201
56.707
56.7134
56.7177
56.7173
56.717
56.6982
56.701
56.7064
56.7063
56.7061
56.6891
56.694
56.7004
56.6854
56.6918
56.7013
56.6832
56.6817
56.6907
56.6827
56.6893
56.7019
56.6939
56.6945
56.6938
56.6844
56.6891
56.7015
56.6852
56.69
56.7001
56.6835
56.6846
56.6953
56.6847
56.6907
56.7033
56.7031
56.703
56.6887
56.6952
56.7035
56.6923
56.6911
56.6908
56.6829
56.6891
56.7011
56.6872
56.6941
56.7018
56.687
56.6937
56.7017
56.6828
55.0858
55.999
56.4898
56.6673
56.6916
56.6802
56.6858
56.7064
56.7073
56.7032
56.6873
56.6885
56.7045
56.697
56.7055
56.7164
56.7061
56.7056
56.705
56.7061
56.7054
56.6955
56.7004
56.7113
56.6968
56.6938
56.7072
56.7115
56.7084
56.6991
56.7041
56.7184
56.7124
56.7117
56.7102
56.6978
56.6992
56.7063
56.6884
56.6893
56.6998
56.6867
56.6911
56.7038
56.6889
56.6938
56.7066
56.6976
56.6982
56.6974
56.6872
56.69
56.7032
56.7035
56.7029
56.6943
56.6855
56.6917
56.6979
56.6954
56.6927
56.6817
56.6904
56.7019
56.6997
56.6994
56.6985
56.695
56.6934
56.6894
56.699
56.7086
56.6949
56.7013
56.7065
56.6899
56.6951
56.7043
56.6882
56.6928
56.7028
56.6905
56.6978
56.7044
56.7039
56.7061
56.7014
56.6998
56.6986
56.6857
55.0837
56.0021
56.4891
56.6709
56.6979
56.6851
56.692
56.7004
56.6964
56.691
56.6911
56.7304
56.7429
56.7331
56.734
56.7409
56.7423
56.7413
56.7411
56.7373
56.7355
56.7343
56.7232
56.7261
56.7293
56.7264
56.7221
56.715
56.716
56.7164
56.7098
56.7146
56.7206
56.7027
56.7065
56.7177
56.702
56.7068
56.7173
56.7164
56.7159
56.7006
56.7066
56.7145
56.7081
56.7077
56.7038
56.7041
56.7042
56.704
56.6927
56.6976
56.7016
56.686
56.6833
56.6966
56.7005
56.6966
56.6879
56.6819
56.6832
56.6766
56.6852
56.6953
56.6931
56.6929
56.6887
56.6878
56.6776
56.6856
56.6948
56.6787
56.6792
56.6944
56.7009
56.6982
56.6822
56.6858
56.6994
56.6899
56.6974
56.7021
56.6877
56.6932
56.702
56.6995
56.7022
56.7014
56.698
56.6812
55.0864
55.998
56.4849
56.6797
56.743
56.7611
56.7592
56.7572
56.7577
56.752
56.7491
56.7501
56.7476
56.7477
56.7492
56.7472
56.748
56.7472
56.7455
56.7419
56.7401
56.736
56.7227
56.7257
56.7295
56.7271
56.7258
56.7192
56.715
56.7018
56.7076
56.7199
56.7033
56.7076
56.7191
56.7113
56.706
56.7169
56.7265
56.7258
56.7255
56.711
56.7168
56.7232
56.7187
56.7143
56.7152
56.721
56.7166
56.7194
56.7242
56.7229
56.7202
56.7201
56.7137
56.7081
56.7055
56.7025
56.6993
56.6891
56.6963
56.7062
56.6982
56.6976
56.6976
56.6875
56.693
56.7013
56.6896
56.6887
56.691
56.6912
56.6808
56.6774
56.6954
56.7039
56.7022
56.7014
56.6856
56.6918
56.7048
56.6962
56.7001
56.7013
56.6979
56.6875
56.6907
56.6996
56.6966
56.6851
55.0848
56.0006
56.4892
56.6704
56.7009
56.6989
56.7016
56.6985
56.689
56.6903
56.7265
56.7414
56.7396
56.7383
56.7385
56.7406
56.7371
56.7387
56.7405
56.742
56.7388
56.7363
56.7338
56.7309
56.731
56.7273
56.7145
56.7117
56.7132
56.7021
56.7085
56.7204
56.7036
56.7079
56.7192
56.7113
56.7056
56.7154
56.7273
56.7231
56.7243
56.7227
56.7195
56.7207
56.721
56.7192
56.7172
56.6954
56.6932
56.6966
56.6811
56.6857
56.6936
56.6818
56.6775
56.6907
56.6987
56.6962
56.6926
56.6818
56.69
56.6981
56.6967
56.6963
56.6831
56.6902
56.7032
56.6942
56.7005
56.7037
56.6998
56.6908
56.6861
56.6964
56.7021
56.7014
56.7072
56.7078
56.7033
56.7027
56.6918
56.697
56.7069
56.6993
56.6996
56.6993
56.6932
56.6885
56.6867
56.6763
55.083
56.0026
56.4932
56.6582
56.6972
56.6966
56.6931
56.6865
56.699
56.7108
56.7096
56.7087
56.6956
56.7049
56.715
56.7129
56.7101
56.6999
56.6985
56.695
56.7054
56.7135
56.704
56.7002
56.7112
56.7174
56.7056
56.7132
56.7223
56.704
56.7061
56.717
56.7159
56.7167
56.7158
56.7162
56.7123
56.6993
56.7014
56.7041
56.6844
56.6849
56.694
56.6799
56.6844
56.6945
56.6773
56.6764
56.6863
56.6832
56.6848
56.6851
56.6842
56.6734
56.6783
56.6909
56.6743
56.6733
56.6897
56.6963
56.6923
56.6764
56.6741
56.6869
56.6886
56.6832
56.6894
56.6966
56.6875
56.689
56.6858
56.6756
56.6813
56.6932
56.6792
56.6768
56.6917
56.6969
56.693
56.6792
56.6771
56.6933
56.6991
56.6975
56.6969
56.6848
56.6868
56.6988
56.6978
56.6882
55.085
55.9988
56.4915
56.673
56.7048
56.7041
56.7023
56.6922
56.7017
56.7108
56.7094
56.7062
56.7124
56.7219
56.7079
56.7117
56.7269
56.727
56.7277
56.7263
56.7155
56.7118
56.7152
56.7156
56.7137
56.707
56.71
56.7162
56.7129
56.701
56.7071
56.7209
56.718
56.7175
56.7131
56.6996
56.6999
56.705
56.6871
56.6877
56.6975
56.6845
56.6889
56.7014
56.6865
56.6891
56.7054
56.7061
56.7032
56.6871
56.6906
56.698
56.6806
56.6819
56.692
56.6918
56.6917
56.6822
56.6879
56.6921
56.6887
56.6776
56.6763
56.6893
56.6903
56.6893
56.6794
56.677
56.6877
56.6886
56.6888
56.6879
56.6991
56.7065
56.6915
56.6974
56.7072
56.6953
56.7018
56.7067
56.6948
56.7022
56.707
56.6883
56.6912
56.7003
56.6913
56.6923
56.6891
56.6782
55.0844
56.0007
56.4882
56.6758
56.7075
56.7059
56.7084
56.7087
56.7058
56.7004
56.7221
56.7425
56.7349
56.7417
56.7452
56.7389
56.7386
56.7384
56.7297
56.7335
56.7364
56.7238
56.731
56.7372
56.735
56.7334
56.7262
56.7207
56.7038
56.7074
56.7157
56.6972
56.6993
56.7089
56.6925
56.694
56.7041
56.69
56.6939
56.7055
56.6902
56.6947
56.7067
56.6975
56.6979
56.697
56.6865
56.6907
56.7043
56.703
56.7002
56.6993
56.6908
56.6863
56.6887
56.6813
56.688
56.6912
56.6773
56.6775
56.6966
56.7001
56.6961
56.6973
56.6981
56.6969
56.6824
56.6839
56.7015
56.7017
56.6984
56.6819
56.6832
56.6958
56.6955
56.6927
56.6777
56.6815
56.6973
56.698
56.698
56.685
56.6918
56.6981
56.6957
56.6952
56.6833
56.6912
56.699
56.6809
55.0864
55.9979
56.4848
56.6794
56.7439
56.7526
56.7478
56.7478
56.7475
56.7502
56.7484
56.7419
56.7444
56.7472
56.7457
56.7476
56.746
56.7413
56.7407
56.7431
56.7416
56.739
56.7312
56.7334
56.7348
56.7308
56.7203
56.7175
56.7191
56.7061
56.7116
56.7223
56.7171
56.7102
56.7163
56.725
56.7252
56.7249
56.7082
56.7123
56.7198
56.7171
56.7165
56.7037
56.7099
56.7152
56.7123
56.7121
56.7054
56.7054
56.7064
56.7051
56.689
56.6903
56.7026
56.7015
56.6987
56.6846
56.6907
56.7039
56.7042
56.7042
56.6881
56.6941
56.7042
56.6878
56.6929
56.7015
56.6898
56.6887
56.691
56.6911
56.6806
56.6771
56.6951
56.7037
56.7016
56.7004
56.6871
56.6931
56.6994
56.6979
56.6976
56.6844
56.6915
56.7052
56.6968
56.6961
56.6957
56.6832
55.0836
56.0011
56.4935
56.665
56.6872
56.6789
56.6878
56.7052
56.6956
56.6947
56.6946
56.6876
56.6907
56.7023
56.6989
56.7063
56.7095
56.7041
56.7026
56.7075
56.7057
56.7157
56.7297
56.7192
56.7254
56.7285
56.7221
56.7215
56.7203
56.7091
56.7119
56.7217
56.7174
56.71
56.7155
56.7248
56.7222
56.7231
56.7193
56.7179
56.7181
56.718
56.7136
56.7122
56.709
56.7089
56.709
56.7073
56.7001
56.6965
56.6859
56.6919
56.7001
56.7002
56.7001
56.6836
56.6868
56.6964
56.6973
56.6974
56.6815
56.6848
56.6973
56.6932
56.6926
56.6827
56.6903
56.6975
56.6957
56.6953
56.6806
56.6828
56.6969
56.6885
56.6954
56.7086
56.6978
56.7051
56.7101
56.7046
56.7045
56.7062
56.7057
56.69
56.6915
56.7047
56.7087
56.7059
56.7014
56.6884
55.0865
55.9979
56.4848
56.6796
56.7428
56.7609
56.7591
56.757
56.7579
56.756
56.7531
56.7512
56.7514
56.7482
56.7459
56.7441
56.743
56.7357
56.7385
56.7412
56.7383
56.7353
56.7372
56.7396
56.7361
56.7302
56.7239
56.7207
56.7155
56.7131
56.71
56.7005
56.7052
56.7126
56.6935
56.6936
56.7027
56.6889
56.6927
56.704
56.6884
56.693
56.7048
56.703
56.7024
56.6875
56.6923
56.7028
56.6996
56.7014
56.7005
56.697
56.6993
56.7022
56.7005
56.6998
56.6846
56.6932
56.7099
56.7008
56.7072
56.7154
56.7106
56.7125
56.7091
56.693
56.6943
56.7
56.6893
56.6884
56.6908
56.6909
56.6805
56.677
56.695
56.7037
56.7015
56.7003
56.687
56.6931
56.6993
56.696
56.6898
56.6833
56.6849
56.6823
56.6911
56.6966
56.6929
56.6803
55.0887
55.9937
56.4876
56.679
56.7095
56.7005
56.7088
56.7169
56.706
56.7104
56.7159
56.7127
56.7017
56.7057
56.7154
56.7137
56.7127
56.702
56.705
56.7099
56.7087
56.7054
56.7145
56.7213
56.7071
56.7128
56.7229
56.7105
56.7062
56.7173
56.7218
56.7111
56.7177
56.7222
56.7113
56.7117
56.7062
56.7038
56.7019
56.6877
56.6884
56.6951
56.6813
56.678
56.6838
56.6771
56.6805
56.6998
56.7013
56.6994
56.7004
56.6972
56.6852
56.6866
56.7184
56.7279
56.7231
56.7265
56.7314
56.7292
56.7263
56.7189
56.7206
56.7224
56.7189
56.7187
56.7144
56.6998
56.6999
56.7041
56.6875
56.6921
56.7008
56.7
56.6998
56.6879
56.6937
56.6966
56.683
56.6864
56.7028
56.7032
56.7022
56.6881
56.6926
56.7013
56.6943
56.6966
56.6934
56.6811
55.0878
55.9968
56.4821
56.6775
56.7419
56.7603
56.7619
56.76
56.7605
56.7583
56.7532
56.7504
56.7504
56.7489
56.7441
56.7446
56.745
56.7337
56.738
56.7408
56.7241
56.7288
56.7351
56.7343
56.7347
56.7322
56.7299
56.7112
56.713
56.7204
56.7205
56.72
56.6998
56.7021
56.7068
56.706
56.7054
56.6851
56.684
56.692
56.6784
56.68
56.6936
56.6946
56.6934
56.6774
56.6775
56.6919
56.694
56.6913
56.694
56.6947
56.6808
56.6904
56.7139
56.7058
56.7139
56.7192
56.708
56.7148
56.7184
56.7071
56.7113
56.7128
56.7087
56.7097
56.7062
56.6927
56.6958
56.7009
56.6915
56.692
56.6928
56.6909
56.6805
56.6769
56.6899
56.6993
56.6979
56.6976
56.6864
56.6877
56.6986
56.6904
56.6975
56.7014
56.6899
56.6976
56.7028
56.6834
55.0865
55.9979
56.4848
56.6796
56.743
56.7606
56.7651
56.7631
56.7602
56.7611
56.7595
56.7544
56.7517
56.7517
56.7503
56.7456
56.7428
56.7444
56.7448
56.7356
56.7393
56.7425
56.7348
56.7347
56.7337
56.7265
56.7215
56.7198
56.7086
56.7149
56.7208
56.7018
56.705
56.7124
56.6931
56.6933
56.7018
56.6875
56.6911
56.702
56.6865
56.6891
56.7011
56.6951
56.696
56.6954
56.6938
56.6956
56.6962
56.6918
56.6914
56.6854
56.6953
56.7154
56.7063
56.7139
56.7193
56.7175
56.7156
56.7161
56.7169
56.7072
56.7071
56.7069
56.6974
56.7017
56.7053
56.6916
56.6968
56.7046
56.7049
56.705
56.6966
56.6871
56.693
56.7023
56.6996
56.6951
56.686
56.6845
56.6824
56.6933
56.7
56.6985
56.6978
56.6828
56.6894
56.7004
56.6972
56.6855
55.0878
55.9969
56.4821
56.6775
56.7419
56.7607
56.7591
56.7572
56.7579
56.7528
56.75
56.7499
56.7482
56.7433
56.7439
56.7443
56.7329
56.7373
56.7403
56.7238
56.7288
56.7359
56.7272
56.7263
56.7232
56.7127
56.7171
56.7255
56.7067
56.7075
56.7172
56.7031
56.7059
56.7171
56.7153
56.7123
56.7118
56.7118
56.7072
56.7029
56.6837
56.6865
56.6947
56.6763
56.6791
56.6882
56.6718
56.6741
56.6885
56.6924
56.6896
56.6804
56.6746
56.6869
56.7148
56.7077
56.7144
56.7221
56.7199
56.7195
56.7203
56.7224
56.7214
56.7222
56.7178
56.7031
56.7063
56.7093
56.7023
56.7027
56.7038
56.7042
56.6993
56.6971
56.6959
56.6855
56.6862
56.698
56.698
56.6978
56.6837
56.6875
56.6968
56.683
56.6895
56.6954
56.6796
56.6847
56.6962
56.6787
55.0878
55.997
56.4807
56.6845
56.7223
56.7216
56.7221
56.7232
56.7198
56.7223
56.7243
56.7154
56.7098
56.7142
56.7233
56.7199
56.7198
56.717
56.717
56.7067
56.7093
56.7347
56.7378
56.7347
56.7217
56.7186
56.7204
56.7073
56.7119
56.7205
56.7017
56.7042
56.713
56.6951
56.6957
56.7043
56.6979
56.6993
56.6959
56.6834
56.6873
56.6949
56.6865
56.6861
56.6845
56.684
56.6845
56.6852
56.6776
56.686
56.7257
56.7457
56.748
56.7467
56.7438
56.7415
56.7416
56.7426
56.7396
56.7288
56.7312
56.7332
56.7261
56.7246
56.722
56.7227
56.7243
56.7218
56.7208
56.7182
56.7143
56.7025
56.7061
56.71
56.7071
56.6982
56.6963
56.6994
56.6978
56.6975
56.6853
56.6898
56.6937
56.6801
56.6852
56.6971
56.6896
56.691
56.6878
56.6775
55.0858
55.9983
56.49
56.6699
56.6952
56.6937
56.6861
56.6899
56.7012
56.6876
56.6857
56.6935
56.6877
56.6962
56.7084
56.7077
56.7077
56.7
56.7112
56.7171
56.7268
56.7378
56.7277
56.7268
56.7264
56.7167
56.7214
56.73
56.7114
56.7115
56.7201
56.7063
56.7106
56.7206
56.7037
56.7084
56.7157
56.7136
56.7128
56.6965
56.7014
56.7067
56.6981
56.6982
56.6929
56.6952
56.696
56.6924
56.6816
56.6841
56.6878
56.6724
56.6757
56.6876
56.684
56.6836
56.685
56.6849
56.6702
56.6753
56.6888
56.6728
56.6762
56.6879
56.6841
56.6851
56.683
56.676
56.6851
56.6997
56.6951
56.6921
56.6932
56.6941
56.6839
56.6806
56.6952
56.7036
56.7008
56.6961
56.6862
56.6845
56.6798
56.6889
56.6945
56.679
56.6821
56.6936
56.6929
56.6881
55.0865
55.9979
56.4848
56.6795
56.7449
56.7506
56.7452
56.7448
56.7461
56.7433
56.7417
56.7431
56.7431
56.7431
56.7312
56.7336
56.7362
56.7342
56.7316
56.7333
56.737
56.7353
56.7349
56.7206
56.7205
56.7271
56.7256
56.7122
56.7145
56.7234
56.7216
56.714
56.7149
56.7158
56.7138
56.7128
56.6941
56.6974
56.6999
56.6883
56.687
56.6863
56.6784
56.6744
56.6791
56.6767
56.6866
56.6931
56.6919
56.6933
56.6877
56.7057
56.7399
56.7496
56.749
56.7468
56.7476
56.7451
56.7393
56.7395
56.7407
56.7369
56.7377
56.734
56.7311
56.7208
56.723
56.7261
56.718
56.7241
56.7271
56.7248
56.7236
56.7214
56.7181
56.711
56.711
56.7073
56.6962
56.6928
56.6942
56.6843
56.6912
56.7019
56.6977
56.6968
56.6832
56.6892
56.6953
56.6782
55.0865
55.9979
56.4848
56.6797
56.7431
56.7609
56.7621
56.7601
56.761
56.7588
56.7537
56.7509
56.751
56.7496
56.7451
56.7459
56.7464
56.7355
56.7403
56.7435
56.742
56.7379
56.7398
56.7425
56.7398
56.7377
56.7309
56.7264
56.7127
56.7184
56.7245
56.7067
56.7111
56.7212
56.7039
56.7048
56.7137
56.709
56.7064
56.7129
56.7154
56.7121
56.7115
56.6999
56.7047
56.707
56.7062
56.7061
56.7018
56.6926
56.6863
56.7081
56.7409
56.7495
56.7519
56.7496
56.7472
56.7478
56.7453
56.7429
56.7392
56.7372
56.7365
56.7369
56.7292
56.731
56.7332
56.7286
56.7315
56.733
56.7307
56.7301
56.7249
56.7231
56.7178
56.7166
56.7153
56.7174
56.7133
56.7121
56.7104
56.6961
56.6985
56.7046
56.6873
56.6913
56.7025
56.7031
56.7027
56.6833
55.085
55.9989
56.4931
56.6666
56.6909
56.7029
56.7074
56.6893
56.6929
56.7028
56.7009
56.701
56.6943
56.7207
56.7419
56.7329
56.7374
56.7464
56.7471
56.7472
56.7346
56.7389
56.743
56.7249
56.729
56.7363
56.7274
56.7271
56.728
56.7261
56.7078
56.71
56.7162
56.6962
56.6958
56.7034
56.7012
56.6933
56.6994
56.7101
56.7053
56.7057
56.7015
56.702
56.7014
56.6991
56.6971
56.695
56.6988
56.7
56.6851
56.6893
56.6918
56.6861
56.6812
56.6918
56.7094
56.7028
56.7039
56.7028
56.7037
56.6965
56.7019
56.7091
56.7037
56.7035
56.6973
56.7033
56.7083
56.7084
56.7084
56.7
56.6906
56.6954
56.7037
56.7018
56.6958
56.7018
56.7088
56.6914
56.696
56.7029
56.686
56.6908
56.6962
56.6935
56.6891
56.685
56.6884
56.6771
55.0864
55.9981
56.4839
56.6837
56.7301
56.7256
56.7321
56.7364
56.7303
56.734
56.7387
56.7368
56.7335
56.7245
56.7226
56.723
56.7134
56.7195
56.7252
56.7223
56.7165
56.7137
56.7241
56.7259
56.7195
56.7258
56.7313
56.7111
56.7115
56.7187
56.7176
56.7097
56.7111
56.712
56.7096
56.7083
56.6913
56.6854
56.6864
56.6757
56.6811
56.6905
56.6728
56.676
56.6861
56.6722
56.6695
56.6759
56.6696
56.6763
56.6895
56.6909
56.6878
56.6712
56.6735
56.6858
56.6857
56.6836
56.6887
56.6941
56.6927
56.6925
56.6855
56.684
56.6718
56.6757
56.6893
56.6749
56.6789
56.6904
56.6893
56.6874
56.6854
56.6895
56.6865
56.6858
56.6879
56.6885
56.6745
56.6748
56.6951
56.6998
56.6955
56.68
56.681
56.691
56.6759
56.6791
56.6906
56.6755
55.0865
55.9979
56.4848
56.6796
56.7437
56.7556
56.7545
56.7553
56.752
56.7493
56.7493
56.7476
56.7427
56.7422
56.7445
56.7445
56.7452
56.7426
56.7346
56.7376
56.7453
56.7401
56.7403
56.7394
56.7287
56.7217
56.72
56.7081
56.7133
56.722
56.7027
56.705
56.7118
56.7006
56.6921
56.7001
56.7065
56.702
56.69
56.6853
56.6901
56.6919
56.6892
56.6735
56.674
56.6865
56.6785
56.6865
56.6955
56.6925
56.6861
56.6823
56.683
56.6727
56.6705
56.6769
56.6721
56.6811
56.6903
56.677
56.6739
56.6898
56.6968
56.6931
56.6838
56.6809
56.6858
56.6746
56.6789
56.6904
56.6748
56.6738
56.6924
56.6966
56.6927
56.6794
56.6808
56.6908
56.6765
56.6794
56.6914
56.6795
56.6862
56.6946
56.693
56.6923
56.6864
56.692
56.6936
56.686
55.0865
55.9979
56.4848
56.6796
56.7431
56.7607
56.7651
56.7631
56.7607
56.7617
56.7597
56.7548
56.7521
56.7522
56.751
56.7467
56.7476
56.7483
56.7375
56.7423
56.7462
56.7327
56.7392
56.7486
56.7461
56.7431
56.7379
56.7299
56.7304
56.7314
56.727
56.7139
56.7154
56.7222
56.7045
56.7087
56.7155
56.7126
56.7116
56.6985
56.6945
56.7039
56.7064
56.7026
56.6903
56.6927
56.6957
56.6925
56.6919
56.6807
56.6893
56.7274
56.746
56.7506
56.752
56.7496
56.7471
56.7477
56.7458
56.7434
56.7401
56.7401
56.7406
56.7371
56.7263
56.728
56.7306
56.7228
56.7273
56.7291
56.7246
56.7242
56.7244
56.7259
56.7221
56.7068
56.7085
56.7107
56.7076
56.6987
56.6974
56.7005
56.6987
56.6997
56.7009
56.6998
56.6813
56.6817
56.6914
56.6775
55.0865
55.9979
56.4848
56.6797
56.7432
56.761
56.7621
56.7602
56.7611
56.7589
56.7538
56.7511
56.7511
56.7496
56.7452
56.746
56.7466
56.7356
56.7404
56.7438
56.741
56.7365
56.7378
56.7407
56.7369
56.7245
56.7234
56.7286
56.7127
56.7152
56.7245
56.708
56.7118
56.7211
56.7039
56.7048
56.7137
56.7089
56.7066
56.7133
56.7156
56.7122
56.7116
56.6999
56.7047
56.707
56.7061
56.7061
56.7024
56.6966
56.6892
56.7086
56.7421
56.7418
56.7377
56.7379
56.7359
56.7329
56.7303
56.7308
56.727
56.7296
56.7308
56.7255
56.7263
56.7268
56.726
56.7225
56.719
56.7086
56.7135
56.7163
56.7124
56.7034
56.6991
56.6999
56.6883
56.6936
56.7056
56.6955
56.6998
56.702
56.6948
56.6986
56.6995
56.6959
56.685
56.6887
56.696
56.678
55.0865
55.9979
56.4848
56.6794
56.7449
56.7507
56.7453
56.7449
56.7462
56.7433
56.7417
56.743
56.7402
56.7412
56.742
56.7423
56.7321
56.7337
56.7359
56.7313
56.7312
56.7282
56.7208
56.7151
56.7213
56.7239
56.7177
56.7257
56.7315
56.7295
56.7292
56.7237
56.7234
56.7206
56.716
56.6989
56.6954
56.6966
56.6877
56.6937
56.6967
56.6928
56.686
56.6777
56.6796
56.6759
56.6855
56.693
56.6895
56.6894
56.6864
56.7054
56.741
56.7415
56.7377
56.7379
56.7386
56.739
56.7367
56.7334
56.7231
56.7265
56.7297
56.7296
56.7296
56.7136
56.717
56.7211
56.7076
56.7139
56.7181
56.7175
56.7173
56.7002
56.7038
56.7116
56.7103
56.7101
56.7034
56.703
56.6996
56.6892
56.6937
56.702
56.6849
56.689
56.7017
56.7014
56.7
56.6812
55.0858
55.9983
56.49
56.6691
56.6977
56.6959
56.6957
56.6872
56.6949
56.7087
56.7075
56.7066
56.6966
56.7028
56.7121
56.7069
56.7072
56.707
56.7061
56.7133
56.7114
56.7226
56.7353
56.7208
56.7276
56.7349
56.7177
56.7218
56.7307
56.7294
56.7286
56.7102
56.7139
56.7223
56.7075
56.7039
56.7134
56.7212
56.7192
56.7134
56.7141
56.715
56.7103
56.7102
56.7109
56.7114
56.7082
56.7025
56.6997
56.6942
56.6921
56.6889
56.6845
56.6701
56.6743
56.6874
56.6793
56.6744
56.6841
56.6954
56.6933
56.6904
56.6796
56.691
56.7008
56.7011
56.7012
56.6968
56.6897
56.6936
56.7104
56.7151
56.7126
56.7053
56.7036
56.7029
56.7044
56.7038
56.6983
56.6934
56.6931
56.6864
56.6865
56.7042
56.709
56.7051
56.692
56.6938
56.6975
56.6786
55.0887
55.9935
56.4886
56.6771
56.7073
56.6994
56.708
56.7163
56.7069
56.7076
56.7067
56.6955
56.6961
56.7133
56.7152
56.711
56.6956
56.6965
56.7116
56.707
56.7165
56.7236
56.7211
56.7207
56.7094
56.7159
56.7262
56.7079
56.7081
56.7176
56.7044
56.7031
56.7164
56.7183
56.7151
56.7032
56.7077
56.7118
56.7087
56.7051
56.6924
56.6907
56.6939
56.693
56.6895
56.689
56.6857
56.6753
56.6774
56.6912
56.681
56.688
56.6989
56.6948
56.6893
56.6965
56.714
56.7057
56.7127
56.7161
56.7135
56.7062
56.7092
56.7119
56.7081
56.7068
56.7052
56.7066
56.7034
56.7031
56.7013
56.6981
56.6947
56.687
56.6931
56.7023
56.6996
56.6952
56.6858
56.6842
56.6779
56.6863
56.6925
56.6895
56.689
56.6783
56.6847
56.6929
56.6898
56.679
55.0887
55.9938
56.4876
56.6789
56.7095
56.7002
56.708
56.7165
56.7075
56.7094
56.7063
56.6944
56.6946
56.7124
56.7158
56.7115
56.6998
56.6952
56.7145
56.7238
56.7206
56.7087
56.7101
56.7198
56.7045
56.7068
56.719
56.7052
56.7075
56.7185
56.7046
56.7097
56.7177
56.7172
56.7165
56.6968
56.6983
56.7053
56.7046
56.7044
56.698
56.6939
56.6766
56.6792
56.6924
56.6906
56.6878
56.6746
56.6752
56.7091
56.7232
56.712
56.7175
56.7248
56.7226
56.7222
56.7101
56.7148
56.7201
56.7194
56.7193
56.7135
56.713
56.7051
56.7107
56.7136
56.7077
56.7102
56.7116
56.7085
56.694
56.697
56.7024
56.6981
56.6988
56.7001
56.699
56.6837
56.6798
56.6849
56.6818
56.6816
56.6812
56.6813
56.6736
56.6795
56.6954
56.6955
56.6942
56.6762
55.0865
55.9979
56.4848
56.6796
56.743
56.7607
56.7621
56.7602
56.7574
56.7551
56.7555
56.7541
56.7516
56.7516
56.7502
56.7456
56.7428
56.7444
56.7447
56.7356
56.7394
56.7425
56.7348
56.7345
56.7333
56.7205
56.7217
56.7278
56.7103
56.713
56.7234
56.7157
56.7097
56.7136
56.7156
56.7052
56.7123
56.7201
56.7037
56.7082
56.718
56.7071
56.7127
56.7196
56.7141
56.7169
56.7177
56.716
56.7164
56.7129
56.7068
56.6885
56.6919
56.7123
56.7041
56.7122
56.718
56.7103
56.7113
56.7106
56.7116
56.7072
56.706
56.7054
56.6967
56.7012
56.7046
56.6912
56.6966
56.7046
56.705
56.705
56.6967
56.6872
56.693
56.7023
56.7011
56.7004
56.6852
56.6916
56.7045
56.696
56.6996
56.7006
56.6973
56.687
56.6905
56.6998
56.6967
56.6852
55.0879
55.9968
56.4821
56.6776
56.7421
56.7602
56.7649
56.7629
56.7605
56.7615
56.7594
56.7542
56.7515
56.7515
56.75
56.7453
56.7451
56.7475
56.7472
56.7491
56.7464
56.7367
56.7388
56.7455
56.7429
56.7439
56.7405
56.7398
56.7366
56.7166
56.7135
56.7197
56.7179
56.7098
56.7144
56.7232
56.7214
56.7209
56.7055
56.7096
56.7176
56.7104
56.707
56.7071
56.7099
56.708
56.7013
56.7043
56.7077
56.7076
56.7075
56.7012
56.6928
56.6956
56.7073
56.7131
56.7106
56.7048
56.7
56.7104
56.7218
56.7124
56.7178
56.7248
56.7244
56.7244
56.7211
56.719
56.7141
56.7118
56.704
56.7083
56.7114
56.7103
56.71
56.6924
56.6945
56.703
56.7023
56.701
56.6839
56.688
56.699
56.6829
56.6882
56.6984
56.6814
56.685
56.6957
56.6788
55.0878
55.997
56.4807
56.6842
56.7252
56.7293
56.7264
56.7101
56.7157
56.7231
56.7088
56.7144
56.7183
56.7038
56.7099
56.7149
56.7078
56.7022
56.7103
56.7224
56.7195
56.7116
56.7079
56.7113
56.7003
56.7038
56.7167
56.703
56.7081
56.7182
56.7127
56.7122
56.7065
56.7135
56.7167
56.7118
56.6984
56.6936
56.6951
56.6815
56.6828
56.6929
56.6809
56.6871
56.6944
56.6926
56.6911
56.688
56.6932
56.699
56.6963
56.688
56.6829
56.6973
56.7158
56.7054
56.7117
56.7201
56.7172
56.7107
56.7061
56.7077
56.7037
56.7114
56.7205
56.7136
56.7129
56.7126
56.7009
56.703
56.7093
56.7026
56.7013
56.6991
56.6975
56.7019
56.703
56.6885
56.6945
56.7026
56.7006
56.6947
56.6932
56.6955
56.6814
56.6863
56.7007
56.7016
56.7009
56.6814
55.0865
55.9979
56.4848
56.6796
56.7429
56.7606
56.7619
56.7599
56.757
56.7546
56.7553
56.7536
56.7511
56.7511
56.7493
56.748
56.7463
56.7453
56.7444
56.7417
56.7425
56.7434
56.7398
56.7229
56.7218
56.7264
56.7125
56.718
56.7255
56.7235
56.7227
56.7163
56.7113
56.6949
56.6963
56.7061
56.6911
56.6949
56.7059
56.6901
56.6946
56.7061
56.6904
56.6957
56.706
56.6923
56.6977
56.707
56.6974
56.7033
56.7058
56.7032
56.7017
56.6916
56.6977
56.7072
56.7043
56.6941
56.6973
56.7082
56.7067
56.6995
56.7018
56.7077
56.6925
56.6986
56.7052
56.6916
56.6988
56.7067
56.7069
56.7068
56.6989
56.6891
56.6923
56.7014
56.699
56.6954
56.6838
56.6918
56.6993
56.696
56.6897
56.6833
56.6848
56.6822
56.691
56.6965
56.6928
56.6802
55.0842
56.0014
56.4912
56.6663
56.6887
56.6874
56.6814
56.6832
56.6965
56.6997
56.6967
56.6854
56.6829
56.7042
56.7318
56.7295
56.73
56.7262
56.734
56.7374
56.7267
56.7327
56.7368
56.7367
56.7367
56.7225
56.718
56.7168
56.7052
56.71
56.7219
56.7163
56.7098
56.7119
56.7138
56.7199
56.7252
56.7085
56.7138
56.7205
56.7143
56.7133
56.7029
56.7086
56.7129
56.7087
56.6984
56.6934
56.6928
56.6802
56.6837
56.6945
56.6843
56.6907
56.6942
56.6913
56.6829
56.6838
56.6909
56.6902
56.6885
56.6807
56.6882
56.6965
56.6926
56.6775
56.6756
56.6852
56.6848
56.6899
56.6912
56.6842
56.6829
56.6915
56.6911
56.6915
56.6911
56.6914
56.6855
56.6938
56.703
56.6954
56.6962
56.6921
56.6918
56.6916
56.6821
56.6853
56.6948
56.6784
55.0865
55.9979
56.4848
56.6796
56.7435
56.7551
56.752
56.7548
56.7551
56.7505
56.7478
56.7451
56.7455
56.7467
56.7464
56.7455
56.7403
56.7407
56.7448
56.742
56.7299
56.7325
56.7343
56.7338
56.7336
56.7195
56.714
56.7193
56.7221
56.7155
56.7221
56.7261
56.719
56.7109
56.7123
56.7184
56.7238
56.7218
56.7201
56.7159
56.7166
56.7223
56.7111
56.7171
56.7203
56.7105
56.7154
56.7172
56.7162
56.7158
56.6997
56.7024
56.7047
56.6858
56.6858
56.6955
56.6848
56.6913
56.7015
56.6879
56.6853
56.6892
56.6847
56.695
56.7062
56.6924
56.6976
56.7015
56.6896
56.6968
56.7019
56.7
56.6993
56.6866
56.6939
56.7028
56.7008
56.6998
56.6869
56.6931
56.6993
56.6961
56.6898
56.6834
56.685
56.6824
56.6911
56.6966
56.6929
56.6803
55.0844
56.0007
56.4882
56.6757
56.7074
56.7058
56.7084
56.7087
56.7058
56.7004
56.7223
56.7424
56.7347
56.7417
56.7452
56.739
56.7387
56.7327
56.7369
56.7395
56.7267
56.732
56.7356
56.7352
56.7352
56.7277
56.7259
56.7236
56.7234
56.7212
56.7047
56.7064
56.7178
56.7023
56.7005
56.7087
56.7022
56.7103
56.7208
56.7072
56.713
56.7167
56.702
56.7073
56.7118
56.7088
56.7041
56.6962
56.6951
56.7002
56.7
56.6993
56.6908
56.6861
56.6885
56.6812
56.688
56.6911
56.6773
56.6824
56.6935
56.6884
56.6882
56.6864
56.6883
56.688
56.6796
56.6839
56.6999
56.6995
56.6988
56.682
56.6831
56.6957
56.6955
56.6927
56.6777
56.6791
56.7027
56.7056
56.7023
56.697
56.6883
56.6948
56.6997
56.6907
56.6988
56.7073
56.704
56.6925
55.0836
56.0011
56.4936
56.6651
56.6872
56.6817
56.68
56.6978
56.7287
56.7288
56.7256
56.7282
56.7298
56.7284
56.7291
56.7255
56.7233
56.7205
56.7208
56.7208
56.7221
56.7217
56.7173
56.7109
56.7072
56.6973
56.7044
56.7181
56.7105
56.71
56.7068
56.6969
56.7015
56.7119
56.6951
56.6979
56.7073
56.6993
56.699
56.6985
56.6882
56.691
56.6979
56.6832
56.6893
56.6966
56.6811
56.6868
56.6989
56.6851
56.6825
56.6979
56.703
56.7003
56.6977
56.6848
56.6899
56.6965
56.6933
56.6872
56.6811
56.6828
56.6781
56.6871
56.6927
56.6772
56.6824
56.6946
56.6949
56.6949
56.6774
56.6768
56.691
56.6866
56.6961
56.7075
56.6977
56.7046
56.7079
56.7042
56.6927
56.695
56.7044
56.6883
56.6933
56.7026
56.6926
56.6918
56.6909
56.6805
55.0863
55.9986
56.4868
56.6714
56.7037
56.6943
56.7002
56.7037
56.6932
56.699
56.7035
56.7115
56.7205
56.7119
56.711
56.7054
56.7127
56.7186
56.7175
56.7174
56.7043
56.7122
56.7217
56.7186
56.7121
56.7063
56.7075
56.6973
56.7032
56.7141
56.7111
56.7106
56.7007
56.7066
56.7089
56.6946
56.7004
56.7073
56.6881
56.6878
56.6972
56.6849
56.6893
56.702
56.6872
56.6901
56.7064
56.7071
56.7041
56.6876
56.691
56.6984
56.681
56.6823
56.6925
56.6922
56.6922
56.6826
56.684
56.6954
56.6988
56.6958
56.6907
56.685
56.6917
56.6935
56.7035
56.7131
56.7132
56.7133
56.7091
56.7085
56.6982
56.7001
56.7038
56.6957
56.7019
56.7098
56.7065
56.6952
56.6974
56.7018
56.702
56.7019
56.6822
56.6844
56.6967
56.696
56.6932
56.6762
55.0865
55.9974
56.4895
56.6688
56.7024
56.7019
56.7003
56.6992
56.6912
56.6918
56.7238
56.7427
56.7346
56.7413
56.7447
56.7383
56.7406
56.7411
56.7397
56.7389
56.74
56.736
56.7224
56.7252
56.7285
56.7262
56.7255
56.7172