/*--------------------------------*- C++ -*----------------------------------*\
  =========                 |
  \\      /  F ield         | OpenFOAM: The Open Source CFD Toolbox
   \\    /   O peration     | Website:  https://openfoam.org
    \\  /    A nd           | Version:  11
     \\/     M anipulation  |
\*---------------------------------------------------------------------------*/
FoamFile
{
    format      ascii;
    class       volScalarField;
    location    "0.038";
    object      p;
}
// * * * * * * * * * * * * * * * * * * * * * * * * * * * * * * * * * * * * * //

dimensions      [0 2 -2 0 0 0 0];

internalField   nonuniform List<scalar> 
287084
(
1.74431
1.46759
1.39926
1.33171
1.26487
1.21373
1.16588
1.12042
1.07669
1.03514
0.994216
0.952287
0.909061
0.865039
0.820738
0.775951
0.730722
0.685135
0.639352
0.593634
0.548172
0.503216
0.459069
0.415957
0.373369
0.333313
0.297895
0.265451
0.23573
0.209007
0.185818
0.162992
0.141883
0.125144
0.111833
0.101506
0.0939393
0.0888371
0.0859195
0.0849281
0.0855802
0.0875838
0.0906999
0.0947125
0.0993412
0.104413
0.109761
0.115179
0.120484
0.125547
0.130001
0.133895
0.138389
0.144011
0.149182
0.151553
0.152235
0.153255
0.155002
0.157565
0.158802
0.157307
0.155672
0.153335
0.148579
0.143924
0.141325
0.140196
0.13833
0.136743
0.134141
0.130306
0.12506
0.118015
0.111892
0.104278
0.0945354
0.0866207
0.0811768
0.0765987
0.069601
0.0636724
0.0582658
0.0483296
0.0404945
0.0363167
0.0288227
0.0183835
0.00835382
0.00269237
1.6109
1.42344
1.36946
1.31429
1.25469
1.2072
1.16153
1.11777
1.07522
1.03355
0.991745
0.94948
0.906487
0.862803
0.818518
0.773612
0.728243
0.682434
0.636455
0.590498
0.544791
0.499643
0.455361
0.412242
0.370417
0.330503
0.293694
0.261639
0.232159
0.203643
0.177872
0.155582
0.136174
0.120083
0.107145
0.0971511
0.0898433
0.0850396
0.0823882
0.0816752
0.082588
0.0848507
0.0882162
0.0924646
0.0973142
0.102594
0.10814
0.11375
0.119277
0.12458
0.129611
0.134225
0.138757
0.142994
0.146518
0.15015
0.153209
0.154381
0.155573
0.157116
0.157399
0.1564
0.154287
0.15167
0.149155
0.146309
0.14381
0.142634
0.140259
0.136785
0.133763
0.129458
0.1235
0.117107
0.110389
0.102728
0.0956561
0.0896531
0.0826402
0.0770781
0.07116
0.0630487
0.0566724
0.0498325
0.0409267
0.0342734
0.0279215
0.0188528
0.0096269
0.00307549
1.58388
1.41516
1.3628
1.30714
1.24999
1.20289
1.15755
1.11411
1.07178
1.03004
0.988194
0.94576
0.902662
0.858811
0.814271
0.769064
0.723281
0.677079
0.630627
0.58419
0.53802
0.49239
0.447698
0.404222
0.362327
0.322614
0.285445
0.251659
0.22054
0.192378
0.167376
0.145314
0.126305
0.110591
0.098043
0.0884805
0.0816886
0.0773587
0.0752484
0.0750576
0.0764997
0.0792892
0.0831663
0.0878789
0.0931907
0.098903
0.104836
0.110814
0.116695
0.12236
0.12773
0.132725
0.137416
0.141887
0.145681
0.148635
0.151162
0.153039
0.154498
0.156194
0.156634
0.155454
0.154141
0.152294
0.149237
0.147318
0.146357
0.143827
0.140676
0.136935
0.13276
0.128044
0.122647
0.116829
0.110458
0.10371
0.0969404
0.0903608
0.0841096
0.0776849
0.0707451
0.0636511
0.0566565
0.0490407
0.0411771
0.0337982
0.0260012
0.0174095
0.00854863
0.00235676
1.53814
1.38311
1.33663
1.28648
1.23526
1.19157
1.14875
1.10702
1.06573
1.02443
0.982642
0.940212
0.896963
0.852863
0.807974
0.762258
0.715946
0.6691
0.621968
0.574808
0.527857
0.481507
0.436091
0.391979
0.349592
0.309345
0.271728
0.237106
0.205662
0.177098
0.151823
0.129921
0.111435
0.0962934
0.0843765
0.0755394
0.069458
0.0659464
0.0646318
0.0652537
0.0674839
0.0710523
0.0756699
0.0810904
0.0870725
0.0934124
0.0999253
0.10645
0.112848
0.118999
0.124836
0.130266
0.13529
0.13985
0.143807
0.147335
0.150314
0.152324
0.153739
0.154922
0.155361
0.154885
0.153834
0.152195
0.150158
0.148069
0.14578
0.142986
0.139839
0.136165
0.132008
0.127322
0.122116
0.116384
0.110312
0.103976
0.0975445
0.0911213
0.0844499
0.0777763
0.0709658
0.0637495
0.056559
0.0491553
0.0414217
0.0337653
0.0257937
0.0173035
0.0085703
0.00248884
1.51488
1.36728
1.32351
1.27473
1.22562
1.18296
1.14093
1.0998
1.05889
1.01769
0.975898
0.933279
0.889722
0.845203
0.799729
0.753366
0.706272
0.658539
0.61051
0.562323
0.514405
0.467036
0.420611
0.37558
0.332307
0.291326
0.252954
0.217675
0.185626
0.156892
0.131718
0.110107
0.0920901
0.0775883
0.06645
0.0584701
0.0533726
0.0508528
0.0505889
0.0522672
0.0555586
0.0601609
0.0657756
0.0721383
0.0790068
0.0861761
0.0934595
0.10069
0.107734
0.11449
0.120855
0.12677
0.132199
0.137118
0.141438
0.14514
0.148176
0.150585
0.15246
0.153696
0.15418
0.153983
0.153209
0.15193
0.150163
0.14805
0.145649
0.142798
0.139452
0.135654
0.131458
0.126783
0.121647
0.116103
0.110245
0.104098
0.0977755
0.0912992
0.0846683
0.0779257
0.0709792
0.0638047
0.0565466
0.0490826
0.0414085
0.0336354
0.0255163
0.0170466
0.0083875
0.00239995
1.49186
1.34683
1.30518
1.25862
1.21219
1.1714
1.13085
1.09073
1.05041
1.00949
0.967674
0.924843
0.88091
0.835798
0.789661
0.742416
0.694368
0.645573
0.59634
0.546953
0.497716
0.449059
0.401391
0.355139
0.310802
0.268786
0.2296
0.193531
0.160987
0.132012
0.106878
0.0855749
0.068127
0.0544261
0.0442406
0.0373805
0.033483
0.0322563
0.0333133
0.0363241
0.0409213
0.0467951
0.0536327
0.0611564
0.0691182
0.0773096
0.0855285
0.0936209
0.101461
0.108931
0.115957
0.122468
0.128417
0.133766
0.138464
0.142504
0.145894
0.148605
0.150671
0.152069
0.152792
0.152862
0.152341
0.151259
0.149665
0.147654
0.145217
0.142324
0.138985
0.135204
0.130998
0.126354
0.121308
0.115883
0.110126
0.104093
0.0978401
0.0913972
0.0847594
0.0779715
0.0710043
0.0638394
0.0565499
0.0490782
0.0414297
0.0336237
0.0255112
0.0170621
0.00835465
0.00238423
1.47407
1.33109
1.29098
1.24552
1.20047
1.16067
1.12088
1.08126
1.04124
1.00035
0.95841
0.915205
0.870719
0.824909
0.77785
0.729578
0.680348
0.630206
0.579612
0.528683
0.477949
0.427744
0.37852
0.330839
0.285101
0.241927
0.201673
0.16484
0.131739
0.102547
0.0775224
0.0566166
0.0398686
0.0270861
0.0180574
0.0125025
0.0100329
0.0103288
0.012942
0.0175239
0.0236823
0.0310689
0.0393631
0.0482627
0.0575115
0.0668995
0.0762276
0.085338
0.0940992
0.102413
0.110191
0.11738
0.123922
0.129795
0.134975
0.139447
0.143201
0.146243
0.14859
0.150249
0.151214
0.151528
0.151228
0.150341
0.148923
0.147007
0.144623
0.141771
0.138461
0.134712
0.130532
0.12594
0.120964
0.11562
0.109952
0.103995
0.0978051
0.0913916
0.0847703
0.0779694
0.0709908
0.0638207
0.0565121
0.0490387
0.0413867
0.0335565
0.0254083
0.0169284
0.00829007
0.00241771
1.45823
1.31598
1.27673
1.23233
1.18837
1.14941
1.11026
1.07112
1.03125
0.990342
0.948077
0.904408
0.859246
0.812545
0.764473
0.714957
0.664353
0.612717
0.560437
0.50782
0.455249
0.40323
0.352235
0.302837
0.255555
0.210948
0.169559
0.131808
0.0981067
0.0687028
0.0437868
0.0233708
0.0074161
-0.00425731
-0.0119375
-0.0159619
-0.0167363
-0.014676
-0.0102414
-0.00384195
0.00410102
0.0132244
0.0231747
0.0336421
0.0443646
0.0551183
0.0657018
0.0759636
0.0857748
0.0950315
0.103664
0.111612
0.118837
0.125313
0.131027
0.135969
0.140147
0.143569
0.146246
0.148197
0.149438
0.149998
0.14992
0.149235
0.147978
0.146195
0.143905
0.141125
0.137877
0.134179
0.130055
0.125519
0.120604
0.115336
0.109737
0.103849
0.0977012
0.0913175
0.0847238
0.0779378
0.0709673
0.0638194
0.0565103
0.0490299
0.0413933
0.0335557
0.0253649
0.0168857
0.00830997
0.00247738
1.44422
1.30248
1.26384
1.22007
1.17677
1.13835
1.0996
1.06063
1.0208
0.97965
0.937019
0.892703
0.84671
0.79901
0.749663
0.69877
0.646557
0.593169
0.539042
0.484414
0.429834
0.375767
0.322724
0.271405
0.222303
0.176144
0.13342
0.094688
0.0603868
0.030732
0.00603544
-0.0138253
-0.028812
-0.0392306
-0.0453888
-0.0476672
-0.0465496
-0.0424896
-0.03601
-0.0275623
-0.0176017
-0.00653658
0.00526735
0.0174893
0.0298431
0.0421095
0.0540875
0.0656209
0.0765915
0.0868956
0.0964658
0.10526
0.113235
0.120377
0.126688
0.132157
0.136797
0.140628
0.143666
0.145943
0.147476
0.148301
0.148457
0.147973
0.146899
0.145256
0.143082
0.140396
0.137233
0.133607
0.129546
0.125078
0.120229
0.115023
0.109486
0.103654
0.0975507
0.0912049
0.0846304
0.0778544
0.0708993
0.0637453
0.0564426
0.048975
0.0413364
0.0335195
0.025415
0.0169983
0.00826292
0.00233032
1.43151
1.29002
1.25178
1.20841
1.16553
1.12741
1.08882
1.04993
1.00996
0.968471
0.925238
0.880177
0.833231
0.784333
0.733643
0.681153
0.627184
0.571878
0.515635
0.45885
0.401962
0.345596
0.290312
0.236815
0.185771
0.137833
0.093697
0.053898
0.0189007
-0.0109318
-0.0354431
-0.0546021
-0.0685366
-0.0775256
-0.0819269
-0.0822496
-0.0789935
-0.0727197
-0.06397
-0.0532731
-0.0411083
-0.0279102
-0.0140833
3.80439e-05
0.0141767
0.0280844
0.0415677
0.0544886
0.066706
0.0781374
0.0887254
0.0984193
0.107204
0.115067
0.122016
0.128046
0.133188
0.137469
0.140902
0.143524
0.145363
0.146463
0.146866
0.146599
0.145701
0.144215
0.142172
0.139601
0.136529
0.132991
0.129008
0.124611
0.119829
0.114684
0.109203
0.103429
0.0973698
0.091058
0.0845168
0.0777657
0.0708269
0.0637063
0.0564091
0.0489397
0.0413237
0.0335106
0.0253122
0.016847
0.00828313
0.00246442
1.41989
1.27856
1.24049
1.19739
1.15473
1.11673
1.07821
1.03914
0.998888
0.956909
0.913025
0.867097
0.819026
0.768845
0.716584
0.662371
0.606446
0.548998
0.4905
0.431271
0.371939
0.313076
0.255314
0.199504
0.14624
0.0964702
0.0507366
0.00981343
-0.0258534
-0.0559001
-0.0800689
-0.0984734
-0.111166
-0.118563
-0.121078
-0.119248
-0.113684
-0.104991
-0.093791
-0.0806419
-0.0660932
-0.0506131
-0.0346102
-0.0184462
-0.00241662
0.0132471
0.0283382
0.0427099
0.0562502
0.0688779
0.080543
0.0911997
0.100839
0.109467
0.117088
0.12372
0.129389
0.134134
0.13798
0.14097
0.143135
0.144522
0.145179
0.145128
0.144427
0.143102
0.141202
0.138754
0.135793
0.132345
0.128445
0.124126
0.119409
0.114326
0.108903
0.103177
0.0971592
0.0908851
0.0843754
0.0776467
0.0707212
0.0636111
0.0563334
0.0488953
0.0412722
0.033447
0.0253061
0.0168641
0.0082545
0.00243173
1.40917
1.26789
1.22996
1.18694
1.14437
1.10635
1.06772
1.02844
0.987706
0.94514
0.900488
0.853528
0.804277
0.752636
0.698735
0.642647
0.584632
0.524917
0.463942
0.40217
0.340127
0.278593
0.21819
0.159836
0.104321
0.0524846
0.00516621
-0.0369654
-0.0733326
-0.103511
-0.127365
-0.144859
-0.15624
-0.161883
-0.162296
-0.15814
-0.15007
-0.138797
-0.124972
-0.109246
-0.0921829
-0.0742806
-0.0559988
-0.0376958
-0.0196732
-0.00218175
0.0145848
0.0304894
0.0454123
0.0592836
0.0720628
0.083715
0.0942488
0.103662
0.111983
0.119234
0.125457
0.130683
0.134958
0.138328
0.140827
0.142508
0.143418
0.143596
0.143091
0.141939
0.140189
0.137874
0.135019
0.131672
0.127857
0.123613
0.118972
0.113953
0.108586
0.102905
0.0969327
0.0907017
0.084221
0.0775191
0.0706077
0.0635222
0.0562355
0.048782
0.0412613
0.0334783
0.0252976
0.0168556
0.0082444
0.0024259
1.39927
1.258
1.22007
1.17712
1.13452
1.09634
1.05755
1.01785
0.976598
0.933336
0.887781
0.839782
0.78918
0.736028
0.680338
0.622252
0.562004
0.499878
0.436319
0.371788
0.306992
0.242582
0.179427
0.118436
0.0604679
0.00657533
-0.0424795
-0.0858024
-0.122849
-0.153168
-0.176534
-0.193079
-0.202961
-0.206731
-0.204945
-0.198326
-0.187641
-0.173645
-0.157086
-0.138651
-0.118963
-0.0985625
-0.0779117
-0.0573939
-0.0373228
-0.0179476
0.000543178
0.0180046
0.0343396
0.0494831
0.0634061
0.0760808
0.0875224
0.0977492
0.106783
0.114669
0.121446
0.12717
0.131882
0.135634
0.138473
0.14045
0.141623
0.142033
0.141728
0.140749
0.139154
0.136966
0.13423
0.130984
0.127261
0.123098
0.11852
0.113569
0.108263
0.102628
0.0966991
0.0904966
0.0840533
0.0773821
0.0705032
0.0634344
0.0561934
0.0487818
0.0411961
0.0333876
0.0252668
0.0168507
0.00822037
0.0024174
1.3901
1.24882
1.21085
1.16785
1.12511
1.08673
1.04766
1.00757
0.965666
0.921629
0.875138
0.825921
0.773973
0.719185
0.661666
0.601498
0.538972
0.474307
0.408066
0.340726
0.272952
0.20566
0.139579
0.0758664
0.0154275
-0.0406357
-0.091384
-0.135934
-0.173629
-0.204007
-0.226889
-0.242349
-0.250699
-0.25247
-0.248346
-0.239161
-0.225741
-0.208942
-0.189568
-0.168368
-0.146005
-0.123051
-0.0999955
-0.0772323
-0.0550891
-0.0338042
-0.0135762
0.00546402
0.0232273
0.0396544
0.0547244
0.0684326
0.080787
0.0918216
0.101572
0.110091
0.117433
0.12365
0.128793
0.132928
0.136106
0.138388
0.139821
0.140458
0.140354
0.139557
0.138112
0.136058
0.133439
0.130295
0.126662
0.122581
0.118075
0.11318
0.107928
0.102343
0.0964564
0.0902975
0.0838818
0.0772325
0.0703791
0.063323
0.0560927
0.0486798
0.0411135
0.0333569
0.0252226
0.0168025
0.00821952
0.00243037
1.38164
1.24034
1.2023
1.1592
1.11631
1.07761
1.03819
0.997569
0.95506
0.910185
0.862681
0.812263
0.758868
0.70242
0.642991
0.580698
0.515772
0.448584
0.379564
0.309328
0.238636
0.168287
0.0993435
0.0328317
-0.0301194
-0.0883226
-0.140783
-0.186512
-0.224815
-0.255206
-0.277493
-0.29182
-0.298495
-0.298223
-0.291722
-0.27991
-0.263728
-0.244092
-0.221875
-0.197896
-0.172848
-0.147336
-0.121878
-0.0968798
-0.0726687
-0.0494912
-0.0275303
-0.0069235
0.012246
0.0299431
0.0461478
0.0608671
0.0741274
0.0859672
0.096429
0.105576
0.113471
0.12018
0.125755
0.130269
0.133783
0.136352
0.138041
0.138904
0.138998
0.13837
0.137078
0.135156
0.132653
0.129614
0.126069
0.122062
0.117624
0.112797
0.107599
0.10206
0.0962163
0.0900864
0.0837075
0.0770911
0.0702612
0.0632355
0.0560284
0.048648
0.0410895
0.0333247
0.0252223
0.0168221
0.00819911
0.00239722
1.37388
1.23253
1.19439
1.15118
1.10801
1.0691
1.02926
0.988038
0.944841
0.899139
0.850582
0.79893
0.744085
0.685967
0.624637
0.560203
0.492935
0.423143
0.351387
0.278265
0.204547
0.131272
0.0593522
-0.00987721
-0.0753163
-0.135633
-0.18975
-0.236604
-0.275444
-0.305787
-0.327432
-0.340563
-0.345579
-0.34321
-0.334306
-0.319875
-0.30093
-0.278478
-0.253457
-0.226731
-0.199035
-0.171018
-0.143204
-0.11601
-0.0897763
-0.0647468
-0.0411003
-0.0189677
0.00158244
0.0205149
0.0378264
0.0535315
0.0676733
0.0802948
0.0914492
0.101201
0.10963
0.116808
0.1228
0.12768
0.131515
0.134372
0.136315
0.137397
0.13768
0.137226
0.136075
0.134283
0.131896
0.128951
0.125493
0.121567
0.117194
0.112418
0.107269
0.101778
0.095977
0.0898847
0.0835317
0.0769419
0.0701338
0.063116
0.0559206
0.0485439
0.0410088
0.0332564
0.0251799
0.0167988
0.00817785
0.00240373
1.36681
1.22544
1.18717
1.1438
1.10039
1.06109
1.02085
0.979131
0.935249
0.888657
0.839075
0.786172
0.729903
0.670107
0.606899
0.540347
0.470731
0.398437
0.323947
0.247993
0.171386
0.0951419
0.0204268
-0.0515109
-0.119331
-0.181672
-0.237359
-0.285244
-0.324564
-0.354776
-0.375744
-0.38764
-0.390953
-0.386519
-0.375249
-0.358256
-0.336631
-0.31145
-0.283713
-0.254337
-0.224103
-0.193665
-0.163588
-0.134294
-0.106123
-0.0793196
-0.0540576
-0.0304611
-0.00859898
0.0115155
0.0298842
0.0465303
0.0615073
0.0748784
0.0866856
0.0970269
0.10597
0.113598
0.11999
0.125222
0.129365
0.13249
0.134668
0.13596
0.136426
0.136129
0.135119
0.133449
0.131169
0.12832
0.124944
0.121085
0.116778
0.112058
0.106959
0.101517
0.0957518
0.0896914
0.0833704
0.0768027
0.0700233
0.0630448
0.0558751
0.0485168
0.0409684
0.0332308
0.0251316
0.016758
0.00818372
0.00240618
1.36047
1.21902
1.18065
1.13712
1.09344
1.05382
1.0132
0.970876
0.926281
0.878865
0.828251
0.774185
0.716502
0.655146
0.590094
0.521548
0.449682
0.374941
0.297868
0.219167
0.139766
0.0607499
-0.0167263
-0.0911573
-0.16128
-0.225487
-0.282628
-0.331451
-0.371141
-0.401197
-0.421415
-0.432119
-0.433785
-0.42736
-0.413831
-0.394386
-0.370208
-0.342436
-0.31213
-0.280253
-0.247615
-0.214904
-0.182696
-0.151425
-0.12143
-0.0929617
-0.0661877
-0.0412239
-0.0181198
0.00310208
0.02246
0.0399922
0.0557556
0.0698146
0.0822404
0.0931247
0.102547
0.110597
0.117358
0.122918
0.127348
0.130727
0.133129
0.134614
0.135252
0.135108
0.134227
0.132673
0.130494
0.127731
0.124431
0.120638
0.116388
0.111721
0.10667
0.10126
0.0955301
0.0894999
0.0832049
0.0766607
0.0698978
0.0629248
0.0557541
0.048414
0.0408876
0.0331695
0.0250848
0.0167743
0.00819244
0.00236881
1.35486
1.21335
1.17483
1.13116
1.08725
1.04719
1.0062
0.963449
0.918151
0.869937
0.818369
0.763165
0.704184
0.641292
0.57456
0.504075
0.43011
0.353113
0.273575
0.192353
0.110344
0.0286874
-0.051257
-0.128087
-0.200228
-0.266203
-0.32461
-0.374235
-0.414248
-0.444047
-0.463585
-0.473079
-0.473188
-0.464871
-0.449233
-0.427521
-0.400986
-0.37083
-0.338165
-0.303989
-0.269146
-0.234352
-0.200188
-0.167105
-0.135437
-0.105443
-0.0772851
-0.0510585
-0.0268304
-0.00459554
0.0156664
0.0340035
0.0504836
0.0651887
0.0781746
0.0895581
0.0994191
0.107855
0.114959
0.120814
0.125512
0.129119
0.131723
0.133387
0.134179
0.134169
0.133412
0.13196
0.129873
0.127189
0.12396
0.120228
0.116034
0.111413
0.106401
0.101033
0.0953371
0.0893382
0.0830667
0.0765422
0.0698038
0.0628621
0.05572
0.0483918
0.0408522
0.0331453
0.0250449
0.0166702
0.0081695
0.00242752
1.34998
1.20843
1.16981
1.12598
1.08179
1.04142
1.00002
0.956809
0.910927
0.861962
0.809529
0.753297
0.693122
0.628885
0.560587
0.488381
0.412512
0.333396
0.251683
0.168105
0.0837547
-0.000252642
-0.0824938
-0.161378
-0.23543
-0.30286
-0.362422
-0.412726
-0.45294
-0.482508
-0.501319
-0.509728
-0.508415
-0.498403
-0.480857
-0.457103
-0.428453
-0.396153
-0.361376
-0.325142
-0.288329
-0.251674
-0.21577
-0.181065
-0.147911
-0.116556
-0.087159
-0.0598226
-0.0345807
-0.0114357
0.00963734
0.0286905
0.0458042
0.0610623
0.0745569
0.0863795
0.0966352
0.105414
0.112819
0.118944
0.123872
0.127687
0.130471
0.132292
0.133226
0.133338
0.132684
0.131328
0.129318
0.126707
0.123539
0.119862
0.115718
0.111138
0.106162
0.10082
0.0951556
0.0891778
0.0829266
0.076426
0.0696928
0.0627511
0.0556155
0.0482949
0.040789
0.0330937
0.0250131
0.0166709
0.00815237
0.00242314
1.3459
1.20428
1.16555
1.12159
1.0772
1.03655
0.994776
0.951118
0.9047
0.855133
0.801908
0.744787
0.683555
0.618083
0.548443
0.474692
0.397138
0.316247
0.232573
0.147003
0.060579
-0.0255053
-0.109677
-0.190427
-0.266008
-0.334762
-0.395227
-0.446061
-0.486449
-0.515729
-0.533928
-0.541356
-0.538757
-0.527257
-0.508057
-0.482538
-0.452064
-0.417929
-0.381333
-0.343332
-0.304825
-0.266576
-0.229166
-0.193075
-0.158641
-0.126113
-0.0956546
-0.0673548
-0.0412521
-0.0173343
0.00442826
0.0241053
0.0417736
0.0575209
0.0714429
0.083651
0.0942393
0.103315
0.110982
0.117336
0.122468
0.126455
0.1294
0.131357
0.132406
0.132622
0.132062
0.130785
0.128851
0.126298
0.123181
0.11955
0.115445
0.1109
0.105956
0.100651
0.095006
0.0890527
0.0828197
0.0763318
0.0696245
0.0627009
0.0555871
0.048289
0.0407715
0.0330897
0.0250062
0.0166503
0.00815246
0.00242968
1.34258
1.20094
1.16211
1.11806
1.07348
1.03256
0.990472
0.946478
0.899648
0.849481
0.795646
0.737743
0.675649
0.6092
0.538405
0.4634
0.384466
0.302006
0.216745
0.129459
0.0413347
-0.0464535
-0.13225
-0.214466
-0.291395
-0.361111
-0.422301
-0.473585
-0.514048
-0.543107
-0.56073
-0.567326
-0.563703
-0.550961
-0.5304
-0.503426
-0.471449
-0.435795
-0.397706
-0.358256
-0.318364
-0.278796
-0.240162
-0.202925
-0.16744
-0.133954
-0.10262
-0.0735353
-0.0467191
-0.0221676
0.000172234
0.0203586
0.0384751
0.0546166
0.0688979
0.0814134
0.0922798
0.101598
0.109477
0.116017
0.121309
0.125447
0.128512
0.130582
0.13173
0.132032
0.131546
0.130336
0.128453
0.125954
0.122885
0.11929
0.11522
0.110704
0.105787
0.100497
0.094875
0.0889371
0.0827178
0.0762517
0.0695439
0.062626
0.0555195
0.0482113
0.0407148
0.0330309
0.0249601
0.0166213
0.00813236
0.00243715
1.34009
1.19841
1.1595
1.11538
1.07066
1.02963
0.987258
0.942905
0.895721
0.845203
0.790815
0.732367
0.669566
0.602314
0.530654
0.454658
0.37462
0.29105
0.204511
0.115958
0.0265121
-0.0626072
-0.149634
-0.233018
-0.311017
-0.38141
-0.443087
-0.494653
-0.535221
-0.564061
-0.581265
-0.587224
-0.582751
-0.569074
-0.54746
-0.519375
-0.486252
-0.449451
-0.410219
-0.36966
-0.328709
-0.288144
-0.248565
-0.210461
-0.174174
-0.139952
-0.107953
-0.078262
-0.0509045
-0.0258636
-0.00309112
0.0174876
0.0359454
0.0523938
0.0669419
0.0796995
0.0907722
0.10028
0.108322
0.115005
0.120428
0.124672
0.127839
0.129991
0.131215
0.131583
0.131157
0.129993
0.128157
0.125695
0.122656
0.119095
0.115044
0.110555
0.105656
0.100387
0.0947763
0.0888569
0.0826529
0.0761919
0.0695034
0.0625923
0.0555015
0.0482108
0.0407164
0.0330492
0.0249727
0.0166172
0.00812704
0.00243424
1.33842
1.1967
1.15774
1.11356
1.06876
1.02752
0.98503
0.940596
0.893132
0.842258
0.787582
0.728692
0.665456
0.597696
0.525416
0.448758
0.367993
0.283581
0.196197
0.106748
0.0163816
-0.0736017
-0.161526
-0.24563
-0.324515
-0.395187
-0.456978
-0.508887
-0.549554
-0.578258
-0.595137
-0.600645
-0.595645
-0.581312
-0.558989
-0.530148
-0.496253
-0.458669
-0.418668
-0.377364
-0.335697
-0.294452
-0.254242
-0.215548
-0.178719
-0.144004
-0.111553
-0.0814535
-0.0537321
-0.0283692
-0.00530428
0.015533
0.0342267
0.050884
0.0656256
0.078546
0.0897656
0.099394
0.107547
0.114324
0.119831
0.124153
0.127381
0.129592
0.130865
0.131277
0.130887
0.12976
0.127951
0.125514
0.122501
0.118956
0.114931
0.110456
0.105569
0.10031
0.0947103
0.0888019
0.0825979
0.0761485
0.0694594
0.0625541
0.0554568
0.0481631
0.0406836
0.0330101
0.0249767
0.0166772
0.00811515
0.00235945
1.33758
1.19584
1.15687
1.11265
1.0678
1.02647
0.98395
0.939434
0.891799
0.840809
0.785916
0.726851
0.663354
0.595303
0.522738
0.445728
0.364592
0.279804
0.191988
0.102104
0.011281
-0.0791605
-0.167536
-0.252098
-0.331371
-0.402493
-0.463982
-0.51582
-0.556731
-0.585358
-0.602116
-0.607414
-0.602118
-0.587466
-0.564789
-0.535572
-0.501287
-0.463311
-0.422925
-0.381244
-0.339214
-0.297632
-0.257104
-0.218112
-0.181013
-0.14605
-0.11337
-0.0830651
-0.0551537
-0.0296171
-0.00640865
0.014559
0.0333643
0.0501258
0.0649571
0.077957
0.0892476
0.0989434
0.107152
0.113979
0.119527
0.123884
0.127146
0.129386
0.130688
0.131122
0.130753
0.129639
0.127851
0.125426
0.122422
0.118892
0.114867
0.1104
0.105521
0.100269
0.0946739
0.0887669
0.0825766
0.0761319
0.0694525
0.0625483
0.0554572
0.0481725
0.0406869
0.0330226
0.024948
0.0166033
0.00812854
0.00242882
1.33757
1.19583
1.15686
1.11263
1.0678
1.02645
0.983934
0.939419
0.89179
0.840784
0.785909
0.726844
0.663339
0.595322
0.522735
0.445734
0.364601
0.279789
0.191975
0.102088
0.0112638
-0.0791749
-0.167547
-0.25209
-0.331355
-0.402461
-0.463986
-0.515823
-0.556724
-0.585356
-0.602099
-0.607394
-0.602102
-0.58745
-0.564773
-0.535552
-0.501271
-0.4633
-0.422918
-0.381234
-0.339206
-0.297624
-0.257096
-0.21811
-0.181005
-0.146041
-0.113365
-0.0830594
-0.0551554
-0.0296271
-0.00641645
0.0145522
0.0333606
0.0501202
0.0649555
0.077955
0.0892478
0.0989444
0.107151
0.113975
0.119531
0.123889
0.127147
0.129386
0.130684
0.131119
0.130746
0.129635
0.127844
0.125421
0.122418
0.118889
0.114869
0.110397
0.105518
0.100265
0.0946731
0.0887658
0.0825713
0.0761278
0.0694401
0.0625367
0.055446
0.0481504
0.0406686
0.0329916
0.0249318
0.0166118
0.0081276
0.00242764
1.33839
1.19667
1.15772
1.11354
1.06873
1.02747
0.985012
0.940598
0.893115
0.842242
0.787553
0.728658
0.665431
0.597633
0.525383
0.44872
0.367946
0.283573
0.19618
0.106756
0.0163833
-0.0735941
-0.161509
-0.245634
-0.324507
-0.395216
-0.456939
-0.508848
-0.549501
-0.578206
-0.595098
-0.600607
-0.595601
-0.581268
-0.558948
-0.530108
-0.496211
-0.458635
-0.418639
-0.377336
-0.335673
-0.294428
-0.254227
-0.215537
-0.178711
-0.143998
-0.111549
-0.0814518
-0.053728
-0.0283593
-0.0052918
0.015544
0.0342292
0.0508815
0.0656168
0.0785329
0.0897531
0.0993848
0.107538
0.114315
0.119822
0.124144
0.127369
0.12958
0.130857
0.131266
0.130878
0.129746
0.127941
0.125505
0.12249
0.118951
0.114918
0.110443
0.105556
0.100297
0.0947009
0.0887883
0.0825926
0.0761409
0.0694611
0.0625582
0.0554651
0.0481802
0.04069
0.0330151
0.024935
0.016574
0.00813001
0.00245094
1.34004
1.19836
1.15946
1.11532
1.0706
1.02953
0.987186
0.942916
0.895709
0.845149
0.790778
0.732323
0.669513
0.602297
0.530621
0.454625
0.374612
0.291002
0.204483
0.115928
0.0264773
-0.0626129
-0.14965
-0.23299
-0.311013
-0.381351
-0.443022
-0.494603
-0.535147
-0.564002
-0.581177
-0.587148
-0.582675
-0.569
-0.547394
-0.519307
-0.486191
-0.449395
-0.41017
-0.369616
-0.328669
-0.288109
-0.248536
-0.210439
-0.174155
-0.139938
-0.107946
-0.0782566
-0.0509048
-0.0258679
-0.00309606
0.0174776
0.0359323
0.0523769
0.0669296
0.0796853
0.0907618
0.100269
0.108312
0.114993
0.120416
0.124663
0.127824
0.129978
0.131201
0.131566
0.131134
0.129972
0.128134
0.125674
0.12264
0.119077
0.115029
0.110535
0.10564
0.100368
0.09476
0.0888428
0.0826378
0.0761806
0.0694883
0.0625787
0.0554819
0.0481797
0.040703
0.0330171
0.0249994
0.0166917
0.00810135
0.00236533
1.34252
1.20087
1.16203
1.11799
1.0734
1.03247
0.990412
0.946436
0.899602
0.84943
0.795591
0.737681
0.675598
0.609126
0.538341
0.463345
0.384388
0.301992
0.216702
0.129455
0.0413193
-0.0464515
-0.13223
-0.214458
-0.291347
-0.361088
-0.422229
-0.473521
-0.513962
-0.543019
-0.56064
-0.567233
-0.563612
-0.550864
-0.530306
-0.503334
-0.471356
-0.435718
-0.397634
-0.358189
-0.318309
-0.278749
-0.240125
-0.202895
-0.167418
-0.133939
-0.102608
-0.0735298
-0.0467165
-0.02217
0.000161762
0.0203481
0.0384583
0.054596
0.0688774
0.0813922
0.092259
0.101579
0.109457
0.115995
0.121289
0.125427
0.128491
0.13056
0.131709
0.132007
0.131524
0.130306
0.128426
0.125929
0.122859
0.119267
0.11519
0.110679
0.105766
0.100478
0.0948529
0.0889171
0.0827037
0.076234
0.0695369
0.0626217
0.0555223
0.0482229
0.0407256
0.0330548
0.0249813
0.0166352
0.00812534
0.00241754
1.3458
1.2042
1.16545
1.12149
1.07709
1.03636
0.994652
0.95111
0.904676
0.855047
0.801835
0.744704
0.683472
0.61802
0.548375
0.47463
0.397098
0.316179
0.232535
0.146954
0.0605505
-0.025506
-0.109684
-0.190381
-0.265982
-0.334694
-0.395142
-0.44599
-0.486324
-0.515636
-0.533791
-0.541235
-0.538631
-0.527138
-0.507951
-0.482432
-0.451963
-0.417836
-0.381248
-0.343257
-0.30476
-0.266521
-0.229119
-0.193038
-0.158614
-0.126095
-0.0956459
-0.0673529
-0.0412545
-0.0173456
0.00441547
0.0240863
0.0417468
0.0574917
0.0714192
0.0836236
0.0942122
0.103293
0.110961
0.117313
0.122438
0.126431
0.129371
0.131331
0.132381
0.132592
0.132028
0.130748
0.12881
0.126263
0.123151
0.11952
0.115411
0.110866
0.105926
0.100613
0.0949701
0.0890184
0.0827897
0.0763124
0.0695974
0.0626767
0.0555647
0.0482542
0.0407549
0.0330609
0.0250025
0.0166765
0.00813271
0.00238712
1.34988
1.20832
1.16968
1.12587
1.08167
1.0413
0.999917
0.956724
0.910837
0.861865
0.809439
0.753203
0.693038
0.628791
0.560491
0.48829
0.412417
0.333347
0.25162
0.168076
0.083722
-0.00027706
-0.082457
-0.161387
-0.235345
-0.302838
-0.362323
-0.412637
-0.452831
-0.482385
-0.501206
-0.509589
-0.508291
-0.498259
-0.480725
-0.456974
-0.428321
-0.39604
-0.361271
-0.325051
-0.288254
-0.25161
-0.215716
-0.181022
-0.147882
-0.116537
-0.0871498
-0.0598219
-0.0345866
-0.0114566
0.00960419
0.028662
0.0457738
0.0610292
0.0745263
0.0863524
0.0966041
0.105385
0.112789
0.118912
0.123838
0.127652
0.130438
0.132258
0.133191
0.1333
0.132649
0.131285
0.129276
0.126665
0.123499
0.119822
0.115672
0.111099
0.106126
0.10079
0.0951174
0.089146
0.0828989
0.0764016
0.0696759
0.0627417
0.0556137
0.0482943
0.0407775
0.0330832
0.024981
0.0166113
0.00815644
0.00246131
1.35473
1.21322
1.17468
1.13104
1.08709
1.04706
1.00611
0.963299
0.918045
0.869799
0.818249
0.763053
0.704068
0.641192
0.574468
0.503977
0.430049
0.353021
0.273535
0.192291
0.110298
0.0286855
-0.0512778
-0.128036
-0.20021
-0.266126
-0.324525
-0.374156
-0.414113
-0.443929
-0.463428
-0.472927
-0.473035
-0.464727
-0.449102
-0.427397
-0.400865
-0.370719
-0.338064
-0.303898
-0.269065
-0.234292
-0.200133
-0.167057
-0.135404
-0.105421
-0.0772762
-0.0510639
-0.0268346
-0.00460488
0.0156474
0.0339774
0.0504513
0.0651428
0.0781309
0.0895126
0.0993725
0.107813
0.114919
0.120776
0.125467
0.129081
0.131684
0.133348
0.134144
0.134129
0.133364
0.131915
0.129821
0.127137
0.123909
0.12018
0.115985
0.111364
0.106353
0.100981
0.0952866
0.0892868
0.0830244
0.076509
0.069765
0.0628181
0.0556807
0.0483507
0.040832
0.0331236
0.0250086
0.0166334
0.0081621
0.00245956
1.36035
1.21887
1.18046
1.137
1.0933
1.05365
1.01303
0.970763
0.926162
0.878725
0.828137
0.774044
0.716396
0.655014
0.589985
0.521419
0.449573
0.374844
0.297789
0.219094
0.139728
0.0606948
-0.0167093
-0.0911773
-0.161211
-0.225457
-0.282526
-0.331355
-0.371037
-0.401062
-0.421301
-0.431963
-0.43365
-0.4272
-0.413676
-0.39424
-0.370061
-0.342305
-0.312015
-0.280147
-0.247526
-0.214833
-0.182638
-0.151374
-0.121398
-0.0929391
-0.0661813
-0.0412274
-0.0181344
0.00307624
0.0224223
0.0399504
0.0557119
0.0697677
0.0821927
0.093077
0.102498
0.110548
0.117312
0.122869
0.127303
0.130679
0.133083
0.134566
0.135206
0.135056
0.134177
0.132615
0.130435
0.127672
0.124371
0.120578
0.116326
0.111665
0.106614
0.10121
0.0954801
0.0894567
0.0831652
0.0766311
0.0698671
0.0629003
0.0557422
0.0484032
0.0408723
0.0331566
0.0251099
0.0167737
0.00815214
0.00235741
1.36665
1.22528
1.18699
1.14366
1.10022
1.06097
1.02074
0.978956
0.935069
0.888501
0.838897
0.786047
0.729734
0.669981
0.606771
0.540221
0.470645
0.398329
0.323868
0.247924
0.171312
0.0951173
0.0204014
-0.0515084
-0.119297
-0.181638
-0.237279
-0.285166
-0.324449
-0.354656
-0.375597
-0.38748
-0.390809
-0.386366
-0.375107
-0.358119
-0.336501
-0.311332
-0.283609
-0.254244
-0.224018
-0.193606
-0.163532
-0.134251
-0.10609
-0.0793018
-0.0540587
-0.0304714
-0.00861624
0.0114917
0.0298489
0.0464889
0.0614605
0.0748215
0.0866298
0.0969701
0.105908
0.113537
0.119934
0.125168
0.12931
0.132438
0.13462
0.135908
0.136376
0.136074
0.135059
0.133388
0.131102
0.12825
0.124875
0.121015
0.116707
0.11199
0.106889
0.101449
0.0956885
0.0896343
0.0833173
0.0767562
0.0699752
0.0629932
0.0558241
0.0484681
0.0409273
0.0331973
0.025068
0.0166757
0.00818909
0.00246107
1.37371
1.23236
1.19422
1.15099
1.10786
1.06886
1.02905
0.987903
0.944683
0.898976
0.850426
0.798777
0.743936
0.685821
0.624483
0.56007
0.492781
0.423026
0.351284
0.278144
0.204506
0.131174
0.0593476
-0.00991466
-0.0752793
-0.135615
-0.189664
-0.236524
-0.275348
-0.305665
-0.327323
-0.340423
-0.345443
-0.343057
-0.33416
-0.319737
-0.300796
-0.278354
-0.253347
-0.226631
-0.198951
-0.170948
-0.143149
-0.115965
-0.0897493
-0.0647328
-0.0411061
-0.0189822
0.00155897
0.0204798
0.0377818
0.0534776
0.0676173
0.080232
0.0913809
0.101133
0.109565
0.116743
0.122736
0.127618
0.131458
0.134314
0.136257
0.137341
0.137624
0.137161