/*--------------------------------*- C++ -*----------------------------------*\
  =========                 |
  \\      /  F ield         | OpenFOAM: The Open Source CFD Toolbox
   \\    /   O peration     | Website:  https://openfoam.org
    \\  /    A nd           | Version:  11
     \\/     M anipulation  |
\*---------------------------------------------------------------------------*/
FoamFile
{
    format      ascii;
    class       volScalarField;
    location    "0.094";
    object      k;
}
// * * * * * * * * * * * * * * * * * * * * * * * * * * * * * * * * * * * * * //

dimensions      [0 2 -2 0 0 0 0];

internalField   nonuniform List<scalar> 
287084
(
0.381688
0.393904
0.406536
0.419408
0.43071
0.438929
0.443597
0.445263
0.445437
0.445429
0.445422
0.445299
0.445274
0.445372
0.445367
0.44547
0.445578
0.445493
0.445557
0.445592
0.445564
0.445536
0.445431
0.4456
0.445799
0.445821
0.445787
0.445716
0.445632
0.445613
0.44572
0.445717
0.44559
0.445624
0.445655
0.445597
0.445567
0.44557
0.445573
0.445539
0.44551
0.445462
0.445357
0.445302
0.44522
0.445161
0.445122
0.445059
0.445019
0.444941
0.444757
0.444605
0.444698
0.444797
0.444788
0.444753
0.444772
0.44478
0.444738
0.444601
0.444614
0.444713
0.444703
0.444665
0.444606
0.444833
0.444977
0.444944
0.44487
0.44479
0.444877
0.444952
0.444908
0.444778
0.444733
0.444814
0.44477
0.444871
0.445017
0.44502
0.44502
0.444963
0.444854
0.444899
0.445076
0.445001
0.445072
0.445107
0.445051
0.444829
0.38169
0.393905
0.406394
0.419154
0.430457
0.438836
0.443768
0.445518
0.445689
0.445759
0.446
0.445893
0.445959
0.446137
0.446122
0.446126
0.446121
0.446067
0.446026
0.446007
0.445963
0.44582
0.445838
0.446138
0.446124
0.446246
0.446351
0.446269
0.446295
0.446308
0.446273
0.446193
0.446158
0.446083
0.445838
0.445851
0.445902
0.445891
0.445883
0.44565
0.445663
0.445721
0.445723
0.445722
0.445678
0.445658
0.445507
0.445386
0.445467
0.445583
0.445574
0.445575
0.445527
0.445503
0.445474
0.44547
0.445465
0.445409
0.445372
0.445344
0.445285
0.44509
0.445123
0.44539
0.445404
0.445357
0.445195
0.445231
0.445396
0.445379
0.445377
0.445274
0.445349
0.445532
0.445578
0.445549
0.445468
0.445459
0.445444
0.445295
0.445303
0.445384
0.445369
0.445368
0.445286
0.445278
0.445241
0.445299
0.445314
0.445155
0.38169
0.393911
0.406345
0.419169
0.430442
0.438677
0.443689
0.44574
0.446073
0.446079
0.446077
0.445915
0.44595
0.446037
0.446031
0.446028
0.445849
0.445884
0.446211
0.446245
0.44623
0.446226
0.44606
0.446108
0.446297
0.446262
0.446262
0.446256
0.446254
0.446223
0.44622
0.446177
0.44618
0.446125
0.44609
0.4461
0.446136
0.446104
0.44608
0.446067
0.445986
0.44578
0.445571
0.445574
0.445625
0.445608
0.445597
0.445411
0.445392
0.44549
0.445513
0.445527
0.445496
0.445465
0.445437
0.445427
0.445397
0.445406
0.445409
0.445343
0.445148
0.445104
0.445236
0.445306
0.445267
0.445106
0.44516
0.445415
0.445338
0.445432
0.4455
0.445487
0.445474
0.445479
0.445488
0.445461
0.445452
0.445259
0.445208
0.445242
0.445257
0.445228
0.445159
0.445187
0.44515
0.445254
0.445482
0.445462
0.445425
0.445209
0.381684
0.393876
0.406381
0.41916
0.430363
0.438595
0.443625
0.445792
0.446152
0.446131
0.446081
0.446148
0.446244
0.446241
0.44624
0.446176
0.446159
0.445979
0.445998
0.446153
0.446081
0.446084
0.446082
0.445962
0.445962
0.446136
0.446151
0.446124
0.446108
0.44595
0.446005
0.446183
0.446043
0.446122
0.446187
0.446159
0.446149
0.44615
0.446149
0.446094
0.446103
0.446026
0.445998
0.44599
0.445944
0.445745
0.445625
0.445561
0.445531
0.445476
0.445285
0.445302
0.445377
0.445356
0.445331
0.445343
0.445367
0.44533
0.445267
0.445188
0.445317
0.445381
0.445372
0.445375
0.44535
0.44528
0.445251
0.445247
0.445159
0.445217
0.445424
0.445348
0.445421
0.445459
0.445435
0.445431
0.445307
0.445301
0.445298
0.445423
0.445571
0.445556
0.445551
0.445429
0.445447
0.44552
0.445476
0.445488
0.445467
0.445237
0.381683
0.393861
0.406422
0.419087
0.430321
0.438739
0.443456
0.445665
0.446182
0.446183
0.446145
0.445966
0.446009
0.446109
0.446004
0.446012
0.445999
0.445895
0.445867
0.44601
0.446074
0.44603
0.445874
0.445898
0.446095
0.44605
0.446061
0.446062
0.445979
0.44604
0.446156
0.445993
0.446054
0.446118
0.446115
0.446114
0.446051
0.445898
0.445849
0.445879
0.445788
0.445868
0.445903
0.445802
0.445829
0.445839
0.445763
0.445792
0.445798
0.445743
0.445737
0.445711
0.445707
0.445632
0.445577
0.445539
0.44546
0.445279
0.445077
0.445132
0.44524
0.445204
0.445215
0.445222
0.445225
0.445167
0.445008
0.444969
0.445166
0.445256
0.445218
0.445082
0.445083
0.445329
0.445308
0.445427
0.445572
0.445406
0.445458
0.445557
0.445417
0.445497
0.445556
0.445541
0.445533
0.445323
0.445354
0.445425
0.445383
0.445239
0.381683
0.39388
0.406366
0.419075
0.430444
0.438697
0.443387
0.445236
0.44603
0.446054
0.44592
0.445988
0.446048
0.446043
0.446041
0.445943
0.445847
0.445908
0.446142
0.44613
0.446118
0.446117
0.446071
0.445931
0.445973
0.446042
0.445945
0.445903
0.446069
0.446211
0.446071
0.44615
0.446206
0.446191
0.446189
0.44614
0.446107
0.445923
0.445815
0.44576
0.445605
0.44565
0.44573
0.445691
0.445678
0.445652
0.445643
0.445565
0.445428
0.445354
0.445401
0.445467
0.445436
0.445336
0.445303
0.445403
0.445455
0.445437
0.445448
0.44543
0.445389
0.445255
0.445288
0.445327
0.445296
0.44525
0.445161
0.445226
0.445223
0.445345
0.445552
0.445543
0.445549
0.445542
0.445486
0.445328
0.445261
0.445305
0.44527
0.445386
0.445489
0.445489
0.445488
0.445355
0.445342
0.445275
0.445363
0.445476
0.445437
0.445296
0.381679
0.39386
0.406386
0.419035
0.430514
0.438586
0.443371
0.445522
0.445976
0.446
0.44597
0.445958
0.445814
0.445858
0.446025
0.44592
0.446022
0.446462
0.446494
0.446407
0.44649
0.446584
0.446583
0.446584
0.446518
0.446505
0.446354
0.446391
0.446422
0.446358
0.446355
0.446361
0.446357
0.446273
0.446147
0.446135
0.446097
0.446053
0.446019
0.445833
0.445831
0.445852
0.445823
0.445822
0.445768
0.44569
0.445642
0.445625
0.445608
0.445609
0.44559
0.44551
0.445356
0.445294
0.445309
0.445294
0.445304
0.445288
0.445125
0.445137
0.445276
0.445266
0.445299
0.445317
0.445286
0.445141
0.445114
0.445251
0.445333
0.445293
0.445142
0.445173
0.445291
0.445287
0.445299
0.445236
0.445266
0.445242
0.445317
0.445341
0.445316
0.445248
0.445307
0.445508
0.445506
0.44546
0.445275
0.445313
0.445407
0.445219
0.381706
0.393816
0.406397
0.419194
0.430272
0.438463
0.443478
0.445958
0.446574
0.446575
0.446507
0.446473
0.446508
0.446532
0.446535
0.446436
0.446536
0.446629
0.446619
0.446615
0.446511
0.446493
0.44638
0.446448
0.446597
0.446476
0.446563
0.446624
0.446582
0.446576
0.446502
0.446498
0.4465
0.446481
0.446472
0.446469
0.446461
0.446415
0.446173
0.446036
0.445919
0.445917
0.445928
0.445911
0.445907
0.445824
0.445821
0.445795
0.445749
0.445704
0.445672
0.445614
0.445414
0.44543
0.445536
0.445532
0.445524
0.445411
0.44538
0.445336
0.44544
0.445572
0.445476
0.445539
0.445615
0.445608
0.445606
0.445527
0.4455
0.445385
0.445224
0.445327
0.445527
0.445521
0.445509
0.445386
0.44532
0.445463
0.445595
0.445519
0.445513
0.445513
0.445488
0.44538
0.445405
0.445502
0.445422
0.445416
0.44541
0.445242
0.381686
0.393867
0.406342
0.419141
0.430378
0.438572
0.443454
0.445577
0.445981
0.445978
0.445945
0.445767
0.445796
0.446094
0.44606
0.446168
0.44631
0.446169
0.446142
0.446304
0.446329
0.446438
0.446606
0.446478
0.446434
0.44646
0.446405
0.446499
0.446641
0.446492
0.44657
0.446637
0.446627
0.446624
0.446564
0.44655
0.446471
0.446452
0.446393
0.446279
0.446086
0.445971
0.445879
0.445644
0.445565
0.445604
0.445483
0.445519
0.445651
0.445599
0.445607
0.445611
0.445587
0.445616
0.445626
0.445586
0.445535
0.445338
0.445284
0.445316
0.445308
0.445201
0.445176
0.44527
0.445226
0.445301
0.44534
0.44529
0.445286
0.445186
0.445316
0.445536
0.445479
0.445466
0.445443
0.445441
0.445419
0.445342
0.445338
0.445334
0.445457
0.445695
0.445673
0.445675
0.445683
0.445689
0.44566
0.445626
0.445549
0.445287
0.381747
0.39379
0.406333
0.419167
0.430379
0.438586
0.443465
0.445394
0.445661
0.445568
0.445637
0.446013
0.446061
0.446018
0.445913
0.445869
0.445997
0.446231
0.446231
0.446258
0.446224
0.446174
0.446166
0.446018
0.446101
0.446252
0.446214
0.446211
0.446126
0.446127
0.446113
0.446221
0.446261
0.446204
0.446196
0.446197
0.446195
0.446123
0.446097
0.446022
0.445775
0.44577
0.445789
0.44578
0.445779
0.445744
0.44573
0.445635
0.445598
0.445535
0.445401
0.445262
0.445148
0.445116
0.445077
0.444937
0.444988
0.445036
0.444959
0.444888
0.445006
0.445282
0.445196
0.445273
0.445319
0.445308
0.445303
0.445137
0.44511
0.445246
0.445301
0.445311
0.445279
0.445223
0.445223
0.445223
0.445199
0.445092
0.445216
0.445462
0.445456
0.445448
0.445264
0.44525
0.445401
0.445362
0.445465
0.445542
0.445495
0.445325
0.381705
0.393844
0.40637
0.419112
0.430341
0.438611
0.44354
0.44543
0.44565
0.445712
0.445892
0.4459
0.445899
0.445775
0.445835
0.445904
0.445795
0.445871
0.446128
0.446117
0.446332
0.446572
0.446599
0.446567
0.446493
0.446473
0.446337
0.446256
0.446371
0.446418
0.446391
0.446382
0.44629
0.44624
0.446091
0.446149
0.446208
0.446023
0.446063
0.44613
0.446125
0.446123
0.446058
0.446049
0.446001
0.445921
0.445676
0.445348
0.445284
0.445276
0.445128
0.445172
0.445286
0.445216
0.445255
0.445261
0.445244
0.445253
0.445215
0.445058
0.445097
0.44527
0.445306
0.445274
0.445114
0.445191
0.445302
0.445303
0.445302
0.445123
0.445173
0.445252
0.445084
0.44507
0.445299
0.445411
0.44541
0.445407
0.445225
0.445207
0.445294
0.44522
0.445207
0.44542
0.445558
0.445484
0.44553
0.445547
0.445496
0.445304
0.381676
0.393868
0.406369
0.419101
0.430397
0.438548
0.443432
0.445678
0.44617
0.446197
0.446169
0.446145
0.446032
0.446123
0.446359
0.446235
0.446324
0.446412
0.446354
0.44636
0.446311
0.446479
0.446618
0.446584
0.446583
0.446478
0.446577
0.446684
0.446606
0.446645
0.4467
0.446682
0.446688
0.446655
0.446619
0.446567
0.446496
0.446454
0.446419
0.446384
0.446341
0.446223
0.446133
0.445957
0.445743
0.445566
0.445499
0.445461
0.44543
0.445388
0.445314
0.445104
0.445113
0.445257
0.445389
0.445368
0.4452
0.445261
0.445375
0.4453
0.445323
0.445337
0.445302
0.445137
0.445082
0.445287
0.445395
0.445383
0.445382
0.445247
0.445323
0.445462
0.44546
0.445456
0.445294
0.445358
0.445441
0.44543
0.445426
0.445263
0.44532
0.445445
0.445417
0.445316
0.445295
0.44541
0.445416
0.445417
0.445413
0.445268
0.381719
0.393788
0.406427
0.419175
0.430249
0.438458
0.4436
0.445785
0.4461
0.446065
0.446206
0.446387
0.446378
0.446322
0.446327
0.446255
0.446291
0.446651
0.446721
0.446682
0.446543
0.446572
0.446699
0.446548
0.44657
0.446737
0.44664
0.446714
0.446839
0.446666
0.446721
0.446774
0.446758
0.446754
0.446709
0.446675
0.446551
0.446456
0.446391
0.446328
0.446198
0.446107
0.446044
0.445996
0.445938
0.445814
0.445721
0.445497
0.445383
0.445435
0.445491
0.445475
0.445487
0.445457
0.445429
0.445397
0.445357
0.445352
0.445356
0.445355
0.445272
0.445236
0.445152
0.445249
0.445411
0.445394
0.445392
0.445374
0.445373
0.445321
0.44522
0.445292
0.445465
0.445455
0.445441
0.445253
0.445231
0.445462
0.445529
0.445512
0.445507
0.445376
0.445396
0.445493
0.445449
0.445477
0.445494
0.445476
0.445439
0.445253
0.381698
0.393868
0.406334
0.419058
0.43051
0.438572
0.443403
0.445365
0.445619
0.445633
0.445651
0.445544
0.445593
0.445789
0.445828
0.445822
0.445748
0.44585
0.446157
0.446272
0.446211
0.44621
0.446152
0.44617
0.446516
0.446715
0.446546
0.446513
0.446565
0.446488
0.446561
0.446638
0.446555
0.446531
0.446502
0.446495
0.446465
0.446338
0.446187
0.446096
0.445931
0.445773
0.445722
0.445592
0.445589
0.445591
0.44555
0.445431
0.445443
0.445584
0.445591
0.445561
0.445558
0.445533
0.44549
0.445395
0.445338
0.445286
0.445121
0.445189
0.44531
0.445311
0.44531
0.445146
0.445167
0.445246
0.445207
0.445213
0.445209
0.445111
0.445087
0.445325
0.445462
0.445435
0.445447
0.445455
0.445467
0.445427
0.445406
0.445361
0.44521
0.445271
0.445575
0.445559
0.445564
0.445565
0.445556
0.445562
0.445512
0.445341
0.381704
0.393823
0.406382
0.419207
0.430269
0.438399
0.443587
0.445875
0.446295
0.446393
0.446429
0.446383
0.446381
0.446371
0.446316
0.446406
0.446483
0.446395
0.446476
0.446516
0.446426
0.446417
0.446635
0.44676
0.446654
0.44677
0.446936
0.446749
0.446806
0.446869
0.446668
0.446718
0.446741
0.446628
0.446567
0.446567
0.446583
0.446551
0.44654
0.446458
0.446359
0.446245
0.446001
0.445767
0.445575
0.445481
0.445437
0.445368
0.445269
0.445204
0.445175
0.445192
0.445191
0.445096
0.445089
0.445036
0.445112
0.445337
0.445321
0.445321
0.445304
0.445184
0.445231
0.445389
0.445372
0.4453
0.445331
0.445527
0.44553
0.445494
0.445307
0.445301
0.445424
0.445455
0.44541
0.445219
0.445236
0.4455
0.445538
0.445517
0.445528
0.445476
0.445279
0.445305
0.4455
0.445517
0.445489
0.445478
0.445431
0.445194
0.381671
0.393893
0.406419
0.419013
0.430443
0.438525
0.443409
0.445645
0.44611
0.44611
0.4461
0.446016
0.446031
0.446041
0.445987
0.445966
0.446134
0.44631
0.446294
0.446227
0.446269
0.446332
0.446219
0.446335
0.446542
0.446377
0.446384
0.446616
0.446677
0.44665
0.446644
0.446582
0.446424
0.446375
0.446319
0.446201
0.446164
0.446136
0.446088
0.446046
0.44601
0.445965
0.44595
0.445895
0.44587
0.445875
0.445862
0.445746
0.445696
0.445582
0.445291
0.445129
0.445181
0.445212
0.445173
0.445049
0.445074
0.445136
0.445109
0.445466
0.445719
0.445728
0.445731
0.445682
0.445646
0.445436
0.445422
0.445556
0.445493
0.445585
0.44565
0.445565
0.445607
0.445666
0.445642
0.445607
0.445438
0.445328
0.445373
0.445437
0.445397
0.44526
0.445353
0.445533
0.445518
0.445498
0.44544
0.44542
0.445381
0.445269
0.381693
0.393842
0.406375
0.419216
0.430308
0.438338
0.443457
0.446049
0.446652
0.446657
0.446654
0.44659
0.446595
0.446523
0.446519
0.446718
0.446802
0.446784
0.446784
0.446639
0.446645
0.446783
0.446848
0.446822
0.446688
0.446742
0.446853
0.446905
0.446873
0.446716
0.446783
0.446804
0.446722
0.446707
0.446683
0.446691
0.446666
0.446634
0.446559
0.446485
0.446415
0.446319
0.446114
0.445901
0.445728
0.445627
0.445559
0.445524
0.445478
0.44538
0.445132
0.444961
0.444992
0.445079
0.445043
0.444913
0.445003
0.445309
0.445274
0.445357
0.445399
0.44536
0.445229
0.445274
0.445384
0.445297
0.445266
0.445389
0.445466
0.445437
0.445435
0.445425
0.445314
0.445287
0.445503
0.44556
0.445516
0.445523
0.445485
0.445396
0.445303
0.445412
0.445549
0.44553
0.445538
0.445482
0.445503
0.445515
0.445454
0.445239
0.381691
0.393857
0.406335
0.419246
0.430291
0.438333
0.443562
0.446002
0.446508
0.446646
0.446765
0.446764
0.446764
0.446717
0.446583
0.446581
0.446629
0.44652
0.446611
0.446773
0.446631
0.446686
0.446904
0.446827
0.446813
0.44703
0.447132
0.447064
0.447091
0.447137
0.447111
0.44707
0.447009
0.446977
0.446936
0.446885
0.446826
0.446759
0.446631
0.446439
0.446283
0.446166
0.446009
0.445876
0.445777
0.445715
0.445605
0.445351
0.445054
0.445079
0.445239
0.445205
0.445209
0.445205
0.445062
0.445046
0.445196
0.445226
0.445246
0.445236
0.445141
0.445133
0.445416
0.445564
0.445476
0.445534
0.445613
0.445603
0.445604
0.445541
0.445339
0.445371
0.44559
0.445561
0.445563
0.445514
0.445601
0.445649
0.445522
0.445558
0.445573
0.445525
0.445377
0.445343
0.445483
0.44554
0.445519
0.445525
0.445464
0.445219
0.381703
0.393818
0.406406
0.419203
0.430261
0.438429
0.443466
0.445959
0.446509
0.446472
0.446475
0.446473
0.446477
0.446438
0.446559
0.446624
0.4466
0.4466
0.446472
0.446565
0.446884
0.446937
0.446919
0.44685
0.446861
0.446813
0.446795
0.446717
0.446789
0.446817
0.446721
0.446723
0.446706
0.4467
0.446661
0.446579
0.446371
0.446118
0.445986
0.445864
0.445813
0.445779
0.445727
0.445728
0.445768
0.445775
0.445751
0.445729
0.44561
0.445295
0.445036
0.445058
0.445138
0.445131
0.445129
0.444963
0.445001
0.445238
0.445227
0.445192
0.44518
0.445147
0.445151
0.445405
0.445585
0.445574
0.445569
0.445483
0.445439
0.445359
0.445276
0.445313
0.445337
0.44525
0.44535
0.445528
0.445548
0.445513
0.445321
0.445366
0.445527
0.445432
0.445503
0.445537
0.445517
0.445546
0.445529
0.445499
0.445436
0.445195
0.381645
0.393892
0.406407
0.419144
0.430284
0.438509
0.443539
0.445767
0.446164
0.446142
0.446171
0.446142
0.446066
0.446127
0.446224
0.446195
0.446094
0.446072
0.446329
0.446462
0.446446
0.446385
0.446388
0.446742
0.447066
0.446942
0.447033
0.44711
0.447001
0.446995
0.446992
0.446981
0.446975
0.446938
0.446887
0.446854
0.446758
0.446668
0.446545
0.446451
0.4463
0.446168
0.446062
0.445906
0.445809
0.445618
0.44545
0.445299
0.445233
0.44518
0.445084
0.444841
0.444902
0.445361
0.445415
0.445378
0.445481
0.445804
0.445847
0.445817
0.445768
0.445768
0.445731
0.445653
0.445552
0.445584
0.445659
0.445624
0.445637
0.445624
0.445468
0.445521
0.445662
0.445628
0.445627
0.445607
0.445633
0.445593
0.445572
0.445556
0.445421
0.445444
0.445483
0.445315
0.445367
0.4454
0.445362
0.445359
0.445307
0.445134
0.381694
0.393861
0.406372
0.419099
0.430352
0.438674
0.443498
0.44525
0.445496
0.445561
0.445863
0.445905
0.445939
0.445929
0.445806
0.445852
0.446055
0.44604
0.446046
0.446036
0.446151
0.446712
0.446849
0.446963
0.447136
0.447037
0.447044
0.447082
0.447085
0.447096
0.447077
0.447022
0.446999
0.446961
0.446914
0.446813
0.446579
0.446376
0.44624
0.44614
0.446056
0.44599
0.44593
0.445886
0.445805
0.445627
0.445468
0.445367
0.445152
0.444997
0.444966
0.444912
0.445013
0.445099
0.445098
0.445098
0.445018
0.444942
0.444956
0.444968
0.444821
0.44487
0.445027
0.445055
0.445024
0.444841
0.444905
0.445055
0.445034
0.445054
0.445001
0.445131
0.445509
0.445549
0.44552
0.445501
0.445513
0.44553
0.445481
0.445362
0.445317
0.445411
0.445482
0.445465
0.445449
0.445457
0.445414
0.445372
0.445309
0.44511
0.381723
0.393778
0.406439
0.419169
0.430251
0.438476
0.443565
0.445899
0.446388
0.446389
0.446379
0.446294
0.446248
0.446427
0.446566
0.446447
0.446541
0.44663
0.44658
0.44658
0.446517
0.446656
0.446997
0.447148
0.447149
0.447095
0.447084
0.446938
0.44701
0.447042
0.447013
0.447007
0.446956
0.446929
0.44682
0.446752
0.446611
0.446487
0.446371
0.44629
0.446189
0.446107
0.446017
0.445934
0.44588
0.445825
0.445728
0.445539
0.445243
0.445112
0.445075
0.445021
0.444886
0.444831
0.445149
0.445402
0.445348
0.445329
0.44541
0.445454
0.445556
0.445654
0.445505
0.445486
0.445673
0.44573
0.445637
0.445716
0.445753
0.445716
0.445713
0.445653
0.445612
0.445573
0.445448
0.445491
0.445707
0.445601
0.44558
0.445694
0.445725
0.445815
0.445857
0.445795
0.445815
0.44582
0.445824
0.445786
0.445695
0.445357
0.3817
0.393837
0.406359
0.419244
0.430236
0.43843
0.443602
0.445814
0.446628
0.446672
0.446448
0.446449
0.446546
0.446538
0.44654
0.446431
0.446532
0.446738
0.446606
0.446619
0.446916
0.447025
0.446914
0.44697
0.447173
0.447074
0.447162
0.447268
0.447228
0.447222
0.447127
0.447105
0.447104
0.447096
0.447052
0.446951
0.446773
0.446612
0.446469
0.446172
0.445887
0.445764
0.445618
0.44553
0.445482
0.445446
0.445373
0.445199
0.44507
0.445134
0.445185
0.44516
0.445137
0.445023
0.44513
0.445588
0.445603
0.445539
0.445599
0.445843
0.44586
0.445837
0.445839
0.44579
0.445613
0.445655
0.445698
0.445649
0.445674
0.445639
0.445507
0.445491
0.445627
0.445601
0.445578
0.445737
0.445849
0.445827
0.4458
0.445734
0.445679
0.445507
0.445515
0.445743
0.445758
0.445733
0.445748
0.445717
0.445637
0.445364
0.381696
0.393894
0.40628
0.419176
0.43038
0.438577
0.443461
0.445516
0.445842
0.445711
0.445748
0.445865
0.445803
0.445797
0.445769
0.445904
0.446284
0.446286
0.446435
0.446947
0.447097
0.447078
0.447002
0.447048
0.447086
0.447046
0.446922
0.446895
0.446961
0.446886
0.446875
0.446894
0.446892
0.446836
0.446813
0.446747
0.446701
0.446622
0.446471
0.446212
0.446065
0.445805
0.445584
0.445476
0.445429
0.445342
0.445095
0.445022
0.445022
0.444921
0.44499
0.445027
0.444866
0.444932
0.445001
0.444926
0.444945
0.444912
0.444817
0.444889
0.44507
0.445062
0.445063
0.444968
0.44508
0.445475
0.445505
0.445497
0.445515
0.445471
0.445345
0.445293
0.445391
0.445423
0.445483
0.445495
0.445487
0.445482
0.445302
0.445321
0.445447
0.445431
0.445464
0.44543
0.445355
0.445315
0.44545
0.445515
0.445469
0.445297
0.381675
0.393845
0.406437
0.419094
0.430336
0.43851
0.443527
0.445801
0.446267
0.446218
0.446212
0.44621
0.446147
0.446238
0.446422
0.446412
0.446415
0.446275
0.446303
0.446502
0.446509
0.446517
0.446508
0.44666
0.446894
0.446769
0.446733
0.446966
0.447121
0.447112
0.447108
0.447063
0.447043
0.446965
0.446855
0.446727
0.44661
0.446495
0.446385
0.44631
0.446184
0.446048
0.445933
0.445862
0.445747
0.445598
0.445422
0.445303
0.445258
0.445183
0.445017
0.444797
0.444883
0.445059
0.444966
0.445039
0.445078
0.445051
0.445026
0.444873
0.444838
0.44507
0.445124
0.445029
0.444966
0.445093
0.445334
0.445338
0.445305
0.445257
0.44523
0.445181
0.445026
0.445009
0.445176
0.445192
0.445165
0.445142
0.445248
0.44537
0.445333
0.445193
0.445225
0.445287
0.445175
0.445308
0.445493
0.4455
0.445498
0.445258
0.381715
0.393797
0.406417
0.419189
0.430246
0.438465
0.443618
0.445805
0.446197
0.446226
0.446396
0.446418
0.446307
0.446412
0.44664
0.44651
0.446586
0.44681
0.44668
0.446753
0.446955
0.446923
0.446868
0.446932
0.447066
0.447158
0.447243
0.447078
0.447131
0.447203
0.447187
0.447182
0.447134
0.447115
0.447043
0.446913
0.446676
0.446494
0.446329
0.446182
0.44607
0.44597
0.445897
0.445844
0.445802
0.445765
0.445707
0.445594
0.445353
0.445054
0.444974
0.444915
0.444885
0.444831
0.444888
0.445066
0.445073
0.44506
0.444905
0.444875
0.444931
0.444937
0.444998
0.445018
0.444914
0.444981
0.445205
0.445183
0.445192
0.445137
0.445183
0.445198
0.44517
0.445095
0.445179
0.445411
0.44541
0.445419
0.445318
0.445391
0.445444
0.445432
0.445429
0.445252
0.44527
0.445372
0.445316
0.445315
0.445308
0.445169
0.381691
0.393858
0.406333
0.419252
0.430282
0.438365
0.443515
0.446068
0.446638
0.44664
0.446656
0.446625
0.446608
0.446519
0.446591
0.446682
0.446578
0.446666
0.446848
0.446715
0.446785
0.447021
0.446988
0.446946
0.447008
0.447044
0.447142
0.447221
0.447057
0.447098
0.447129
0.447041
0.447038
0.447039
0.447028
0.446956
0.44683
0.446641
0.446471
0.446338
0.446226
0.446147
0.446055
0.445995
0.445926
0.445772
0.4457
0.445556
0.445455
0.445415
0.44538
0.445298
0.445052
0.445006
0.44533
0.445761
0.445808
0.445688
0.445774
0.445836
0.445794
0.445686
0.445638
0.445684
0.445594
0.445664
0.445756
0.445682
0.44573
0.445795
0.445775
0.445747
0.44554
0.445529
0.445564
0.445494
0.445515
0.445481
0.445382
0.445414
0.445619
0.445632
0.445592
0.445504
0.44543
0.445509
0.445592
0.445585
0.445576
0.445355
0.3817
0.393837
0.406359
0.419245
0.430235
0.438429
0.443602
0.445816
0.446632
0.446677
0.446542
0.446455
0.446537
0.44665
0.446621
0.446513
0.446545
0.446714
0.446694
0.446698
0.446628
0.44669
0.446925
0.446885
0.446891
0.447161
0.447332
0.447294
0.44728
0.447281
0.44729
0.447247
0.447235
0.447152
0.447071
0.446913
0.44674
0.446602
0.446464
0.446166
0.445926
0.445699
0.445597
0.445509
0.445462
0.445429
0.445365
0.445219
0.44509
0.44514
0.445219
0.445174
0.445035
0.444977
0.445212
0.445329
0.445264
0.445426
0.445676
0.445629
0.445693
0.445762
0.445741
0.445717
0.445588
0.445485
0.44555
0.44565
0.445622
0.445624
0.445595
0.445557
0.445539
0.445407
0.445475
0.445658
0.445502
0.445572
0.445656
0.445624
0.445617
0.445625
0.445627
0.445563
0.445534
0.445331
0.445279
0.445392
0.445411
0.445282
0.381725
0.393775
0.406441
0.41917
0.430234
0.438525
0.443505
0.445891
0.446387
0.446266
0.446329
0.446459
0.446405
0.446402
0.446352
0.446458
0.446509
0.446611
0.446717
0.446649
0.446625
0.446783
0.44704
0.446962
0.447038
0.447121
0.447111
0.447099
0.44687
0.446866
0.446882
0.446824
0.446816
0.446764
0.446737
0.446691
0.446682
0.446641
0.446587
0.44649
0.446289
0.446111
0.445975
0.445863
0.445797
0.445741
0.44563
0.445373
0.44507
0.444981
0.445019
0.445021
0.444931
0.444898
0.445221
0.445497
0.445485
0.445423
0.445446
0.445708
0.445796
0.445757
0.445609
0.445578
0.445625
0.44561
0.445607
0.44571
0.445751
0.445714
0.445652
0.445556
0.44556
0.445558
0.445643
0.445719
0.445713
0.445708
0.445576
0.445508
0.445557
0.445544
0.445649
0.44578
0.445792
0.445757
0.445709
0.445703
0.445629
0.445357
0.381701
0.393854
0.406364
0.419115
0.430369
0.438597
0.443489
0.44547
0.445765
0.445659
0.44569
0.445871
0.445854
0.445974
0.446052
0.44605
0.446038
0.4461
0.446287
0.446228
0.446216
0.446415
0.446872
0.446869
0.446808
0.446873
0.446983
0.446827
0.446755
0.446786
0.446854
0.446819
0.44672
0.446691
0.446689
0.446675
0.44659
0.446541
0.446455
0.446278
0.446052
0.445909
0.445815
0.445623
0.445516
0.445422
0.445171
0.445092
0.445128
0.445132
0.445063
0.445074
0.445156
0.445161
0.445128
0.445182
0.445259
0.445244
0.445242
0.445126
0.445031
0.445143
0.445278
0.445246
0.445172
0.445085
0.445144
0.445142
0.445271
0.445471
0.445469
0.445429
0.445349
0.445261
0.44525
0.445226
0.445309
0.445483
0.445443
0.445394
0.44547
0.445652
0.445644
0.445651
0.4456
0.445489
0.445542
0.445613
0.445565
0.445389
0.381677
0.393893
0.406408
0.419016
0.430454
0.438534
0.443397
0.44565
0.446081
0.445974
0.446066
0.446154
0.446124
0.446121
0.445974
0.446046
0.446268
0.446425
0.446444
0.446344
0.446338
0.44632
0.446475
0.447013
0.447053
0.446982
0.44699
0.446946
0.44677
0.446755
0.446743
0.446735
0.446693
0.446639
0.446629
0.446578
0.446525
0.446413
0.446312
0.446221
0.446105
0.446009
0.445925
0.445851
0.445808
0.445739
0.445582
0.44551
0.445353
0.445295
0.445229
0.445236
0.445241
0.445192
0.445195
0.445176
0.445144
0.444967
0.445038
0.445385
0.445396
0.445393
0.445287
0.445261
0.445358
0.445423
0.445401
0.445373
0.445352
0.44532
0.445227
0.445218
0.445457
0.445526
0.445502
0.445484
0.445366
0.44545
0.445531
0.44543
0.445422
0.445419
0.44529
0.445296
0.445386
0.445408
0.445418
0.445399
0.445381
0.445158
0.381671
0.393893
0.406418
0.419014
0.430447
0.438522
0.443441
0.445621
0.445986
0.445883
0.445947
0.446058
0.446056
0.446057
0.445892
0.445962
0.446405
0.446498
0.446466
0.446351
0.446396
0.446625
0.446631
0.446598
0.446641
0.446804
0.446732
0.446837
0.446891
0.446872
0.446866
0.446801
0.446784
0.446714
0.446568
0.446419
0.446298
0.44619
0.446108
0.446022
0.44596
0.445917
0.445876
0.445839
0.445778
0.445673
0.445546
0.445491
0.445419
0.445267
0.445061
0.445006
0.444913
0.444854
0.445126
0.445468
0.445402
0.445492
0.445549
0.445507
0.445404
0.445353
0.445394
0.445345
0.445445
0.445524
0.445512
0.445507
0.445346
0.445423
0.445536
0.445408
0.445465
0.44549
0.445418
0.445418
0.445416
0.445316
0.445379
0.445472
0.445442
0.445436
0.445289
0.445363
0.445434
0.445413
0.445403
0.4453
0.445261
0.44512
0.381697
0.393842
0.406356
0.419235
0.430267
0.438388
0.443537
0.445999
0.44651
0.446496
0.446529
0.446492
0.446375
0.446383
0.446598
0.446682
0.44666
0.446632
0.446615
0.44656
0.446686
0.446818
0.44666
0.446676
0.446857
0.446776
0.446849
0.446993
0.446809
0.446867
0.4469
0.44687
0.446861
0.446784
0.446752
0.446638
0.446568
0.446432
0.446319
0.446227
0.446141
0.44608
0.446006
0.445933
0.44581
0.445535
0.44538
0.445307
0.445102
0.445088
0.445275
0.445215
0.445315
0.445401
0.445373
0.445371
0.445353
0.445251
0.445275
0.44533
0.445317
0.445301
0.445339
0.445392
0.445384
0.445383
0.445231
0.445292
0.44535
0.445328
0.445302
0.445347
0.445638
0.445675
0.445591
0.445587
0.445588
0.445577
0.445581
0.445503
0.44549
0.445471
0.445365
0.445282
0.445419
0.44554
0.445462
0.445459
0.445452
0.445263
0.381686
0.393861
0.406342
0.419269
0.430246
0.438365
0.443509
0.445954
0.446656
0.446669
0.446641
0.446625
0.446588
0.446486
0.446479
0.446595
0.446611
0.446516
0.446575
0.446846
0.446837
0.446976
0.447089
0.446935
0.446906
0.446945
0.446883
0.446973
0.447005
0.446983
0.446978
0.446944
0.446938
0.446896
0.446884
0.44683
0.446728
0.446622
0.446543
0.446389
0.446259
0.446183
0.446114
0.445972
0.445856
0.445792
0.445707
0.445663
0.44559
0.445507
0.445318
0.445155
0.445254
0.44537
0.445333
0.445237
0.445194
0.445276
0.445246
0.445349
0.44541
0.445334
0.445355
0.445322
0.44529
0.445244
0.445259
0.445256
0.445348
0.445681
0.445739
0.445723
0.445708
0.445545
0.445583
0.445712
0.445577
0.445654
0.445712
0.44559
0.445648
0.445674
0.445627
0.445647
0.445641
0.44558
0.445524
0.445487
0.44542
0.4452
0.381664
0.393855
0.406438
0.419141
0.430236
0.438558
0.443539
0.445701
0.446169
0.44617
0.446154
0.44597
0.445974
0.446029
0.445942
0.445885
0.446044
0.446284
0.446282
0.446289
0.446236
0.446394
0.44672
0.446704
0.446577
0.446634
0.446734
0.446712
0.446704
0.446506
0.446467
0.446444
0.446446
0.446442
0.44638
0.446348
0.446258
0.446097
0.446016
0.445989
0.44595
0.445909
0.445879
0.445831
0.44574
0.445586
0.44549
0.445415
0.445276
0.44499
0.444966
0.445204
0.445269
0.445187
0.445186
0.445186
0.445175
0.445077
0.445153
0.445353
0.445468
0.445513
0.445384
0.445422
0.445434
0.445407
0.445391
0.445361
0.445273
0.445331
0.445371
0.445355
0.445321
0.445343
0.445383
0.445231
0.445277
0.445434
0.445412
0.445414
0.4454
0.445398
0.445283
0.445372
0.445491
0.445481
0.445489
0.445445
0.445402
0.445216
0.381703
0.393824
0.406386
0.419193
0.430292
0.438405
0.443488
0.445984
0.446598
0.446603
0.446584
0.446509
0.446489
0.446478
0.44652
0.446531
0.446505
0.446439
0.446505
0.446691
0.446695
0.446706
0.446606
0.446635
0.446883
0.446858
0.446937
0.447011
0.447008
0.447004
0.446932
0.446894
0.446836
0.446732
0.446667
0.446599
0.446531
0.446483
0.446432
0.446376
0.446313
0.446221
0.446144
0.445992
0.445822
0.445735
0.445633
0.445575
0.445481
0.445256
0.445063
0.445158
0.445286
0.445287
0.445287
0.445142
0.445192
0.445286
0.445174
0.445178
0.445178
0.445179
0.445067
0.445128
0.445264
0.445081
0.445101
0.445259
0.4453
0.445277
0.445198
0.445342
0.445429
0.445539
0.445586
0.445437
0.445491
0.445571
0.445575
0.445575
0.445475
0.445401
0.445375
0.445326
0.445341
0.445346
0.445303
0.445294
0.445254
0.445123
0.381696
0.393858
0.40634
0.419122
0.430384
0.438641
0.443475
0.445291
0.445494
0.44547
0.445713
0.446051
0.446037
0.445986
0.445814
0.445791
0.446083
0.446192
0.446092
0.446162
0.446413
0.446417
0.446401
0.446515
0.446709
0.446742
0.446959
0.447019
0.446993
0.447009
0.446938
0.446934
0.44693
0.446883
0.446834
0.446694
0.446577
0.446499
0.446371
0.446257
0.446178
0.446126
0.446041
0.445982
0.445937
0.445846
0.44563
0.445482
0.445427
0.445277
0.445336
0.445416
0.445416
0.445415
0.445312
0.445188
0.445192
0.445209