/*--------------------------------*- C++ -*----------------------------------*\
  =========                 |
  \\      /  F ield         | OpenFOAM: The Open Source CFD Toolbox
   \\    /   O peration     | Website:  https://openfoam.org
    \\  /    A nd           | Version:  11
     \\/     M anipulation  |
\*---------------------------------------------------------------------------*/
FoamFile
{
    format      ascii;
    class       volScalarField;
    location    "0.094";
    object      nut;
}
// * * * * * * * * * * * * * * * * * * * * * * * * * * * * * * * * * * * * * //

dimensions      [0 2 -1 0 0 0 0];

internalField   nonuniform List<scalar> 
287084
(
0.000836785
0.000864336
0.00089337
0.000923327
0.000950106
0.00097019
0.000982136
0.000987004
0.000988166
0.000988627
0.00098887
0.000988706
0.000988659
0.000988853
0.000988815
0.000989002
0.000989189
0.000988928
0.000988993
0.000988993
0.000988861
0.000988736
0.000988462
0.000988803
0.000989235
0.00098927
0.000989214
0.000989087
0.000988925
0.000988947
0.000989292
0.000989425
0.000989338
0.000989674
0.000990026
0.000990171
0.000990365
0.000990619
0.000990863
0.000991017
0.000991172
0.000991269
0.000991229
0.000991284
0.000991262
0.000991276
0.000991318
0.00099129
0.000991297
0.000991197
0.000990867
0.000990575
0.000990794
0.000991024
0.000991006
0.000990923
0.000990949
0.000990948
0.000990829
0.000990492
0.000990497
0.000990694
0.000990641
0.000990531
0.000990368
0.000990836
0.000991131
0.000991023
0.000990812
0.000990586
0.000990755
0.000990893
0.000990749
0.000990424
0.000990291
0.000990455
0.00099034
0.00099054
0.000990844
0.000990833
0.00099081
0.000990667
0.000990407
0.000990486
0.000990865
0.00099068
0.000990807
0.00099085
0.000990704
0.000990131
0.00118273
0.00122059
0.00125963
0.00129955
0.00133514
0.0013618
0.00137769
0.00138357
0.0013844
0.0013848
0.00138565
0.00138535
0.00138553
0.00138603
0.00138591
0.00138582
0.00138569
0.0013854
0.00138515
0.00138498
0.00138474
0.00138421
0.0013842
0.00138509
0.00138504
0.00138545
0.00138582
0.00138563
0.00138582
0.00138604
0.00138612
0.0013861
0.00138624
0.00138629
0.00138584
0.00138619
0.00138667
0.00138696
0.00138726
0.00138685
0.00138719
0.00138766
0.00138794
0.00138819
0.00138828
0.00138842
0.00138813
0.00138791
0.00138829
0.00138878
0.00138883
0.00138892
0.00138882
0.00138879
0.00138873
0.00138873
0.00138871
0.00138853
0.00138839
0.00138827
0.00138804
0.0013874
0.00138747
0.00138826
0.00138827
0.00138807
0.00138752
0.00138758
0.00138805
0.00138796
0.00138791
0.00138755
0.00138775
0.00138828
0.00138839
0.00138828
0.001388
0.00138794
0.00138786
0.00138738
0.00138736
0.00138759
0.00138752
0.00138748
0.0013872
0.00138715
0.00138702
0.00138719
0.00138722
0.0013867
0.00118277
0.00122079
0.00125971
0.00129987
0.00133539
0.00136158
0.00137767
0.00138442
0.00138569
0.00138585
0.0013859
0.00138541
0.00138548
0.00138569
0.00138558
0.00138546
0.00138478
0.00138475
0.00138565
0.00138564
0.00138548
0.00138537
0.00138478
0.00138489
0.00138546
0.00138537
0.00138544
0.00138552
0.00138565
0.00138571
0.00138591
0.001386
0.00138627
0.00138638
0.00138657
0.00138692
0.00138736
0.00138759
0.00138784
0.00138812
0.00138818
0.00138783
0.00138746
0.00138772
0.0013881
0.00138826
0.0013884
0.00138798
0.00138805
0.00138847
0.00138864
0.00138875
0.00138871
0.00138866
0.00138859
0.00138857
0.00138848
0.00138851
0.00138851
0.00138827
0.00138762
0.00138745
0.00138783
0.00138801
0.00138785
0.0013873
0.00138743
0.00138818
0.00138789
0.00138815
0.00138832
0.00138824
0.00138817
0.00138815
0.00138815
0.00138803
0.00138797
0.00138734
0.00138715
0.00138723
0.00138725
0.00138713
0.00138689
0.00138696
0.00138682
0.00138713
0.00138783
0.00138775
0.00138763
0.00138692
0.00118279
0.00122081
0.00126003
0.00130015
0.00133557
0.00136181
0.00137796
0.00138501
0.00138629
0.00138628
0.00138611
0.00138626
0.00138648
0.00138637
0.00138624
0.00138591
0.00138572
0.00138501
0.00138494
0.00138529
0.00138495
0.00138486
0.00138478
0.00138436
0.00138435
0.0013849
0.00138501
0.00138503
0.00138511
0.00138479
0.00138517
0.00138597
0.00138581
0.00138635
0.00138687
0.00138711
0.00138742
0.00138777
0.0013881
0.00138826
0.0013886
0.00138866
0.00138886
0.00138909
0.00138917
0.00138876
0.00138857
0.00138852
0.00138856
0.0013885
0.00138799
0.00138811
0.0013884
0.00138837
0.00138831
0.00138836
0.00138843
0.00138831
0.00138809
0.00138782
0.0013882
0.00138836
0.0013883
0.00138826
0.00138814
0.00138788
0.00138775
0.00138769
0.00138738
0.00138751
0.00138812
0.00138784
0.00138803
0.00138811
0.001388
0.00138795
0.00138753
0.00138748
0.00138744
0.0013878
0.00138823
0.00138817
0.00138813
0.00138772
0.00138776
0.00138797
0.00138782
0.00138785
0.00138777
0.00138701
0.00118279
0.00122087
0.0012603
0.00130009
0.00133564
0.00136246
0.00137762
0.00138478
0.00138652
0.00138654
0.00138638
0.00138574
0.00138577
0.00138596
0.0013855
0.00138537
0.00138518
0.00138471
0.00138447
0.00138477
0.00138485
0.00138461
0.00138404
0.00138406
0.00138465
0.00138453
0.00138462
0.00138473
0.0013846
0.00138498
0.00138557
0.00138532
0.00138579
0.00138631
0.00138664
0.00138698
0.00138714
0.00138703
0.00138723
0.00138767
0.00138771
0.00138827
0.00138866
0.00138861
0.00138892
0.00138916
0.0013891
0.00138934
0.00138949
0.00138942
0.00138949
0.00138947
0.00138951
0.0013893
0.00138915
0.00138903
0.00138878
0.0013882
0.00138754
0.00138769
0.00138799
0.00138784
0.00138783
0.00138781
0.00138778
0.00138755
0.00138701
0.00138684
0.00138741
0.00138765
0.00138749
0.00138702
0.00138698
0.00138771
0.00138761
0.00138794
0.00138836
0.00138781
0.00138794
0.00138822
0.00138776
0.00138798
0.00138815
0.00138808
0.00138803
0.00138736
0.00138744
0.00138765
0.00138751
0.00138701
0.00118279
0.00122094
0.00126016
0.00130013
0.00133614
0.0013625
0.00137759
0.00138363
0.00138621
0.00138628
0.00138579
0.00138589
0.00138594
0.00138577
0.0013856
0.00138512
0.00138465
0.00138467
0.00138524
0.00138505
0.00138487
0.00138475
0.00138452
0.00138403
0.00138413
0.00138437
0.00138412
0.0013841
0.00138476
0.00138541
0.00138521
0.00138573
0.00138621
0.00138651
0.00138686
0.00138708
0.00138736
0.00138716
0.0013872
0.00138739
0.00138724
0.0013877
0.00138824
0.00138838
0.00138858
0.0013887
0.00138885
0.00138876
0.00138845
0.00138832
0.00138855
0.00138881
0.00138875
0.00138846
0.00138837
0.00138868
0.00138883
0.00138875
0.00138876
0.00138867
0.0013885
0.00138804
0.0013881
0.00138817
0.00138803
0.00138783
0.00138751
0.00138767
0.00138761
0.00138794
0.00138854
0.00138847
0.00138845
0.00138839
0.00138817
0.00138764
0.0013874
0.0013875
0.00138736
0.00138769
0.00138799
0.00138796
0.00138794
0.0013875
0.00138744
0.00138721
0.00138748
0.00138781
0.00138769
0.00138719
0.00118278
0.00122091
0.00126028
0.00130008
0.00133645
0.00136225
0.00137764
0.00138462
0.00138612
0.00138617
0.00138599
0.00138581
0.00138521
0.00138518
0.00138552
0.001385
0.00138513
0.00138631
0.00138623
0.0013858
0.0013859
0.00138607
0.00138596
0.0013859
0.00138566
0.00138564
0.00138524
0.00138546
0.00138572
0.00138573
0.00138598
0.0013863
0.00138662
0.00138672
0.00138672
0.00138709
0.00138737
0.00138764
0.00138793
0.00138772
0.00138808
0.00138847
0.00138868
0.00138895
0.00138901
0.00138898
0.001389
0.00138909
0.00138916
0.00138925
0.00138927
0.00138906
0.00138861
0.00138844
0.00138848
0.00138843
0.00138844
0.00138836
0.00138782
0.00138781
0.0013882
0.00138812
0.00138818
0.00138818
0.00138803
0.00138753
0.00138739
0.00138776
0.00138797
0.0013878
0.00138728
0.00138733
0.00138766
0.0013876
0.0013876
0.00138736
0.00138742
0.00138731
0.00138751
0.00138756
0.00138745
0.00138721
0.00138738
0.00138798
0.00138796
0.00138779
0.0013872
0.00138731
0.00138759
0.00138695
0.00118287
0.00122078
0.00126032
0.0013006
0.00133575
0.00136192
0.00137805
0.00138606
0.00138806
0.00138803
0.0013877
0.00138744
0.00138737
0.00138725
0.00138706
0.00138654
0.00138664
0.00138672
0.00138649
0.0013863
0.00138581
0.00138561
0.00138515
0.00138529
0.00138571
0.00138536
0.00138569
0.00138601
0.00138605
0.00138626
0.00138631
0.00138662
0.001387
0.00138734
0.00138773
0.00138815
0.00138857
0.00138886
0.00138852
0.00138849
0.0013885
0.00138884
0.00138918
0.0013894
0.00138962
0.00138957
0.00138973
0.00138979
0.00138976
0.0013897
0.00138967
0.00138953
0.00138892
0.00138898
0.0013893
0.00138927
0.00138921
0.00138882
0.00138868
0.0013885
0.00138877
0.00138913
0.00138877
0.00138892
0.00138909
0.00138902
0.00138896
0.00138865
0.00138851
0.0013881
0.00138755
0.00138783
0.0013884
0.00138834
0.00138826
0.00138784
0.00138759
0.00138801
0.00138839
0.00138812
0.00138807
0.00138805
0.00138795
0.00138758
0.00138765
0.00138793
0.00138767
0.00138763
0.00138761
0.00138702
0.00118281
0.00122095
0.00126016
0.00130047
0.00133611
0.00136231
0.00137802
0.00138491
0.00138625
0.00138619
0.00138597
0.00138524
0.00138513
0.00138585
0.00138552
0.00138563
0.00138584
0.00138518
0.00138487
0.00138517
0.00138506
0.00138525
0.00138565
0.00138517
0.00138499
0.00138509
0.00138499
0.00138542
0.00138605
0.00138583
0.00138638
0.00138695
0.00138732
0.00138774
0.00138801
0.00138844
0.00138866
0.00138907
0.00138933
0.0013894
0.00138918
0.00138918
0.00138922
0.00138876
0.00138876
0.00138908
0.00138887
0.00138912
0.00138964
0.00138955
0.00138963
0.00138967
0.0013896
0.00138968
0.0013897
0.00138954
0.00138934
0.00138868
0.00138846
0.00138851
0.00138843
0.00138803
0.00138789
0.00138812
0.00138792
0.0013881
0.00138816
0.00138794
0.00138787
0.00138751
0.00138786
0.0013885
0.00138827
0.00138819
0.00138807
0.00138802
0.00138791
0.00138764
0.0013876
0.00138755
0.00138791
0.00138862
0.00138853
0.00138851
0.00138852
0.00138851
0.00138841
0.00138829
0.00138804
0.00138716
0.001183
0.00122072
0.00126014
0.00130056
0.00133613
0.00136238
0.00137809
0.00138437
0.00138528
0.00138492
0.001385
0.00138599
0.00138592
0.00138556
0.00138498
0.0013846
0.00138475
0.00138523
0.00138499
0.00138485
0.00138454
0.00138421
0.00138405
0.0013835
0.00138371
0.0013842
0.00138416
0.00138429
0.00138423
0.00138451
0.00138481
0.00138554
0.0013861
0.0013864
0.00138687
0.00138738
0.00138788
0.00138815
0.00138855
0.00138876
0.0013884
0.00138876
0.00138915
0.00138941
0.00138965
0.00138974
0.00138986
0.00138969
0.00138967
0.00138953
0.00138915
0.00138874
0.00138838
0.00138826
0.00138811
0.00138763
0.00138774
0.00138784
0.00138754
0.00138725
0.00138755
0.00138834
0.00138801
0.00138818
0.00138826
0.00138816
0.00138808
0.00138749
0.00138735
0.00138772
0.00138783
0.00138782
0.00138767
0.00138744
0.0013874
0.00138736
0.00138724
0.00138687
0.00138722
0.00138796
0.00138791
0.00138786
0.00138726
0.00138719
0.00138764
0.0013875
0.00138781
0.00138803
0.00138787
0.00138728
0.00118287
0.00122088
0.00126026
0.00130039
0.00133602
0.00136247
0.00137833
0.00138449
0.00138525
0.00138537
0.00138578
0.0013856
0.00138536
0.00138473
0.00138465
0.0013846
0.00138399
0.00138396
0.00138449
0.00138422
0.00138466
0.00138522
0.00138515
0.00138495
0.00138467
0.00138462
0.00138429
0.00138419
0.00138477
0.00138523
0.00138551
0.00138591
0.0013861
0.00138647
0.00138655
0.00138728
0.00138802
0.00138797
0.00138861
0.00138929
0.0013897
0.00139008
0.00139022
0.00139048
0.00139058
0.00139053
0.00138992
0.00138901
0.0013889
0.00138893
0.00138849
0.00138863
0.00138898
0.00138873
0.00138881
0.00138877
0.00138866
0.00138862
0.00138843
0.00138786
0.00138791
0.00138838
0.00138841
0.00138824
0.00138766
0.00138783
0.00138811
0.00138805
0.00138798
0.00138736
0.00138746
0.00138765
0.00138707
0.00138698
0.00138765
0.00138796
0.00138791
0.00138786
0.00138726
0.00138717
0.00138741
0.00138715
0.00138709
0.00138773
0.00138814
0.00138788
0.00138801
0.00138805
0.00138788
0.00138722
0.00118277
0.00122096
0.00126026
0.00130036
0.0013362
0.00136228
0.001378
0.00138526
0.00138685
0.00138686
0.00138661
0.00138632
0.00138572
0.00138573
0.00138618
0.0013855
0.00138548
0.00138547
0.001385
0.00138475
0.00138436
0.00138468
0.00138494
0.00138472
0.00138466
0.00138435
0.00138476
0.00138526
0.00138527
0.00138572
0.0013863
0.00138671
0.00138726
0.00138772
0.0013882
0.00138864
0.00138901
0.00138946
0.00138989
0.00139028
0.0013906
0.00139064
0.00139071
0.00139045
0.00139003
0.00138967
0.00138961
0.0013896
0.00138958
0.00138949
0.00138927
0.0013886
0.0013886
0.00138901
0.00138936
0.00138924
0.00138864
0.00138875
0.00138902
0.00138871
0.00138869
0.00138865
0.00138846
0.00138786
0.00138761
0.00138818
0.00138844
0.00138833
0.00138826
0.00138777
0.00138795
0.00138833
0.00138827
0.0013882
0.00138765
0.0013878
0.00138802
0.00138795
0.00138789
0.00138735
0.0013875
0.00138786
0.00138775
0.0013874
0.00138732
0.00138766
0.00138766
0.00138765
0.00138762
0.00138711
0.00118291
0.00122071
0.00126045
0.00130059
0.00133574
0.00136199
0.00137851
0.00138559
0.00138663
0.00138642
0.00138669
0.00138702
0.00138672
0.00138626
0.00138597
0.00138543
0.00138522
0.00138603
0.00138594
0.00138553
0.00138483
0.00138469
0.00138491
0.00138431
0.00138433
0.00138486
0.00138466
0.00138508
0.00138574
0.00138557
0.00138619
0.00138687
0.00138739
0.001388
0.0013885
0.00138905
0.0013893
0.00138962
0.00139
0.00139033
0.0013904
0.00139053
0.00139069
0.00139084
0.0013909
0.00139071
0.00139056
0.00138996
0.00138966
0.00138985
0.00139003
0.00138995
0.00138995
0.00138979
0.00138964
0.00138946
0.00138924
0.00138914
0.00138906
0.00138896
0.00138861
0.00138841
0.00138806
0.00138827
0.00138869
0.00138856
0.00138847
0.00138834
0.00138826
0.00138804
0.00138766
0.00138782
0.0013883
0.00138822
0.00138812
0.00138749
0.00138737
0.00138806
0.00138823
0.00138814
0.00138809
0.00138765
0.00138769
0.00138796
0.00138781
0.00138787
0.0013879
0.00138783
0.00138771
0.00138706
0.00118284
0.00122096
0.00126015
0.00130022
0.00133655
0.00136234
0.00137789
0.00138426
0.0013851
0.00138504
0.00138491
0.00138433
0.0013842
0.0013845
0.00138429
0.00138394
0.00138337
0.00138335
0.00138397
0.00138401
0.00138354
0.00138329
0.00138292
0.00138284
0.00138385
0.00138448
0.00138407
0.00138417
0.00138464
0.0013848
0.00138551
0.00138632
0.00138669
0.00138728
0.00138789
0.00138857
0.00138916
0.00138942
0.00138956
0.00138983
0.00138982
0.00138975
0.00138996
0.00138986
0.00139009
0.00139028
0.00139029
0.00139
0.00139009
0.00139054
0.00139055
0.00139041
0.00139034
0.00139019
0.00138997
0.00138958
0.00138931
0.00138904
0.00138843
0.00138853
0.00138881
0.00138871
0.00138861
0.00138801
0.00138798
0.00138814
0.00138793
0.00138787
0.00138778
0.0013874
0.00138726
0.00138794
0.00138831
0.00138817
0.00138816
0.00138813
0.00138812
0.00138795
0.00138785
0.00138767
0.00138717
0.00138733
0.00138825
0.00138817
0.00138817
0.00138815
0.0013881
0.0013881
0.00138794
0.00138734
0.00118286
0.00122082
0.00126031
0.00130069
0.00133579
0.00136179
0.00137845
0.00138582
0.00138717
0.00138736
0.00138727
0.00138687
0.00138656
0.0013862
0.00138569
0.00138561
0.00138549
0.00138485
0.00138474
0.00138453
0.00138395
0.00138365
0.00138412
0.00138435
0.00138395
0.00138434
0.00138497
0.00138462
0.00138513
0.00138576
0.00138567
0.00138644
0.00138719
0.00138757
0.00138812
0.00138888
0.00138966
0.00139025
0.00139087
0.0013912
0.00139141
0.0013915
0.00139111
0.00139068
0.00139032
0.00139021
0.00139019
0.00139005
0.00138978
0.00138957
0.00138945
0.00138945
0.00138937
0.00138899
0.00138887
0.0013886
0.00138873
0.00138931
0.00138915
0.00138904
0.00138887
0.00138839
0.00138843
0.00138882
0.00138867
0.00138835
0.00138836
0.00138889
0.00138882
0.00138863
0.00138797
0.00138789
0.00138821
0.00138825
0.00138806
0.00138741
0.00138741
0.00138819
0.00138828
0.00138817
0.00138817
0.00138797
0.00138733
0.00138739
0.00138797
0.001388
0.0013879
0.00138785
0.00138769
0.00138688
0.00118276
0.00122104
0.00126042
0.00130008
0.00133633
0.00136217
0.00137787
0.00138508
0.00138656
0.00138643
0.00138619
0.00138565
0.00138539
0.00138508
0.00138454
0.00138409
0.00138423
0.00138438
0.00138396
0.00138339
0.00138319
0.0013831
0.00138252
0.00138272
0.00138329
0.00138281
0.00138296
0.00138392
0.00138448
0.00138486
0.00138542
0.0013859
0.00138614
0.00138677
0.0013874
0.00138783
0.0013885
0.00138914
0.00138967
0.00139015
0.00139058
0.0013909
0.00139123
0.00139136
0.00139152
0.0013917
0.00139178
0.00139148
0.00139134
0.00139097
0.00139001
0.00138944
0.00138951
0.00138951
0.00138927
0.00138876
0.00138872
0.00138879
0.00138858
0.00138958
0.00139025
0.00139016
0.00139005
0.00138979
0.00138957
0.00138882
0.00138868
0.00138901
0.00138873
0.00138894
0.00138907
0.00138874
0.0013888
0.00138892
0.00138879
0.00138863
0.00138806
0.00138767
0.00138777
0.00138793
0.00138777
0.00138731
0.00138757
0.0013881
0.00138803
0.00138794
0.00138775
0.00138767
0.00138754
0.00138712
0.00118283
0.00122088
0.00126028
0.00130071
0.0013359
0.00136157
0.001378
0.00138631
0.00138821
0.00138809
0.00138785
0.00138737
0.00138705
0.00138647
0.00138607
0.00138628
0.00138613
0.00138567
0.00138526
0.00138443
0.0013841
0.00138422
0.00138418
0.00138393
0.00138344
0.00138363
0.00138412
0.00138455
0.00138484
0.00138486
0.00138569
0.00138648
0.00138701
0.00138779
0.00138857
0.00138945
0.00139019
0.00139087
0.00139135
0.00139176
0.00139209
0.00139226
0.00139201
0.00139165
0.00139134
0.00139119
0.00139108
0.00139102
0.00139088
0.00139055
0.00138971
0.00138909
0.00138909
0.00138924
0.001389
0.00138846
0.00138861
0.00138943
0.00138919
0.00138931
0.00138932
0.00138907
0.00138854
0.00138857
0.0013888
0.00138843
0.00138823
0.00138852
0.00138867
0.0013885
0.00138842
0.00138832
0.0013879
0.00138775
0.00138837
0.0013885
0.00138831
0.00138828
0.00138812
0.0013878
0.00138748
0.00138779
0.00138819
0.0013881
0.0013881
0.0013879
0.00138795
0.00138797
0.00138777
0.00138703
0.00118282
0.00122093
0.00126015
0.0013008
0.00133583
0.00136154
0.00137831
0.00138614
0.00138772
0.00138801
0.00138814
0.00138784
0.00138749
0.00138696
0.00138614
0.00138571
0.00138543
0.00138466
0.00138452
0.00138461
0.00138381
0.00138365
0.00138407
0.00138365
0.00138353
0.00138423
0.00138471
0.00138479
0.00138529
0.00138598
0.00138657
0.0013872
0.00138785
0.00138864
0.00138942
0.00139015
0.00139084
0.00139144
0.00139178
0.00139184
0.00139192
0.00139204
0.00139194
0.00139183
0.00139175
0.00139171
0.00139146
0.0013907
0.00138977
0.0013898
0.00139023
0.00139003
0.00138992
0.00138977
0.00138919
0.001389
0.00138932
0.00138927
0.00138919
0.00138901
0.00138858
0.00138842
0.00138918
0.00138952
0.00138913
0.0013892
0.00138935
0.00138922
0.00138913
0.00138885
0.00138814
0.00138817
0.00138878
0.00138863
0.00138857
0.00138836
0.00138858
0.00138868
0.00138825
0.00138832
0.00138833
0.00138815
0.00138765
0.00138752
0.00138793
0.00138809
0.001388
0.001388
0.0013878
0.00138696
0.00118286
0.0012208
0.00126037
0.00130066
0.00133574
0.00136183
0.00137799
0.00138598
0.00138769
0.00138742
0.00138718
0.00138686
0.00138651
0.00138599
0.00138595
0.00138571
0.00138519
0.00138473
0.00138389
0.00138375
0.00138435
0.00138417
0.00138385
0.00138345
0.0013834
0.00138328
0.0013834
0.00138347
0.00138414
0.00138481
0.00138522
0.00138604
0.00138687
0.00138778
0.00138861
0.0013893
0.00138955
0.0013896
0.00138996
0.00139026
0.00139068
0.00139107
0.00139129
0.0013916
0.00139195
0.00139212
0.00139213
0.00139209
0.0013917
0.00139065
0.00138976
0.00138972
0.00138984
0.00138968
0.00138952
0.00138884
0.0013888
0.00138939
0.00138921
0.00138895
0.00138877
0.00138852
0.0013884
0.00138907
0.00138951
0.00138937
0.00138924
0.00138887
0.00138864
0.0013883
0.00138796
0.001388
0.00138801
0.00138767
0.00138792
0.00138842
0.00138843
0.00138827
0.00138763
0.00138772
0.00138819
0.00138786
0.00138805
0.00138813
0.00138804
0.0013881
0.00138803
0.00138792
0.00138771
0.0013869
0.00118268
0.00122103
0.00126037
0.00130047
0.0013358
0.00136207
0.0013782
0.00138535
0.00138658
0.00138635
0.00138618
0.00138577
0.00138516
0.00138494
0.0013848
0.00138426
0.00138347
0.00138293
0.00138326
0.00138323
0.00138277
0.00138223
0.00138196
0.00138286
0.00138379
0.00138345
0.00138391
0.00138448
0.00138462
0.00138521
0.00138595
0.00138677
0.00138768
0.00138854
0.00138937
0.00139024
0.00139088
0.00139147
0.00139188
0.00139228
0.00139241
0.00139249
0.00139255
0.00139237
0.00139229
0.00139183
0.00139138
0.00139093
0.00139069
0.00139046
0.00139006
0.00138917
0.00138922
0.00139051
0.00139052
0.00139024
0.0013904
0.00139124
0.00139121
0.00139096
0.00139066
0.00139051
0.00139026
0.00138988
0.00138944
0.00138943
0.00138955
0.00138934
0.00138928
0.00138915
0.00138858
0.00138867
0.00138903
0.00138886
0.0013888
0.00138867
0.0013887
0.00138853
0.00138842
0.00138832
0.00138787
0.0013879
0.00138799
0.00138744
0.00138757
0.00138765
0.00138752
0.00138749
0.00138731
0.00138671
0.00118283
0.00122094
0.00126026
0.00130033
0.001336
0.00136257
0.00137806
0.00138372
0.00138447
0.0013845
0.00138518
0.00138497
0.00138469
0.00138424
0.00138341
0.00138308
0.00138322
0.00138269
0.00138223
0.00138174
0.00138167
0.00138304
0.00138318
0.00138334
0.00138378
0.00138353
0.00138375
0.00138421
0.00138472
0.0013854
0.00138612
0.00138683
0.00138773
0.00138862
0.0013895
0.0013902
0.00139043
0.00139069
0.00139108
0.00139147
0.00139182
0.00139212
0.00139233
0.00139249
0.00139246
0.00139204
0.0013916
0.0013913
0.00139059
0.00139003
0.00138982
0.00138952
0.00138968
0.00138979
0.00138961
0.00138944
0.00138902
0.00138861
0.00138849
0.00138836
0.00138775
0.00138775
0.0013881
0.00138805
0.00138782
0.00138713
0.00138722
0.00138758
0.00138742
0.00138739
0.00138713
0.00138746
0.00138857
0.00138862
0.00138847
0.00138835
0.00138833
0.00138833
0.00138813
0.00138772
0.00138754
0.0013878
0.00138799
0.00138791
0.00138783
0.00138783
0.00138768
0.00138753
0.00138732
0.00138664
0.00118292
0.00122068
0.00126047
0.00130054
0.00133568
0.00136194
0.00137824
0.00138572
0.00138723
0.00138705
0.00138674
0.00138613
0.0013856
0.00138572
0.00138569
0.00138484
0.00138462
0.0013844
0.00138375
0.00138328
0.00138265
0.0013827
0.00138346
0.00138372
0.00138365
0.00138353
0.0013837
0.00138361
0.00138436
0.00138513
0.00138585
0.00138674
0.00138758
0.00138854
0.00138925
0.00139007
0.00139062
0.00139115
0.00139161
0.00139208
0.00139238
0.00139263
0.00139275
0.0013928
0.00139284
0.0013928
0.00139256
0.00139197
0.00139099
0.0013905
0.00139027
0.00138996
0.00138937
0.00138903
0.00138985
0.00139046
0.00139011
0.00138988
0.00138996
0.00138993
0.00139008
0.00139023
0.00138962
0.00138942
0.00138988
0.00138993
0.00138953
0.00138966
0.00138968
0.00138947
0.00138937
0.0013891
0.0013889
0.00138871
0.00138825
0.00138833
0.00138895
0.00138856
0.00138845
0.00138877
0.00138882
0.00138907
0.00138917
0.00138894
0.00138898
0.00138896
0.00138896
0.00138882
0.00138853
0.00138741
0.00118285
0.00122086
0.00126021
0.00130077
0.00133562
0.00136179
0.00137835
0.00138544
0.00138795
0.00138791
0.00138693
0.00138658
0.00138648
0.00138602
0.00138555
0.00138472
0.00138452
0.00138465
0.00138373
0.00138329
0.00138376
0.00138372
0.00138307
0.00138303
0.00138358
0.00138333
0.00138382
0.00138453
0.00138494
0.00138562
0.00138615
0.00138702
0.00138803
0.00138907
0.00139001
0.00139075
0.0013912
0.00139162
0.00139201
0.00139182
0.00139155
0.00139168
0.00139162
0.00139165
0.00139171
0.00139172
0.00139155
0.001391
0.00139055
0.00139066
0.00139069
0.00139047
0.00139023
0.00138969
0.00138985
0.0013911
0.00139096
0.00139058
0.00139059
0.00139118
0.00139106
0.00139083
0.00139069
0.0013904
0.00138971
0.00138971
0.00138973
0.00138947
0.00138944
0.00138924
0.00138874
0.00138861
0.00138895
0.0013888
0.00138867
0.0013891
0.00138939
0.00138927
0.00138914
0.00138889
0.00138868
0.00138811
0.0013881
0.00138878
0.0013888
0.0013887
0.00138873
0.00138861
0.00138835
0.00138743
0.00118284
0.00122104
0.00125997
0.00130055
0.00133608
0.00136224
0.00137791
0.0013845
0.00138549
0.0013849
0.00138473
0.00138474
0.00138414
0.00138368
0.00138311
0.00138302
0.00138369
0.00138318
0.00138313
0.00138423
0.00138425
0.00138379
0.00138325
0.00138319
0.00138322
0.00138316
0.00138298
0.00138328
0.00138404
0.00138451
0.00138532
0.00138633
0.00138736
0.00138827
0.00138929
0.00139015
0.00139102
0.00139172
0.00139209
0.00139201
0.00139218
0.00139188
0.00139159
0.00139156
0.00139162
0.00139147
0.00139075
0.00139052
0.00139046
0.00139005
0.00139014
0.0013901
0.00138943
0.00138945
0.00138948
0.00138906
0.00138893
0.00138864
0.00138816
0.00138822
0.00138861
0.00138843
0.00138828
0.00138784
0.00138805
0.00138916
0.00138914
0.001389
0.00138895
0.00138872
0.00138824
0.00138799
0.00138822
0.00138825
0.00138837
0.00138834
0.00138827
0.0013882
0.00138759
0.00138761
0.00138796
0.00138787
0.00138794
0.00138781
0.00138754
0.00138739
0.0013878
0.00138798
0.00138783
0.00138722
0.00118277
0.00122089
0.00126046
0.0013003
0.00133593
0.00136203
0.00137811
0.00138538
0.00138681
0.00138647
0.00138616
0.0013858
0.00138519
0.00138503
0.00138512
0.00138458
0.00138407
0.00138312
0.00138269
0.00138281
0.00138238
0.00138201
0.00138167
0.00138193
0.00138257
0.00138226
0.00138235
0.00138346
0.0013845
0.00138518
0.00138602
0.00138684
0.00138783
0.00138867
0.00138943
0.0013901
0.00139076
0.00139135
0.00139185
0.00139236
0.00139259
0.00139268
0.00139272
0.0013928
0.00139265
0.00139231
0.00139181
0.00139143
0.00139123
0.0013909
0.00139024
0.0013894
0.0013895
0.00138987
0.0013894
0.00138943
0.00138936
0.00138909
0.00138883
0.00138818
0.0013879
0.00138846
0.00138848
0.00138804
0.00138771
0.00138798
0.0013886
0.00138851
0.0013883
0.00138805
0.00138788
0.00138764
0.00138708
0.00138696
0.00138741
0.0013874
0.00138726
0.00138714
0.00138742
0.00138776
0.00138761
0.00138713
0.0013872
0.00138736
0.00138699
0.00138737
0.00138793
0.00138793
0.00138792
0.0013871
0.00118289
0.00122074
0.00126039
0.00130059
0.00133565
0.00136189
0.00137839
0.0013854
0.00138659
0.00138649
0.00138674
0.00138645
0.00138569
0.00138557
0.0013858
0.00138489
0.00138461
0.00138478
0.00138386
0.00138359
0.00138376
0.00138327
0.00138278
0.00138277
0.0013831
0.00138346
0.00138393
0.00138381
0.00138453
0.00138546
0.00138626
0.00138721
0.00138811
0.00138914
0.00139002
0.00139069
0.00139097
0.00139134
0.00139167
0.00139196
0.00139223
0.00139243
0.00139261
0.00139274
0.00139282
0.00139283
0.0013927
0.00139234
0.00139153
0.00139049
0.00139011
0.00138978
0.00138951
0.00138916
0.00138915
0.00138951
0.00138935
0.00138912
0.00138845
0.00138818
0.00138819
0.00138805
0.00138808
0.001388
0.00138754
0.00138763
0.0013882
0.00138803
0.00138795
0.00138768
0.00138773
0.0013877
0.00138753
0.00138722
0.00138742
0.00138809
0.00138803
0.001388
0.00138764
0.00138782
0.00138795
0.00138788
0.00138783
0.00138725
0.00138728
0.00138757
0.00138738
0.00138736
0.00138732
0.00138682
0.00118282
0.00122093
0.00126014
0.00130079
0.00133577
0.00136158
0.00137807
0.00138622
0.00138797
0.0013878
0.00138755
0.00138711
0.00138664
0.00138592
0.00138566
0.00138545
0.00138461
0.00138436
0.00138441
0.00138351
0.00138328
0.00138361
0.00138321
0.00138287
0.00138298
0.00138315
0.00138367
0.00138429
0.00138434
0.00138517
0.00138611
0.00138679
0.00138782
0.0013889
0.00138996
0.0013908
0.00139142
0.00139177
0.00139208
0.00139241
0.00139268
0.00139295
0.00139306
0.00139318
0.00139317
0.00139282
0.00139265
0.00139219
0.00139181
0.00139159
0.00139136
0.00139095
0.00139
0.00138968
0.00139051
0.00139167
0.00139163
0.00139107
0.00139116
0.00139117
0.00139088
0.00139038
0.00139008
0.00139008
0.00138966
0.00138975
0.00138992
0.00138958
0.00138962
0.00138973
0.00138958
0.00138941
0.00138869
0.00138858
0.00138862
0.00138835
0.00138835
0.0013882
0.00138784
0.0013879
0.0013885
0.0013885
0.00138834
0.00138803
0.00138778
0.001388
0.00138824
0.0013882
0.00138816
0.00138741
0.00118285
0.00122086
0.00126022
0.00130078
0.00133562
0.00136179
0.00137835
0.00138545
0.00138796
0.00138792
0.00138723
0.0013866
0.00138645
0.00138636
0.0013858
0.00138497
0.00138456
0.00138457
0.00138401
0.00138353
0.00138287
0.00138268
0.0013831
0.00138277
0.00138271
0.0013836
0.00138435
0.0013846
0.0013851
0.00138579
0.00138665
0.00138745
0.00138844
0.00138924
0.00139007
0.00139063
0.00139109
0.00139159
0.001392
0.0013918
0.00139167
0.00139147
0.00139156
0.00139158
0.00139165
0.00139167
0.00139153
0.00139106
0.00139061
0.00139068
0.0013908
0.00139051
0.00138991
0.00138955
0.0013901
0.00139029
0.0013899
0.00139022
0.00139083
0.00139051
0.00139054
0.0013906
0.00139038
0.00139017
0.00138963
0.00138918
0.00138927
0.00138947
0.00138928
0.00138919
0.00138901
0.00138881
0.00138868
0.0013882
0.00138834
0.00138885
0.00138831
0.00138848
0.00138869
0.00138855
0.00138849
0.00138848
0.00138845
0.00138822
0.0013881
0.00138744
0.00138726
0.0013876
0.00138765
0.00138717
0.00118292
0.00122067
0.00126047
0.00130054
0.00133563
0.00136209
0.00137806
0.0013857
0.00138722
0.00138667
0.00138659
0.00138665
0.00138608
0.00138564
0.00138503
0.00138487
0.00138453
0.00138435
0.00138418
0.00138349
0.00138299
0.0013831
0.00138359
0.00138315
0.0013833
0.00138361
0.00138379
0.00138411
0.00138392
0.00138458
0.00138544
0.00138617
0.00138714
0.00138803
0.00138899
0.00138989
0.00139084
0.00139163
0.00139229
0.0013927
0.00139269
0.00139264
0.00139262
0.00139257
0.00139258
0.00139254
0.00139225
0.00139145
0.00139045
0.00139009
0.00139009
0.00138996
0.00138951
0.00138924
0.00139008
0.00139076
0.00139054
0.00139017
0.00139007
0.00139072
0.00139083
0.00139056
0.00138995
0.00138971
0.00138973
0.00138956
0.00138943
0.00138964
0.00138967
0.00138946
0.00138918
0.0013888
0.00138874
0.00138866
0.00138886
0.00138904
0.00138896
0.0013889
0.00138844
0.00138818
0.0013883
0.00138822
0.00138852
0.00138889
0.0013889
0.00138877
0.0013886
0.00138856
0.00138832
0.00138741
0.00118285
0.00122092
0.00126023
0.00130037
0.00133605
0.00136233
0.00137802
0.00138441
0.00138531
0.00138481
0.00138463
0.00138486
0.00138443
0.00138438
0.00138417
0.00138369
0.00138317
0.00138287
0.00138298
0.00138233
0.00138187
0.00138212
0.00138325
0.00138304
0.00138277
0.00138301
0.00138355
0.00138342
0.0013837
0.00138444
0.00138543
0.00138621
0.00138686
0.00138778
0.0013888
0.00138977
0.00139046
0.00139121
0.00139175
0.00139191
0.00139181
0.00139186
0.00139197
0.00139167
0.00139155
0.00139139
0.00139068
0.00139044
0.00139051
0.00139045
0.00139012
0.00139002
0.00139013
0.00138998
0.00138971
0.00138971
0.00138977
0.00138955
0.00138938
0.00138885
0.0013884
0.0013886
0.00138888
0.00138865
0.00138829
0.00138789
0.00138797
0.00138785
0.00138816
0.00138869
0.00138859
0.00138839
0.00138807
0.00138772
0.00138763