/*--------------------------------*- C++ -*----------------------------------*\
  =========                 |
  \\      /  F ield         | OpenFOAM: The Open Source CFD Toolbox
   \\    /   O peration     | Website:  https://openfoam.org
    \\  /    A nd           | Version:  11
     \\/     M anipulation  |
\*---------------------------------------------------------------------------*/
FoamFile
{
    format      ascii;
    class       volScalarField;
    location    "0.094";
    object      omega;
}
// * * * * * * * * * * * * * * * * * * * * * * * * * * * * * * * * * * * * * //

dimensions      [0 0 -1 0 0 0 0];

internalField   nonuniform List<scalar> 
287084
(
55.02
55.8953
56.7942
57.6867
58.4433
58.9728
59.2592
59.3516
59.3588
59.3578
59.3573
59.3481
59.3477
59.3575
59.3563
59.3624
59.3687
59.364
59.3675
59.3692
59.3668
59.3622
59.3576
59.3719
59.3815
59.3819
59.3819
59.3763
59.3712
59.3721
59.3802
59.3788
59.3697
59.372
59.3739
59.3694
59.3681
59.3686
59.369
59.3664
59.3623
59.359
59.3519
59.3483
59.3429
59.3392
59.3366
59.3325
59.3297
59.3245
59.3115
59.3042
59.3124
59.3182
59.317
59.3146
59.3163
59.3166
59.3142
59.3047
59.3067
59.3136
59.312
59.3068
59.3045
59.3227
59.3303
59.3276
59.32
59.3167
59.324
59.3283
59.3253
59.3139
59.3128
59.3215
59.3174
59.3239
59.3328
59.3323
59.3322
59.3274
59.3207
59.3256
59.3374
59.3326
59.3366
59.3383
59.3345
59.319
55.0204
55.8954
56.7837
57.6691
58.4268
58.9679
59.2709
59.3672
59.3713
59.3771
59.3964
59.3884
59.3932
59.405
59.4048
59.4052
59.403
59.3966
59.3934
59.3923
59.3898
59.3821
59.3856
59.4074
59.4048
59.4124
59.4183
59.414
59.4144
59.4151
59.4141
59.4061
59.4021
59.3976
59.3832
59.3852
59.3887
59.3877
59.387
59.372
59.3736
59.3776
59.3771
59.377
59.3737
59.372
59.3605
59.3543
59.3616
59.3688
59.3676
59.3671
59.3635
59.3628
59.363
59.3606
59.3577
59.3538
59.3514
59.3493
59.3459
59.3347
59.3392
59.3557
59.3562
59.3532
59.3419
59.3459
59.357
59.3541
59.3539
59.3484
59.3536
59.3631
59.3677
59.3659
59.3604
59.3617
59.3593
59.3486
59.3502
59.3559
59.3555
59.3555
59.3493
59.3494
59.3466
59.3491
59.3496
59.3397
55.0205
55.8956
56.7804
57.6704
58.425
58.9569
59.2675
59.3844
59.4
59.3999
59.3996
59.3893
59.3918
59.3976
59.3964
59.3961
59.3849
59.3889
59.4102
59.411
59.4095
59.4092
59.399
59.4032
59.4161
59.4138
59.4141
59.4137
59.4137
59.409
59.4089
59.4057
59.4039
59.4027
59.4027
59.4018
59.4017
59.4016
59.4004
59.3976
59.3915
59.3767
59.3659
59.3676
59.3711
59.3695
59.3682
59.3569
59.3572
59.3648
59.3641
59.3623
59.3623
59.3624
59.3582
59.3577
59.3578
59.3565
59.3561
59.3516
59.3361
59.3358
59.3463
59.3498
59.3477
59.3363
59.3417
59.3592
59.3532
59.359
59.3627
59.3613
59.3605
59.361
59.3615
59.3594
59.3586
59.3439
59.3424
59.3452
59.3459
59.3459
59.3409
59.3436
59.3405
59.3475
59.3594
59.3595
59.3588
59.3428
55.0199
55.8934
56.7832
57.6694
58.4194
58.9516
59.264
59.3887
59.4056
59.4024
59.3993
59.4052
59.4112
59.4105
59.4104
59.4055
59.4042
59.3933
59.3959
59.4068
59.4014
59.4022
59.4015
59.3926
59.3936
59.4043
59.4043
59.4022
59.3987
59.3904
59.396
59.4076
59.3984
59.4038
59.4075
59.4052
59.4049
59.4052
59.4053
59.4012
59.4
59.3973
59.3976
59.3951
59.3896
59.3753
59.3676
59.3637
59.3628
59.3599
59.3481
59.3502
59.3552
59.3527
59.3512
59.3523
59.3539
59.3509
59.3442
59.3413
59.3518
59.3549
59.3539
59.3538
59.3519
59.3476
59.3478
59.3474
59.3408
59.3453
59.3593
59.3538
59.3578
59.3597
59.3577
59.355
59.3489
59.3511
59.3509
59.3588
59.3676
59.3658
59.3626
59.3568
59.3591
59.3639
59.3624
59.3637
59.3609
59.3443
55.0197
55.8926
56.7859
57.664
58.4177
58.9609
59.2514
59.3811
59.406
59.4063
59.4053
59.3924
59.3958
59.4021
59.3961
59.3976
59.3951
59.3853
59.3852
59.3965
59.3995
59.3965
59.3857
59.3891
59.403
59.3993
59.4006
59.4004
59.3942
59.3979
59.4053
59.3947
59.3989
59.4027
59.4024
59.4022
59.3978
59.3853
59.3848
59.3897
59.3827
59.3876
59.3893
59.3839
59.3847
59.3852
59.3818
59.3825
59.3827
59.3808
59.3808
59.3767
59.3744
59.369
59.3651
59.3625
59.3571
59.3439
59.3333
59.3389
59.3456
59.3447
59.3458
59.344
59.3414
59.3379
59.3267
59.3265
59.3422
59.3464
59.3437
59.3344
59.3363
59.3545
59.3515
59.3591
59.3678
59.3567
59.3603
59.3665
59.3577
59.363
59.3662
59.3648
59.3639
59.3505
59.3529
59.3574
59.3545
59.3446
55.0198
55.8936
56.7818
57.6641
58.426
58.9572
59.245
59.3519
59.3973
59.3978
59.3898
59.3944
59.3978
59.3972
59.397
59.3891
59.3836
59.3898
59.4025
59.4029
59.402
59.402
59.3987
59.3893
59.3928
59.3971
59.3892
59.3872
59.4008
59.4089
59.4
59.4052
59.4084
59.4071
59.4069
59.4033
59.4006
59.387
59.3795
59.3764
59.3685
59.3728
59.3779
59.3746
59.3743
59.3747
59.3739
59.3653
59.3544
59.3525
59.3567
59.3583
59.3583
59.3507
59.3493
59.3574
59.36
59.3584
59.3568
59.3553
59.3529
59.346
59.3488
59.3512
59.3485
59.3428
59.3393
59.3469
59.3461
59.354
59.3668
59.3663
59.3644
59.3625
59.3594
59.3481
59.3459
59.3518
59.3488
59.356
59.3619
59.3614
59.3613
59.3534
59.3537
59.3487
59.3542
59.361
59.3583
59.3485
55.0194
55.8924
56.7831
57.6616
58.4305
58.9493
59.2458
59.3711
59.3921
59.3941
59.3918
59.3887
59.3815
59.3862
59.3972
59.3904
59.3988
59.4269
59.4275
59.4231
59.4282
59.4338
59.4332
59.4331
59.428
59.4271
59.4183
59.4207
59.4224
59.4198
59.4202
59.4184
59.4165
59.4101
59.4012
59.401
59.4009
59.3978
59.393
59.3832
59.3842
59.3857
59.3835
59.3812
59.3774
59.3722
59.3719
59.3731
59.3721
59.3723
59.3686
59.3602
59.3497
59.3487
59.3524
59.3511
59.352
59.3493
59.3377
59.3399
59.3499
59.3491
59.3495
59.3504
59.35
59.3369
59.3364
59.3473
59.3516
59.349
59.3385
59.3416
59.3494
59.348
59.3461
59.3443
59.3491
59.347
59.3507
59.3516
59.3499
59.3455
59.3506
59.3613
59.3625
59.3602
59.3471
59.3503
59.3563
59.3439
55.0212
55.8892
56.7849
57.6714
58.4126
58.9426
59.2557
59.4028
59.4353
59.4348
59.4272
59.426
59.4312
59.4304
59.4304
59.4251
59.4317
59.4369
59.4356
59.4349
59.427
59.4258
59.42
59.4252
59.4346
59.427
59.4327
59.436
59.4325
59.4325
59.4293
59.4297
59.4296
59.4283
59.4283
59.4283
59.4254
59.4207
59.4032
59.3941
59.3894
59.3901
59.3909
59.3898
59.3893
59.3832
59.3826
59.3806
59.3766
59.3737
59.3716
59.3686
59.3568
59.3593
59.3666
59.365
59.3616
59.3563
59.3567
59.3536
59.3602
59.3681
59.3625
59.3662
59.3707
59.3697
59.3694
59.3633
59.3603
59.3516
59.3431
59.3526
59.3651
59.3636
59.3615
59.3523
59.3498
59.3616
59.3692
59.3651
59.3653
59.365
59.3604
59.3536
59.3565
59.3629
59.3585
59.3587
59.3581
59.3454
55.02
55.8926
56.7805
57.6685
58.4207
58.9494
59.2518
59.3745
59.3921
59.3926
59.3924
59.3794
59.3829
59.4045
59.4004
59.4073
59.4157
59.4042
59.4036
59.416
59.4161
59.425
59.4353
59.4245
59.4226
59.4271
59.4227
59.4286
59.4373
59.4277
59.433
59.4369
59.436
59.4357
59.4314
59.4303
59.4248
59.4233
59.419
59.4103
59.3974
59.3903
59.3849
59.3686
59.3664
59.3721
59.3627
59.3655
59.3746
59.3713
59.3724
59.3723
59.3705
59.371
59.3714
59.3681
59.362
59.3485
59.348
59.3529
59.3511
59.3408
59.3408
59.3503
59.3461
59.3501
59.3519
59.3503
59.3503
59.3427
59.3522
59.3658
59.3604
59.36
59.3605
59.3603
59.3559
59.3512
59.3536
59.3533
59.3615
59.3764
59.3759
59.3762
59.3756
59.3734
59.3702
59.3677
59.363
59.3471
55.0243
55.8868
56.7803
57.6703
58.4207
58.9504
59.2517
59.3606
59.3724
59.3666
59.3724
59.3968
59.3987
59.396
59.3862
59.3853
59.3962
59.4107
59.4097
59.4087
59.4087
59.4049
59.4043
59.3956
59.4017
59.4111
59.4074
59.4072
59.4033
59.4043
59.4034
59.4098
59.4116
59.4097
59.4098
59.4078
59.4065
59.4014
59.4002
59.3954
59.3798
59.3805
59.382
59.3811
59.381
59.3784
59.377
59.3701
59.3665
59.3621
59.3527
59.3433
59.3361
59.3343
59.334
59.3259
59.3291
59.3319
59.3254
59.3213
59.3318
59.3493
59.3438
59.3483
59.3507
59.3496
59.3491
59.3363
59.3361
59.3469
59.347
59.3473
59.3474
59.3455
59.3459
59.3436
59.339
59.3343
59.3453
59.3607
59.3606
59.3596
59.3468
59.3474
59.3588
59.3548
59.361
59.3653
59.362
59.3502
55.0213
55.891
56.7824
57.6662
58.4185
58.9527
59.2567
59.3627
59.3693
59.374
59.3888
59.3878
59.3856
59.3792
59.3841
59.3881
59.3817
59.3876
59.4048
59.404
59.4191
59.4309
59.4313
59.4314
59.4257
59.4239
59.4136
59.41
59.4194
59.4217
59.4195
59.4166
59.4104
59.4077
59.4003
59.4054
59.4091
59.3973
59.4002
59.4045
59.404
59.4038
59.399
59.3982
59.3946
59.3882
59.37
59.3484
59.348
59.35
59.3389
59.342
59.3496
59.3455
59.3469
59.3469
59.3456
59.3438
59.3431
59.3338
59.3372
59.3467
59.3473
59.3473
59.3375
59.343
59.3498
59.3493
59.3491
59.3378
59.3412
59.3461
59.3352
59.3355
59.3513
59.3569
59.3562
59.3558
59.3444
59.3445
59.3512
59.3427
59.3424
59.3593
59.3667
59.3627
59.3647
59.3653
59.3624
59.3489
55.0192
55.8929
56.7822
57.6657
58.4221
58.9476
59.2509
59.3823
59.4054
59.4075
59.4051
59.401
59.396
59.4045
59.4195
59.4113
59.4171
59.4221
59.4195
59.4203
59.4164
59.4278
59.4355
59.4346
59.4346
59.4266
59.4332
59.4395
59.4356
59.4373
59.4408
59.4393
59.4375
59.4371
59.4347
59.4297
59.4252
59.4229
59.4224
59.42
59.4155
59.4076
59.4014
59.3891
59.3748
59.3637
59.3599
59.3575
59.3554
59.3525
59.3468
59.3354
59.3382
59.3465
59.3537
59.354
59.3436
59.3479
59.355
59.351
59.3514
59.3521
59.351
59.3363
59.3343
59.3506
59.356
59.3546
59.3546
59.3466
59.3519
59.3605
59.3597
59.359
59.3492
59.3537
59.3587
59.3574
59.3569
59.347
59.3512
59.3591
59.3571
59.3501
59.3504
59.3593
59.3588
59.3589
59.3582
59.3473
55.0221
55.8872
56.787
57.6698
58.4112
58.943
59.2632
59.3884
59.4022
59.4005
59.4101
59.4186
59.4197
59.4178
59.4186
59.413
59.4161
59.4403
59.4426
59.4397
59.4301
59.4331
59.4415
59.4309
59.4332
59.4451
59.4373
59.4421
59.45
59.4388
59.4426
59.4458
59.4446
59.4443
59.4411
59.4369
59.4285
59.4227
59.4187
59.4145
59.4058
59.4001
59.3962
59.3932
59.3892
59.3808
59.3748
59.3592
59.3546
59.3594
59.3627
59.3613
59.3598
59.3575
59.3556
59.3555
59.3549
59.3553
59.3533
59.3506
59.3447
59.3444
59.3406
59.3474
59.3575
59.3554
59.3553
59.3563
59.3562
59.3495
59.3432
59.3498
59.3608
59.3592
59.3571
59.3458
59.3462
59.3619
59.3645
59.3629
59.3617
59.3544
59.3565
59.3631
59.3607
59.3609
59.361
59.362
59.3582
59.3453
55.0209
55.8926
56.7795
57.6634
58.4301
58.9486
59.2474
59.3588
59.3671
59.3681
59.3718
59.365
59.3687
59.3798
59.3806
59.3823
59.3787
59.3862
59.4044
59.4123
59.4093
59.4097
59.4051
59.4067
59.4309
59.4416
59.4277
59.4271
59.4337
59.4275
59.432
59.4367
59.4302
59.4296
59.4302
59.43
59.4261
59.4148
59.4046
59.3986
59.3874
59.3775
59.3744
59.3684
59.3689
59.3691
59.3664
59.3585
59.3607
59.3684
59.3693
59.3669
59.3646
59.3627
59.3597
59.3531
59.3492
59.3463
59.3373
59.3431
59.3507
59.3501
59.3499
59.3398
59.3415
59.3468
59.3448
59.3456
59.3446
59.3349
59.3346
59.3534
59.3605
59.36
59.3612
59.3594
59.3575
59.3546
59.3536
59.3512
59.3428
59.349
59.37
59.3683
59.3688
59.3688
59.3658
59.3651
59.3622
59.3514
55.0212
55.8896
56.7839
57.6724
58.4121
58.9388
59.263
59.3954
59.4137
59.4186
59.4232
59.4196
59.4174
59.4164
59.4152
59.4225
59.4267
59.4219
59.4264
59.4283
59.421
59.421
59.438
59.4443
59.4379
59.4461
59.4562
59.4438
59.4478
59.4517
59.4388
59.4423
59.4437
59.435
59.4322
59.4329
59.4343
59.432
59.43
59.424
59.4169
59.409
59.392
59.3765
59.3644
59.3588
59.356
59.3511
59.3445
59.343
59.3433
59.3426
59.3418
59.3347
59.3328
59.3317
59.3387
59.3532
59.3531
59.3532
59.349
59.3411
59.346
59.3562
59.3548
59.3498
59.353
59.3643
59.3646
59.3637
59.35
59.3509
59.3578
59.3595
59.3572
59.3435
59.3466
59.3636
59.365
59.3632
59.3621
59.3593
59.3472
59.3507
59.362
59.3634
59.3611
59.358
59.3568
59.3416
55.0189
55.895
56.7852
57.6596
58.4255
58.9458
59.2493
59.3798
59.4034
59.4024
59.3989
59.3949
59.3965
59.397
59.3927
59.3916
59.4051
59.4153
59.414
59.4092
59.4118
59.4154
59.4087
59.4169
59.4297
59.4186
59.4204
59.4355
59.4385
59.4363
59.4361
59.4324
59.4196
59.4164
59.4128
59.4052
59.4034
59.4017
59.3987
59.3962
59.3956
59.3927
59.3905
59.3894
59.3901
59.3884
59.3855
59.3773
59.3734
59.3655
59.345
59.3376
59.3423
59.344
59.3414
59.333
59.335
59.3389
59.3388
59.3651
59.3789
59.3783
59.3781
59.3742
59.3703
59.358
59.3592
59.3692
59.3638
59.3694
59.3729
59.3684
59.3703
59.3739
59.3724
59.368
59.355
59.3502
59.3544
59.3583
59.3557
59.3462
59.3539
59.3652
59.3633
59.3594
59.3553
59.354
59.3538
59.3477
55.0204
55.891
56.7833
57.6732
58.4144
58.9339
59.2553
59.4093
59.4405
59.4405
59.4396
59.4327
59.4315
59.429
59.4309
59.4434
59.448
59.4461
59.446
59.4371
59.4382
59.446
59.4471
59.4474
59.4396
59.4431
59.4479
59.4508
59.4512
59.4419
59.4464
59.4475
59.4415
59.4414
59.44
59.4396
59.4384
59.4355
59.4303
59.4256
59.421
59.4144
59.4001
59.3859
59.3749
59.3687
59.3645
59.3622
59.3591
59.3523
59.3346
59.3263
59.3298
59.3353
59.333
59.324
59.3321
59.3524
59.3499
59.3543
59.3564
59.3538
59.3448
59.3485
59.3555
59.3481
59.3468
59.3566
59.3606
59.3604
59.3604
59.3577
59.35
59.3501
59.3647
59.3666
59.363
59.3627
59.3615
59.3534
59.3485
59.3578
59.3661
59.3641
59.3637
59.362
59.3626
59.3632
59.359
59.3442
55.0203
55.8919
56.7806
57.6754
58.4131
58.9341
59.2622
59.405
59.4285
59.4361
59.446
59.4455
59.4455
59.4415
59.4328
59.4338
59.437
59.4298
59.4358
59.4457
59.4362
59.4406
59.4554
59.4469
59.4467
59.4638
59.4687
59.4656
59.4663
59.4668
59.4676
59.4648
59.4588
59.4569
59.4545
59.4514
59.4477
59.4432
59.4344
59.4217
59.4117
59.4041
59.3937
59.3851
59.3789
59.3747
59.3671
59.3488
59.3321
59.3364
59.3472
59.3455
59.3461
59.3452
59.3346
59.3348
59.3463
59.346
59.3449
59.3427
59.3384
59.3403
59.3598
59.3678
59.3627
59.3659
59.3707
59.3695
59.3688
59.3641
59.3512
59.3556
59.3708
59.3686
59.3689
59.3651
59.3701
59.3725
59.3649
59.3665
59.3672
59.3646
59.3517
59.3515
59.3625
59.3651
59.3633
59.3623
59.359
59.3428
55.021
55.8893
56.7855
57.6719
58.4117
58.9403
59.255
59.4026
59.4306
59.4277
59.4283
59.4283
59.4261
59.4233
59.4329
59.436
59.4337
59.4336
59.426
59.4333
59.4521
59.4529
59.4538
59.4486
59.4483
59.4473
59.4477
59.4421
59.4462
59.4477
59.4429
59.4443
59.4409
59.4385
59.437
59.4322
59.4163
59.3993
59.3914
59.3839
59.3836
59.3838
59.3802
59.3804
59.3811
59.3821
59.3801
59.3763
59.3678
59.345
59.3311
59.3342
59.3394
59.3385
59.3382
59.3279
59.3317
59.3484
59.3445
59.3422
59.3437
59.3412
59.3417
59.3593
59.3693
59.3676
59.3645
59.3585
59.3556
59.3499
59.3471
59.3503
59.3516
59.3471
59.354
59.3627
59.363
59.3631
59.3509
59.3548
59.3656
59.3591
59.3632
59.3648
59.3632
59.3628
59.3621
59.3602
59.3557
59.341
55.0169
55.8949
56.785
57.6679
58.4139
58.946
59.2587
59.3877
59.4067
59.4034
59.4031
59.4025
59.3995
59.4036
59.4094
59.4074
59.4002
59.4002
59.418
59.4244
59.423
59.4186
59.4204
59.4459
59.465
59.4565
59.4626
59.4671
59.461
59.4618
59.4615
59.4587
59.4566
59.4559
59.4526
59.4493
59.443
59.4372
59.4293
59.4231
59.4131
59.4046
59.3975
59.3872
59.3806
59.3675
59.3564
59.3467
59.3427
59.339
59.3316
59.3181
59.3259
59.3562
59.3579
59.3571
59.3646
59.3838
59.3842
59.3843
59.3806
59.3805
59.379
59.3713
59.3659
59.3691
59.3738
59.373
59.3742
59.3718
59.3606
59.3651
59.374
59.373
59.3732
59.3695
59.3688
59.3684
59.3693
59.3664
59.357
59.3588
59.3612
59.3505
59.3538
59.3556
59.3525
59.3523
59.349
59.3374
55.0205
55.8923
56.7824
57.6653
58.4196
58.9566
59.2527
59.35
59.3589
59.3642
59.3859
59.3865
59.3887
59.3891
59.3821
59.3857
59.3997
59.3981
59.3984
59.3974
59.4059
59.4433
59.4476
59.4553
59.4689
59.463
59.4636
59.4664
59.4658
59.4643
59.4629
59.4595
59.4585
59.4563
59.4528
59.4463
59.4301
59.417
59.4087
59.4025
59.3973
59.3932
59.3894
59.3865
59.381
59.3685
59.358
59.3513
59.3363
59.3291
59.3297
59.3258
59.332
59.3368
59.3363
59.3362
59.3297
59.3253
59.3267
59.3274
59.3184
59.3219
59.3299
59.3305
59.3307
59.3191
59.3239
59.3334
59.3334
59.335
59.3308
59.3406
59.3631
59.3659
59.3634
59.3624
59.3634
59.3644
59.3611
59.3505
59.3497
59.3573
59.3588
59.3598
59.3586
59.3576
59.3544
59.3506
59.3469
59.3355
55.0224
55.8866
56.7879
57.6693
58.4114
58.9439
59.2612
59.3974
59.4221
59.4219
59.4197
59.4118
59.4106
59.425
59.4325
59.425
59.431
59.4359
59.4338
59.4339
59.4288
59.4388
59.4585
59.467
59.4689
59.4648
59.4641
59.4559
59.4609
59.4627
59.4607
59.4603
59.4568
59.4548
59.4473
59.4421
59.4328
59.425
59.4178
59.4127
59.4062
59.4009
59.395
59.3898
59.3864
59.3825
59.3755
59.3618
59.3421
59.3344
59.3323
59.3293
59.3197
59.3182
59.3438
59.3579
59.3525
59.3517
59.3581
59.3595
59.3672
59.3738
59.3619
59.3619
59.3764
59.3786
59.3735
59.3781
59.3798
59.3768
59.3764
59.3718
59.3672
59.3652
59.359
59.3636
59.3784
59.368
59.3676
59.3765
59.3771
59.3838
59.3864
59.3838
59.3858
59.3837
59.3813
59.3805
59.3741
59.3514
55.0209
55.8905
56.7823
57.6749
58.4098
58.9411
59.2635
59.3926
59.4376
59.4393
59.4245
59.4259
59.4329
59.4324
59.4325
59.424
59.431
59.4436
59.4347
59.4364
59.4562
59.4613
59.4546
59.4588
59.4727
59.4654
59.4711
59.4776
59.4743
59.4737
59.4696
59.4697
59.4689
59.4662
59.4622
59.4552
59.4434
59.4331
59.4235
59.403
59.3849
59.3775
59.368
59.3626
59.3597
59.3575
59.3526
59.3401
59.3343
59.3399
59.3427
59.3404
59.3361
59.3309
59.3416
59.3727
59.3726
59.3676
59.372
59.3865
59.3874
59.3856
59.3832
59.3807
59.3705
59.3738
59.3763
59.3724
59.3721
59.3714
59.3639
59.364
59.3744
59.3689
59.3676
59.3802
59.3863
59.384
59.3796
59.3751
59.3721
59.3625
59.3651
59.3795
59.3796
59.3777
59.3764
59.3743
59.3693
59.3522
55.0209
55.8942
56.7762
57.6712
58.4207
58.9498
59.2519
59.3696
59.3846
59.3757
59.3784
59.3864
59.3826
59.3826
59.3803
59.3901
59.415
59.4146
59.4257
59.4582
59.4665
59.4651
59.4597
59.4627
59.4647
59.462
59.4538
59.454
59.4595
59.4537
59.4539
59.4534
59.453
59.4492
59.4464
59.4422
59.4396
59.4342
59.4235
59.4065
59.3969
59.3793
59.3653
59.359
59.356
59.3507
59.3333
59.3313
59.3339
59.3262
59.3302
59.332
59.3217
59.3262
59.3302
59.3242
59.3236
59.3235
59.3186
59.3237
59.3354
59.3335
59.3334
59.3285
59.3375
59.3618
59.3632
59.3626
59.3612
59.3591
59.3499
59.3483
59.3561
59.3568
59.361
59.3621
59.3614
59.3607
59.3495
59.3518
59.3606
59.3576
59.3573
59.3569
59.3513
59.3495
59.3603
59.3635
59.3605
59.3485
55.019
55.8916
56.787
57.6646
58.4177
58.9457
59.258
59.3904
59.4139
59.4105
59.4105
59.4105
59.4056
59.4116
59.423
59.4212
59.4212
59.4127
59.4152
59.4291
59.4287
59.429
59.4282
59.4384
59.4527
59.442
59.4408
59.4596
59.4681
59.467
59.4668
59.4637
59.4608
59.4556
59.4484
59.4403
59.4329
59.4256
59.4188
59.414
59.4056
59.3967
59.3894
59.3848
59.3768
59.3665
59.3549
59.3475
59.3446
59.3394
59.3273
59.3154
59.3236
59.3346
59.329
59.3332
59.3351
59.3327
59.3293
59.3184
59.3184
59.3364
59.3379
59.3301
59.3266
59.3376
59.3503
59.3518
59.3496
59.344
59.3436
59.3406
59.3305
59.3313
59.3417
59.3417
59.3395
59.3381
59.3468
59.354
59.3515
59.3417
59.3443
59.3481
59.3416
59.3512
59.3625
59.3624
59.3622
59.346
55.0218
55.8879
56.7863
57.6708
58.4109
58.9435
59.2644
59.39
59.4065
59.4086
59.4211
59.4223
59.416
59.4236
59.4378
59.429
59.4347
59.4492
59.4397
59.4449
59.4578
59.4533
59.4497
59.4554
59.4617
59.4677
59.4756
59.4652
59.4689
59.4736
59.4724
59.4721
59.4689
59.4675
59.4623
59.4523
59.4366
59.425
59.4145
59.4052
59.3981
59.3918
59.3873
59.384
59.3813
59.3789
59.3746
59.3662
59.3491
59.3296
59.3253
59.324
59.3242
59.3203
59.3241
59.3361
59.3346
59.3325
59.321
59.321
59.3276
59.3274
59.3298
59.3305
59.3248
59.3299
59.3449
59.3412
59.3409
59.3392
59.3417
59.3422
59.3403
59.3352
59.3426
59.3574
59.3563
59.3542
59.3496
59.3558
59.3587
59.3575
59.3572
59.3461
59.3481
59.3552
59.3516
59.352
59.3508
59.3406
55.0203
55.8919
56.7804
57.6757
58.4126
58.9361
59.2591
59.4102
59.4393
59.4371
59.437
59.4368
59.4342
59.4285
59.4345
59.4398
59.4336
59.4394
59.4506
59.4417
59.447
59.4626
59.4576
59.455
59.4601
59.4613
59.4688
59.4743
59.4641
59.4667
59.4688
59.4647
59.4657
59.4647
59.4616
59.4559
59.4473
59.4349
59.4241
59.4157
59.4087
59.4037
59.3978
59.394
59.3893
59.3789
59.374
59.3641
59.3578
59.3553
59.3531
59.348
59.3303
59.3301
59.3568
59.3808
59.3843
59.3772
59.3828
59.3861
59.3832
59.3733
59.3721
59.378
59.3707
59.3749
59.3804
59.3766
59.3788
59.3827
59.3812
59.3774
59.3648
59.3655
59.368
59.3615
59.3609
59.3608
59.3557
59.3585
59.3707
59.3712
59.369
59.3603
59.3572
59.3639
59.3687
59.3678
59.3668
59.3526
55.0209
55.8905
56.7823
57.6749
58.4097
58.9411
59.2635
59.3928
59.4378
59.4396
59.4288
59.4243
59.4314
59.4382
59.4361
59.4285
59.4317
59.4432
59.4416
59.4418
59.4362
59.4405
59.4566
59.4532
59.4539
59.4727
59.4821
59.4785
59.4781
59.4786
59.4796
59.4766
59.4737
59.4683
59.463
59.4524
59.4413
59.4326
59.4233
59.4029
59.3872
59.3728
59.3668
59.3612
59.3584
59.3562
59.352
59.3416
59.3356
59.3403
59.3452
59.3422
59.3299
59.3281
59.3467
59.3524
59.3491
59.3609
59.3762
59.3737
59.377
59.3809
59.3792
59.3752
59.3656
59.3613
59.3671
59.3733
59.3706
59.3706
59.3699
59.3653
59.3633
59.3563
59.3622
59.3738
59.3634
59.3682
59.3732
59.3703
59.3701
59.3707
59.3708
59.3657
59.3632
59.3482
59.347
59.356
59.3563
59.3486
55.0225
55.8864
56.7881
57.6694
58.4104
58.9471
59.2569
59.3972
59.4221
59.4131
59.4172
59.4255
59.4232
59.4233
59.4194
59.4256
59.4271
59.4345
59.4416
59.4355
59.4342
59.4471
59.4628
59.4581
59.4625
59.4674
59.4664
59.4652
59.4508
59.4514
59.4529
59.448
59.4472
59.4438
59.4413
59.4387
59.4386
59.4384
59.4353
59.4263
59.412
59.4005
59.3919
59.3848
59.3807
59.3769
59.3691
59.3505
59.3306
59.3284
59.3339
59.3333
59.3241
59.3228
59.3488
59.3644
59.3634
59.3589
59.3617
59.3788
59.3834
59.3814
59.3683
59.368
59.374
59.37
59.3699
59.3779
59.3797
59.3767
59.3699
59.3659
59.3688
59.3686
59.3731
59.3775
59.3766
59.3759
59.3656
59.3625
59.3688
59.3674
59.3738
59.3792
59.3793
59.3793
59.3757
59.3753
59.3702
59.3518
55.021
55.8917
56.782
57.6665
58.4203
58.9513
59.2535
59.366
59.3794
59.3724
59.3751
59.3881
59.3865
59.3937
59.3977
59.397
59.3959
59.4014
59.4133
59.4074
59.4068
59.4237
59.4525
59.4522
59.4477
59.4515
59.4585
59.4459
59.4427
59.446
59.4506
59.448
59.4419
59.4426
59.4417
59.4386
59.4321
59.4297
59.4237
59.4109
59.396
59.3872
59.3811
59.3681
59.3614
59.3557
59.3381
59.3359
59.3412
59.3408
59.3356
59.3366
59.3425
59.3419
59.3395
59.3428
59.3474
59.3474
59.3473
59.3365
59.3311
59.3406
59.3486
59.346
59.3383
59.3344
59.3416
59.3408
59.3492
59.3592
59.3604
59.3582
59.3501
59.3459
59.3477
59.346
59.3511
59.3621
59.3579
59.3549
59.3617
59.3733
59.3718
59.3697
59.3657
59.3609
59.3658
59.3701
59.3667
59.3546
55.0194
55.8949
56.7844
57.6599
58.4263
58.9462
59.2484
59.3801
59.4013
59.3936
59.3997
59.4049
59.4045
59.4045
59.3932
59.3987
59.4113
59.4202
59.423
59.4174
59.4175
59.4159
59.4277
59.4617
59.4629
59.4573
59.457
59.456
59.4422
59.4407
59.4402
59.4399
59.4397
59.4362
59.4352
59.4318
59.4274
59.4201
59.4137
59.4078
59.4003
59.3942
59.3888
59.3842
59.3814
59.3767
59.3659
59.3613
59.3506
59.3468
59.345
59.3459
59.3461
59.3423
59.342
59.3403
59.3373
59.3271
59.3345
59.3584
59.3584
59.3576
59.3472
59.3467
59.3544
59.3579
59.3559
59.3517
59.3512
59.3492
59.3441
59.3455
59.3614
59.3645
59.3622
59.3582
59.3528
59.3601
59.3647
59.3589
59.3592
59.3589
59.3491
59.3502
59.3567
59.3562
59.356
59.3545
59.3537
59.3393
55.0189
55.8949
56.7851
57.6596
58.4257
58.9456
59.2514
59.3775
59.3946
59.3876
59.3916
59.3985
59.3979
59.3979
59.3876
59.394
59.4233
59.4273
59.4249
59.4167
59.4212
59.4368
59.4366
59.434
59.437
59.4483
59.443
59.4496
59.4526
59.451
59.4506
59.4461
59.444
59.4391
59.4289
59.4194
59.4118
59.4051
59.4
59.3946
59.3909
59.3883
59.3857
59.3833
59.379
59.3717
59.3634
59.36
59.3549
59.3439
59.3303
59.3276
59.3211
59.3196
59.3421
59.3627
59.3583
59.3638
59.3667
59.3639
59.3543
59.3529
59.3584
59.3542
59.3603
59.3648
59.3634
59.3627
59.3529
59.3586
59.3655
59.3575
59.3607
59.3618
59.3585
59.3591
59.3586
59.351
59.3551
59.3608
59.358
59.3576
59.3488
59.3539
59.358
59.3561
59.3537
59.3463
59.3439
59.3365
55.0207
55.8909
56.782
57.6744
58.4118
58.9379
59.2602
59.4049
59.4305
59.4273
59.4271
59.427
59.4206
59.422
59.4358
59.4401
59.4385
59.434
59.4337
59.4319
59.4406
59.448
59.4376
59.4396
59.4527
59.4459
59.4505
59.4597
59.4476
59.4517
59.4536
59.4515
59.4508
59.4454
59.443
59.4352
59.43
59.421
59.4139
59.4082
59.4028
59.3989
59.3941
59.3891
59.3802
59.3615
59.352
59.3478
59.3362
59.3376
59.3515
59.3459
59.3522
59.3571
59.3568
59.3568
59.3528
59.346
59.3484
59.3519
59.3516
59.3505
59.3527
59.3558
59.3549
59.3548
59.3455
59.3494
59.3528
59.3506
59.3491
59.3543
59.3724
59.3743
59.37
59.3705
59.3705
59.3674
59.3668
59.3633
59.3638
59.3608
59.3507
59.3471
59.3585
59.3654
59.3612
59.3616
59.3608
59.3467
55.02
55.8922
56.7812
57.6768
58.41
58.9363
59.2582
59.4027
59.4389
59.439
59.4369
59.4335
59.4331
59.428
59.4283
59.4347
59.4349
59.4298
59.4343
59.453
59.4515
59.46
59.4662
59.4535
59.453
59.4585
59.4535
59.4588
59.4603
59.4587
59.4585
59.4563
59.4557
59.4529
59.4511
59.4475
59.4407
59.434
59.4288
59.4185
59.4104
59.4058
59.4011
59.3914
59.384
59.3799
59.3743
59.3714
59.3664
59.3608
59.3473
59.3394
59.3482
59.355
59.3525
59.3434
59.3424
59.351
59.348
59.3541
59.3572
59.3512
59.3507
59.3506
59.3481
59.3453
59.3489
59.3485
59.355
59.3756
59.3789
59.3773
59.3743
59.3653
59.369
59.3775
59.3686
59.3736
59.3768
59.3696
59.3728
59.3741
59.3726
59.3745
59.372
59.3652
59.3609
59.3584
59.3543
59.3415
55.0182
55.8924
56.7873
57.6674
58.4109
58.9495
59.2582
59.3833
59.4074
59.4071
59.4048
59.3924
59.3936
59.3973
59.3892
59.3859
59.3993
59.4138
59.4127
59.4102
59.4087
59.4222
59.4425
59.4412
59.4319
59.4359
59.4422
59.4421
59.4416
59.4248
59.4243
59.4254
59.4237
59.4236
59.4192
59.4152
59.4088
59.3983
59.3938
59.3925
59.3901
59.3875
59.3864
59.3832
59.376
59.3654
59.3594
59.3542
59.3439
59.3277
59.3292
59.3452
59.348
59.3437
59.3443
59.3442
59.3406
59.3342
59.3413
59.3522
59.3592
59.364
59.3562
59.3579
59.3584
59.3562
59.3527
59.3517
59.3478
59.3519
59.354
59.3532
59.3509
59.3522
59.3547
59.3452
59.3489
59.3594
59.3584
59.3588
59.3553
59.3551
59.3488
59.3549
59.3621
59.3608
59.3598
59.3565
59.3537
59.343
55.0211
55.8897
56.784
57.6715
58.4138
58.9387
59.2567
59.4046
59.4369
59.4364
59.4323
59.4281
59.4293
59.4286
59.4296
59.4298
59.4286
59.424
59.4292
59.4411
59.44
59.4382
59.4336
59.4374
59.4549
59.4523
59.4566
59.4609
59.4605
59.4602
59.4548
59.4506
59.4468
59.44
59.4361
59.4319
59.4278
59.4249
59.4217
59.4182
59.414
59.4079
59.4027
59.3922
59.3811
59.3756
59.369
59.3651
59.3587
59.3428
59.3329
59.3416
59.3493
59.3488
59.3488
59.34
59.3433
59.3491
59.3423
59.3437
59.3412
59.3394
59.3338
59.3389
59.3475
59.3352
59.3375
59.3465
59.3468
59.3474
59.3437
59.3535
59.3565
59.3639
59.3684
59.3591
59.3626
59.3674
59.3674
59.3672
59.3592
59.3527
59.351
59.3503
59.3516
59.3518
59.3485
59.3456
59.3445
59.3373
55.0207
55.8919
56.7803
57.6672
58.4215
58.9541
59.2516
59.3529
59.3608
59.3605
59.3785
59.3967
59.3967
59.3936
59.3817
59.3821
59.4025
59.4072
59.4013
59.4066
59.4236
59.4212
59.4199
59.4293
59.4389
59.4421
59.458
59.4615
59.4595
59.4582
59.4561
59.4562
59.4563
59.4528
59.4472
59.4377
59.4304
59.4254
59.4169
59.4097
59.4049
59.4016
59.396
59.3924
59.3893
59.3832
59.368
59.3586
59.3555
59.3478
59.3529
59.3578
59.3575
59.3573
59.3489
59.3415
59.3424
59.3435
59.3413
59.335
59.3368
59.3444
59.343
59.3363
59.336
59.3515
59.3564
59.3552
59.3556
59.353
59.3471
59.3383
59.3451
59.3576
59.3561
59.354
59.3437
59.3467
59.3503
59.3465
59.3474
59.3474
59.3425
59.3475
59.3608
59.35
59.3543
59.3625
59.3597
59.349
55.0218
55.8879
56.7865
57.6704
58.4096
58.9487
59.2502
59.3987
59.4391
59.4423
59.4405
59.4357
59.4354
59.432
59.4223
59.4168
59.4202
59.4159
59.4216
59.4341
59.4295
59.4296
59.4297
59.4246
59.4265
59.4383
59.4319
59.438
59.4437
59.4411
59.4406
59.4404
59.4405
59.4377
59.4366
59.4338
59.43
59.4236
59.4097
59.4009
59.3972
59.3924
59.3896
59.3864
59.3841
59.3816
59.3767
59.3691
59.3652
59.3538
59.3556
59.36
59.3592
59.3575
59.3595
59.3622
59.3621
59.3621
59.3557
59.3551
59.3517
59.3496
59.3392
59.3412
59.3448
59.3428
59.3366
59.3364
59.3443
59.3445
59.3415
59.3471
59.3629
59.3623
59.3618
59.3497
59.35
59.3643
59.3669
59.3653
59.3649
59.3614
59.3483
59.3513
59.3623
59.3636
59.3613
59.3582
59.357
59.3417
55.0192
55.8929
56.7822
57.6657
58.4221
58.9476
59.2511
59.3811
59.4067
59.4071
59.4076
59.4045
59.397
59.4026
59.4246
59.4188
59.4259
59.4342
59.4288
59.433
59.4349
59.4325
59.4247
59.4238
59.4364
59.4388
59.4372
59.4333
59.4379
59.442
59.4362
59.4389
59.4393
59.4375
59.4382
59.4358
59.433
59.428
59.4244
59.4169
59.3984
59.386
59.3815
59.3769
59.3668
59.3605
59.3673
59.3708
59.3697
59.3695
59.3647
59.362
59.3599
59.3564
59.3566
59.3573
59.3566
59.3593
59.3598
59.3554
59.3444
59.3386
59.3361
59.3324
59.3295
59.3387
59.3468
59.3461
59.3458
59.3364
59.3449
59.3584
59.3581
59.3576
59.3479
59.3534
59.3592
59.3584
59.3579
59.3454
59.3474
59.3679
59.3703
59.3678
59.3685
59.3688
59.3682
59.3659
59.3613
59.3464
55.0216
55.8912
56.7803
57.6658
58.4219
58.9593
59.2468
59.3482
59.3653
59.3762
59.3958
59.4033
59.4014
59.3899
59.3902
59.4019
59.4038
59.4004
59.4042
59.41
59.4064
59.4064
59.4013
59.4031
59.4243
59.4291
59.4268
59.4232
59.4166
59.4154
59.4091
59.4144
59.4197
59.4175
59.4159
59.4137
59.4133
59.4133
59.4128
59.406
59.4047
59.4013
59.399
59.3965
59.3921
59.3872
59.3815
59.3704
59.3519
59.3458
59.3413
59.3391
59.3342
59.3379
59.3538
59.3537
59.3515
59.3419
59.3403
59.3448
59.3428
59.3453
59.3482
59.3465
59.3383
59.34
59.3417
59.335
59.3321
59.3395
59.3444
59.3519
59.3586
59.3496
59.3548
59.3584
59.3559
59.3513
59.3462
59.3529
59.3526
59.361
59.371
59.3706
59.3705
59.3592
59.3637
59.3689
59.3653
59.3518
55.0196
55.8925
56.7842
57.6626
58.4258
58.9468
59.2473
59.3734
59.392
59.3912
59.3899
59.3822
59.3834
59.3824
59.3913
59.3999
59.3988
59.3944
59.3948
59.418
59.4226
59.4197
59.4121
59.4095
59.4179
59.4277
59.4261
59.4282
59.4272
59.413
59.4145
59.4166
59.4108
59.4103
59.4083
59.4086
59.4081
59.4054
59.4
59.3994
59.3965
59.394
59.3892
59.3855
59.3823
59.3756
59.3598
59.3439
59.342
59.3395
59.3447
59.356
59.3516
59.3567
59.3586
59.3536
59.3554
59.3588
59.3571
59.3532
59.3408
59.339
59.3514
59.3536
59.3517
59.3506
59.3429
59.3528
59.3666
59.3576
59.3631
59.3725
59.3656
59.3703
59.3734
59.3724
59.3719
59.3585
59.3583
59.3652
59.3653
59.3635
59.3602
59.3599
59.3602
59.3603
59.3568
59.3567
59.3556
59.3455
55.0212
55.892
56.7807
57.6691
58.4194
58.9462
59.2524
59.3794
59.4006
59.3996
59.3974
59.3923
59.3879
59.4018
59.4175
59.4126
59.417
59.419
59.4169
59.4109
59.4141
59.4386
59.4435
59.442
59.4399
59.438
59.4299