/*--------------------------------*- C++ -*----------------------------------*\
  =========                 |
  \\      /  F ield         | OpenFOAM: The Open Source CFD Toolbox
   \\    /   O peration     | Website:  https://openfoam.org
    \\  /    A nd           | Version:  11
     \\/     M anipulation  |
\*---------------------------------------------------------------------------*/
FoamFile
{
    format      ascii;
    class       volScalarField;
    location    "0.094";
    object      p;
}
// * * * * * * * * * * * * * * * * * * * * * * * * * * * * * * * * * * * * * //

dimensions      [0 2 -2 0 0 0 0];

internalField   nonuniform List<scalar> 
287084
(
1.68032
1.39364
1.33765
1.26715
1.19828
1.14512
1.094
1.04674
1.00136
0.956884
0.913204
0.869107
0.824516
0.779779
0.734912
0.689724
0.64367
0.597302
0.551092
0.505233
0.459784
0.415237
0.371701
0.329432
0.287232
0.24906
0.217865
0.187936
0.161717
0.140471
0.119472
0.0988263
0.0815905
0.06906
0.0598646
0.0537126
0.0503806
0.0494785
0.0506894
0.0537043
0.0582157
0.0639291
0.070565
0.0778707
0.0856098
0.0935881
0.101576
0.10953
0.117094
0.124482
0.131318
0.137493
0.143379
0.148522
0.153
0.156694
0.15999
0.162505
0.164267
0.165464
0.165904
0.165775
0.165019
0.163686
0.161826
0.159397
0.156477
0.153034
0.149183
0.144907
0.140174
0.135065
0.129609
0.123817
0.117735
0.111308
0.104624
0.0977149
0.090527
0.0831441
0.0755366
0.0677474
0.0597476
0.0515721
0.0431401
0.0344533
0.0253267
0.0154777
0.00521377
0.00109082
1.54487
1.35222
1.30544
1.24716
1.18651
1.13689
1.08822
1.04236
0.997861
0.954004
0.910567
0.866673
0.822362
0.777779
0.732524
0.686779
0.640598
0.594208
0.547816
0.501745
0.456101
0.411426
0.367846
0.325839
0.285601
0.248197
0.214689
0.183414
0.156466
0.132434
0.110245
0.0913255
0.0758507
0.0639204
0.0551853
0.049431
0.0464279
0.0458467
0.0473666
0.0506809
0.055481
0.0614691
0.0683613
0.0759101
0.0838716
0.0920498
0.100241
0.108332
0.116126
0.123579
0.1306
0.137027
0.142876
0.148012
0.152522
0.15636
0.159583
0.162099
0.163926
0.165137
0.165671
0.165574
0.164857
0.16356
0.161705
0.159313
0.156386
0.152979
0.149123
0.144844
0.140138
0.13503
0.129579
0.123782
0.117703
0.111277
0.104594
0.097707
0.0905124
0.083131
0.0755487
0.0677725
0.0597769
0.0516629
0.0432858
0.0347894
0.025913
0.0169386
0.00750101
0.00210344
1.51799
1.34612
1.29765
1.24077
1.18235
1.13342
1.08549
1.03994
0.995414
0.951398
0.907568
0.863341
0.81865
0.773617
0.728036
0.681858
0.635237
0.588359
0.541445
0.494827
0.448703
0.403508
0.359528
0.317125
0.276757
0.239022
0.204685
0.173377
0.145087
0.120673
0.0993304
0.0810117
0.066009
0.0544608
0.0462199
0.0409867
0.0385239
0.0385056
0.0406024
0.0444949
0.0498592
0.0563924
0.0638067
0.0718379
0.0802495
0.0888376
0.0974045
0.105827
0.11391
0.121627
0.128809
0.135372
0.141473
0.146856
0.15157
0.155573
0.158911
0.161561
0.163472
0.164738
0.165304
0.165253
0.164572
0.163305
0.161481
0.159096
0.156223
0.152833
0.149002
0.14473
0.140026
0.134957
0.129528
0.12374
0.117653
0.11125
0.104584
0.09767
0.0905113
0.0831438
0.075561
0.0677933
0.0598448
0.0517071
0.0433823
0.0348302
0.0260268
0.0169004
0.00765652
0.00241172
1.47012
1.31131
1.26817
1.21626
1.16358
1.11823
1.07321
1.02969
0.986638
0.943611
0.900376
0.856465
0.811915
0.76669
0.72071
0.674045
0.626861
0.579357
0.531762
0.484401
0.43754
0.391617
0.346947
0.303988
0.263187
0.225022
0.189926
0.158045
0.129649
0.104728
0.0832107
0.0652067
0.0508302
0.0400129
0.032545
0.0281617
0.0265753
0.0274574
0.0304584
0.035242
0.0414693
0.0488296
0.0570209
0.0657805
0.0748643
0.0840662
0.0932013
0.10212
0.110681
0.11879
0.126371
0.133333
0.139651
0.145259
0.150156
0.154343
0.157817
0.160575
0.162616
0.163981
0.16467
0.164699
0.164101
0.162906
0.161125
0.15881
0.155963
0.15262
0.148815
0.144566
0.139905
0.134839
0.129415
0.123643
0.117569
0.111186
0.10453
0.097634
0.0904846
0.083126
0.0755569
0.067806
0.059865
0.0517787
0.0435173
0.0350351
0.0263654
0.0172258
0.00823796
0.00297568
1.44683
1.29687
1.25622
1.20635
1.15594
1.11159
1.06727
1.02402
0.980912
0.937642
0.893971
0.849569
0.804434
0.758484
0.711734
0.664234
0.616157
0.567692
0.519087
0.470679
0.42277
0.375801
0.330153
0.286285
0.244668
0.205718
0.169924
0.137446
0.108563
0.083517
0.0622975
0.0448792
0.0312527
0.0212785
0.0147682
0.0114299
0.0109503
0.0129777
0.0171398
0.0230738
0.0304256
0.0388623
0.0480739
0.0577889
0.0677555
0.0777657
0.0876341
0.0972136
0.106365
0.115003
0.123037
0.130399
0.137087
0.143037
0.148238
0.152691
0.156383
0.159338
0.161552
0.163059
0.163863
0.164007
0.1635
0.162379
0.160678
0.158411
0.155623
0.152329
0.148562
0.144346
0.139708
0.134679
0.129292
0.123543
0.117481
0.111118
0.10448
0.0975864
0.0904594
0.0831194
0.0755667
0.0678347
0.0599344
0.0518377
0.043599
0.0351051
0.0264128
0.0173104
0.00837261
0.0030689
1.42197
1.27364
1.23462
1.18666
1.13861
1.09621
1.05363
1.01174
0.969652
0.927028
0.883701
0.839349
0.793986
0.747552
0.700111
0.651766
0.602687
0.553104
0.503299
0.453605
0.404411
0.356133
0.309245
0.264199
0.221525
0.18165
0.145038
0.112039
0.0828902
0.0577691
0.0367551
0.019849
0.00698997
-0.00197902
-0.00731378
-0.00933361
-0.00841132
-0.00493196
0.000700198
0.00808605
0.0168434
0.0266263
0.0371054
0.0480002
0.0590572
0.0700629
0.0808389
0.0912314
0.101122
0.110414
0.119038
0.126931
0.134065
0.140407
0.145949
0.150693
0.154645
0.157824
0.160236
0.161914
0.162876
0.163147
0.162759
0.161742
0.160119
0.157934
0.15521
0.151971
0.148255
0.14408
0.139483
0.134482
0.129111
0.123391
0.117352
0.111011
0.104393
0.0975236
0.0904119
0.0830823
0.07555
0.0678299
0.0599395
0.051873
0.0436706
0.0351705
0.0265438
0.0174635
0.00855847
0.0032666
1.4037
1.25815
1.2209
1.1745
1.12798
1.08652
1.04456
1.00291
0.96078
0.917882
0.874079
0.829075
0.782912
0.735529
0.687015
0.63745
0.587057
0.53604
0.484718
0.433463
0.382662
0.332811
0.28438
0.237908
0.193931
0.152933
0.115428
0.0817516
0.0522494
0.0271109
0.006453
-0.00975415
-0.0216175
-0.0293527
-0.0332612
-0.0337127
-0.0311254
-0.025929
-0.0185714
-0.00948034
0.000932588
0.012292
0.0242587
0.0365415
0.0488784
0.0610544
0.0728879
0.0842363
0.0949787
0.10503
0.114321
0.122807
0.130464
0.137272
0.143222
0.14833
0.152596
0.156044
0.158695
0.16058
0.161719
0.162146
0.161893
0.160988
0.159472
0.15737
0.154722
0.151551
0.147888
0.143765
0.139214
0.134258
0.128926
0.123236
0.117222
0.110904
0.104307
0.097452
0.0903598
0.083052
0.075536
0.0678397
0.0599752
0.0519174
0.0437256
0.0352448
0.026599
0.0175081
0.0086211
0.00329418
1.38641
1.24113
1.20441
1.15883
1.1132
1.07259
1.03139
0.990323
0.948556
0.905773
0.861846
0.816421
0.769606
0.721342
0.671726
0.620883
0.569018
0.516399
0.463361
0.410288
0.357663
0.305957
0.255764
0.207616
0.162138
0.119858
0.0813243
0.046967
0.0171296
-0.00796108
-0.0281999
-0.0436168
-0.0543581
-0.0606833
-0.0629487
-0.0615805
-0.0570546
-0.0498624
-0.0404979
-0.0294313
-0.0171117
-0.00393685
0.0097348
0.0235994
0.0373905
0.0508925
0.0639293
0.0763571
0.0880699
0.098984
0.109043
0.118207
0.12646
0.13379
0.140198
0.145697
0.150308
0.154059
0.156974
0.159086
0.160426
0.161024
0.160919
0.160148
0.158743
0.156741
0.154174
0.151074
0.147478
0.143409
0.138908
0.133994
0.128693
0.123039
0.117053
0.110765
0.104195
0.0973646
0.0902906
0.0829984
0.0755037
0.0678212
0.0599694
0.0519355
0.0437647
0.0353007
0.0266944
0.0175572
0.00864671
0.00334072
1.37142
1.22697
1.19108
1.14621
1.10135
1.06126
1.02037
0.979359
0.937414
0.89423
0.849638
0.80342
0.755588
0.70611
0.655103
0.602677
0.549087
0.494586
0.439556
0.384421
0.329668
0.275878
0.223637
0.173589
0.126405
0.0826698
0.0430184
0.00788496
-0.0222946
-0.0473095
-0.0670176
-0.0814945
-0.0909181
-0.0955997
-0.0959713
-0.0925222
-0.0857998
-0.076355
-0.064739
-0.0514667
-0.0370186
-0.0218238
-0.00625866
0.00936029
0.024765
0.0397347
0.0540958
0.0677153
0.0804879
0.0923472
0.103241
0.113145
0.122045
0.129942
0.13685
0.142789
0.147785
0.151869
0.155073
0.157435
0.158993
0.159783
0.15985
0.159221
0.157941
0.156046
0.153574
0.150557
0.147031
0.143028
0.13858
0.133712
0.128457
0.12284
0.116886
0.110622
0.104075
0.0972677
0.090216
0.0829453
0.0754673
0.0678044
0.059969
0.0519439
0.0437832
0.0353135
0.0267034
0.0175795
0.00869371
0.00341177
1.3575
1.21315
1.17747
1.13293
1.08837
1.04854
1.00781
0.966822
0.924729
0.881192
0.836025
0.789002
0.74013
0.689382
0.636873
0.582754
0.527259
0.470697
0.413466
0.356023
0.298945
0.242805
0.188325
0.136165
0.0870966
0.041775
0.000880536
-0.0350525
-0.0655854
-0.0904576
-0.10955
-0.122944
-0.130871
-0.133716
-0.131967
-0.126202
-0.117039
-0.105099
-0.090992
-0.0752882
-0.0585051
-0.0410992
-0.0234708
-0.00594561
0.0112035
0.0277584
0.0435463
0.0584459
0.0723658
0.0852403
0.0970368
0.107735
0.117336
0.125847
0.133291
0.139697
0.1451
0.149538
0.153051
0.155684
0.157477
0.158467
0.158702
0.158228
0.157082
0.155302
0.152929
0.15
0.146552
0.142611
0.138217
0.133399
0.128187
0.12261
0.116692
0.11046
0.103941
0.0971599
0.0901304
0.0828772
0.0754166
0.0677699
0.0599488
0.0519446
0.0437977
0.0353525
0.0267614
0.0176052
0.00868433
0.00337862
1.34476
1.2006
1.16519
1.12091
1.07658
1.03686
0.996092
0.954893
0.912383
0.868236
0.822225
0.774168
0.724026
0.671794
0.617589
0.561545
0.503951
0.445106
0.385454
0.325497
0.265837
0.207156
0.150195
0.0957376
0.0446171
-0.00243437
-0.0446324
-0.0814252
-0.112282
-0.136963
-0.155315
-0.167478
-0.173726
-0.174517
-0.170431
-0.162119
-0.15029
-0.135639
-0.11884
-0.10052
-0.0812336
-0.0614691
-0.0416393
-0.0220848
-0.00308211
0.0151508
0.0324539
0.048711
0.0638371
0.0777813
0.0905205
0.102053
0.112383
0.121534
0.12954
0.136437
0.14227
0.147083
0.15092
0.153832
0.155871
0.157077
0.157502
0.157186
0.156179
0.154521
0.152253
0.149415
0.146044
0.142175
0.137843
0.133078
0.127913
0.122378
0.116495
0.110292
0.1038
0.097042
0.0900339
0.0828028
0.0753585
0.0677303
0.0599261
0.051935
0.0437885
0.0353604
0.026757
0.0175789
0.00869401
0.00340468
1.3329
1.18873
1.15336
1.10919
1.06483
1.02503
0.984082
0.942557
0.89956
0.854721
0.807822
0.758646
0.707157
0.653338
0.597303
0.53922
0.479359
0.418072
0.355821
0.293156
0.230752
0.169322
0.109734
0.0528112
-0.000495202
-0.0493661
-0.0929552
-0.13061
-0.161786
-0.186186
-0.203702
-0.214493
-0.218895
-0.217455
-0.210832
-0.199784
-0.185098
-0.167554
-0.147894
-0.126797
-0.104867
-0.0826146
-0.0604755
-0.0387983
-0.0178635
0.002122
0.0209986
0.0386591
0.0550348
0.0700865
0.0838058
0.0961996
0.107288
0.117102
0.125688
0.13309
0.139362
0.144558
0.148728
0.15193
0.154219
0.155644
0.156255
0.156109
0.15525
0.153716
0.151556
0.148812
0.145523
0.141725
0.137456
0.132746
0.127625
0.122128
0.116282
0.110114
0.10365
0.0969159
0.089931
0.0827219
0.0752988
0.0676865
0.0598919
0.0519173
0.0437904
0.0353598
0.0267997
0.0176154
0.00869708
0.00342186
1.32187
1.17771
1.14235
1.09818
1.05374
1.01378
0.972532
0.93056
0.886931
0.841265
0.793342
0.742927
0.689941
0.634403
0.576419
0.516143
0.45389
0.390002
0.325001
0.259469
0.194143
0.129832
0.0674453
0.00794225
-0.0476538
-0.0984287
-0.143432
-0.18196
-0.213391
-0.237447
-0.254001
-0.263281
-0.265685
-0.261843
-0.252519
-0.238566
-0.22087
-0.200293
-0.177647
-0.15367
-0.129001
-0.104184
-0.0796674
-0.0558114
-0.0328924
-0.0111166
0.00936578
0.0284589
0.0461098
0.0622872
0.0769945
0.0902591
0.102111
0.112599
0.121771
0.129685
0.136406
0.14199
0.146503
0.15
0.152545
0.154193
0.155001
0.15502
0.154303
0.152896
0.150846
0.148199
0.144992
0.141264
0.137059
0.132405
0.127335
0.121881
0.11607
0.109934
0.103501
0.096793
0.0898271
0.0826351
0.0752268
0.0676325
0.0598543
0.0518904
0.0437655
0.0353686
0.0267853
0.017568
0.00867882
0.0034091
1.31158
1.1674
1.13197
1.08771
1.04309
1.00285
0.961204
0.918699
0.874378
0.827825
0.778798
0.727043
0.672527
0.615195
0.555171
0.492628
0.427866
0.361291
0.293422
0.224923
0.156574
0.0892558
0.0239957
-0.0381772
-0.0961299
-0.148844
-0.195278
-0.234639
-0.266294
-0.289918
-0.305424
-0.313078
-0.313355
-0.306985
-0.294833
-0.277864
-0.257053
-0.233353
-0.207645
-0.180719
-0.153259
-0.125833
-0.098908
-0.0728481
-0.0479316
-0.0243569
-0.00226487
0.0182656
0.0371916
0.0544974
0.0702015
0.0843396
0.0969575
0.108113
0.117871
0.126298
0.133463
0.139435
0.144286
0.148079
0.150877
0.152744
0.15374
0.153929
0.153358
0.152079
0.15014
0.147586
0.144462
0.140808
0.136667
0.132067
0.12704
0.121627
0.115853
0.10975
0.103343
0.0966588
0.0897172
0.0825458
0.0751585
0.0675829
0.0598135
0.0518668
0.0437506
0.0353752
0.0268154
0.0175765
0.0086632
0.00339077
1.30205
1.15782
1.12229
1.0779
1.03305
0.992486
0.950386
0.907285
0.862189
0.814689
0.764489
0.711362
0.655228
0.596045
0.533927
0.469044
0.401727
0.332379
0.261595
0.190047
0.118608
0.048244
-0.0199593
-0.0848338
-0.145167
-0.199803
-0.247632
-0.287794
-0.319588
-0.342702
-0.35706
-0.362985
-0.361042
-0.352058
-0.337006
-0.316955
-0.292983
-0.266126
-0.23734
-0.207465
-0.177216
-0.147196
-0.11788
-0.089635
-0.0627385
-0.0373818
-0.013694
0.008254
0.0284339
0.0468505
0.0635297
0.0785236
0.091891
0.103706
0.11404
0.12297
0.130576
0.136927
0.142106
0.146183
0.149233
0.151321
0.152512
0.152863
0.152431
0.151275
0.149445
0.146984
0.143939
0.140354
0.136272
0.131728
0.126753
0.121381
0.115643
0.109572
0.103195
0.0965359
0.089612
0.082459
0.0750837
0.0675198
0.0597661
0.0518311
0.0437332
0.0353589
0.0268266
0.0175775
0.00864536
0.00340043
1.29325
1.14899
1.11332
1.06876
1.02361
0.98267
0.940059
0.89633
0.850433
0.801952
0.750571
0.696044
0.638286
0.577235
0.51301
0.445788
0.37589
0.303784
0.230049
0.155471
0.0809319
0.00750883
-0.0636124
-0.131175
-0.19385
-0.250371
-0.299542
-0.34043
-0.372308
-0.394834
-0.407979
-0.41212
-0.407909
-0.396277
-0.37831
-0.355182
-0.328066
-0.298082
-0.266257
-0.233471
-0.200484
-0.167916
-0.13626
-0.105885
-0.0770637
-0.0499799
-0.0247507
-0.0014297
0.0199684
0.0394564
0.0570838
0.0729094
0.0870062
0.0994564
0.110343
0.119759
0.127786
0.134505
0.140009
0.144366
0.147653
0.149946
0.151315
0.151826
0.151531
0.150495
0.148771
0.1464
0.143437
0.139923
0.1359
0.131404
0.126472
0.12114
0.115436
0.109391
0.103038
0.096402
0.0895024
0.0823687
0.0750119
0.0674625
0.0597212
0.051794
0.0436987
0.0353339
0.0267835
0.0175374
0.00864618
0.00341765
1.28523
1.14089
1.10507
1.06032
1.01488
0.973541
0.930425
0.886026
0.839333
0.789851
0.737283
0.681363
0.621993
0.5591
0.492791
0.423249
0.350823
0.275976
0.199363
0.12178
0.0442095
-0.0322007
-0.106188
-0.176356
-0.241294
-0.299601
-0.350031
-0.391553
-0.423424
-0.445291
-0.457169
-0.459496
-0.453018
-0.438766
-0.417934
-0.391801
-0.361628
-0.32862
-0.293859
-0.258275
-0.22266
-0.187655
-0.153762
-0.121349
-0.0906874
-0.0619523
-0.0352485
-0.0106194
0.0119324
0.0324421
0.0509667
0.0675834
0.0823676
0.0954193
0.106835
0.116709
0.125138
0.132204
0.138005
0.142625
0.146145
0.148639
0.150186
0.150847
0.150684
0.14976
0.148131
0.145847
0.142957
0.139506
0.135538
0.131093
0.126206
0.120913
0.115243
0.109231
0.102901
0.0962869
0.0894023
0.082287
0.074945
0.0674088
0.059676
0.0517618
0.0436802
0.0353168
0.0267839
0.0175264
0.00863509
0.00342083
1.27797
1.13357
1.0976
1.05265
1.00689
0.965164
0.921494
0.876481
0.828955
0.778527
0.724823
0.667544
0.606619
0.541939
0.473624
0.401857
0.326986
0.249529
0.170124
0.0896783
0.00918185
-0.0700829
-0.146801
-0.219444
-0.286498
-0.346479
-0.398048
-0.440116
-0.471908
-0.493079
-0.503685
-0.504226
-0.495541
-0.478761
-0.455186
-0.426184
-0.393108
-0.357237
-0.319701
-0.281475
-0.243385
-0.206089
-0.170093
-0.135771
-0.103389
-0.0731127
-0.0450358
-0.0191864
0.00445298
0.02592
0.0452826
0.0626297
0.0780603
0.091673
0.103575
0.113877
0.122673
0.130061
0.136146
0.141012
0.144745
0.147429
0.149132
0.149929
0.149887
0.149072
0.147535
0.145328
0.142507
0.139117
0.135205
0.130807
0.125958
0.120696
0.115056
0.109071
0.102764
0.0961683
0.089303
0.0822025
0.0748724
0.0673469
0.0596274
0.0517224
0.0436539
0.0352964
0.0268213
0.0175793
0.00860636
0.00339716
1.27153
1.12708
1.09092
1.0458
0.999738
0.957607
0.91346
0.867802
0.819541
0.768192
0.713374
0.654839
0.59244
0.52609
0.455884
0.38202
0.304856
0.224922
0.142921
0.0597742
-0.023439
-0.10538
-0.184637
-0.259556
-0.328571
-0.390047
-0.44262
-0.48511
-0.516757
-0.5372
-0.546556
-0.545381
-0.534609
-0.51546
-0.489324
-0.457663
-0.421902
-0.383388
-0.343299
-0.302649
-0.262288
-0.222894
-0.184979
-0.148915
-0.114961
-0.0832758
-0.0539435
-0.0269801
-0.00236544
0.0199657
0.0400927
0.058112
0.0741251
0.0882476
0.100598
0.111288
0.120428
0.128113
0.13445
0.13954
0.143468
0.146317
0.148173
0.1491
0.149167
0.148445
0.146991
0.144858
0.1421
0.138766
0.134901
0.130543
0.12573
0.120504
0.114893
0.108931
0.102645
0.096067
0.0892183
0.0821356
0.074816
0.067304
0.0595914
0.051692
0.0436245
0.035274
0.0267431
0.0174947
0.00862752
0.00343148
1.26593
1.12141
1.08512
1.0398
0.993459
0.950972
0.906343
0.860127
0.811139
0.758961
0.703174
0.643456
0.579718
0.511838
0.439911
0.364137
0.284884
0.20272
0.118336
0.0327477
-0.0529535
-0.137298
-0.218837
-0.295796
-0.366537
-0.429344
-0.482758
-0.525586
-0.55704
-0.576773
-0.584949
-0.58219
-0.569508
-0.548206
-0.519758
-0.485701
-0.447535
-0.40666
-0.364294
-0.321484
-0.279103
-0.237838
-0.19821
-0.160592
-0.125239
-0.0923033
-0.0618526
-0.0338976
-0.00840058
0.0147019
0.0355056
0.0541207
0.0706591
0.0852342
0.0979753
0.109008
0.118443
0.126387
0.132952
0.138237
0.142335
0.145334
0.147314
0.148354
0.148523
0.147888
0.146507
0.144437
0.141736
0.13845
0.134629
0.130309
0.125529
0.120326
0.114739
0.108801
0.102534
0.0959724
0.0891361
0.0820606
0.0747532
0.0672507
0.0595459
0.0516546
0.0435928
0.0352476
0.0267348
0.0174992
0.0086243
0.00342481
1.2612
1.11663
1.08019
1.03473
0.988122
0.945313
0.900272
0.853551
0.803943
0.751041
0.694357
0.633619
0.568703
0.499476
0.426032
0.348586
0.267502
0.183357
0.0969013
0.00916786
-0.0786823
-0.165136
-0.248671
-0.32738
-0.39962
-0.463513
-0.517622
-0.560674
-0.591915
-0.610979
-0.618088
-0.613916
-0.599554
-0.576373
-0.545917
-0.509793
-0.469545
-0.426633
-0.382303
-0.337632
-0.293513
-0.250643
-0.209547
-0.170599
-0.134048
-0.100036
-0.0686283
-0.0398245
-0.0135825
0.0101822
0.0315646
0.0506836
0.0676619
0.0826276
0.095711
0.107036
0.116729
0.124899
0.131663
0.137119
0.141367
0.144494
0.146586
0.147721
0.147973
0.14741
0.146096
0.144083
0.141429
0.138185
0.134399
0.130112
0.125358
0.120181
0.114616
0.108694
0.102442
0.0958939
0.0890703
0.0820096
0.0747126
0.0672187
0.0595205
0.0516352
0.0435832
0.0352345
0.0267492
0.0175035
0.00860392
0.00341579
1.25737
1.11277
1.07621
1.0306
0.983791
0.940704
0.895329
0.84817
0.798053
0.744506
0.687085
0.625502
0.559598
0.489252
0.41455
0.335704
0.253089
0.167311
0.0791136
-0.0103941
-0.100059
-0.188244
-0.27342
-0.353581
-0.427029
-0.491821
-0.546428
-0.589636
-0.620664
-0.639142
-0.645347
-0.639993
-0.624229
-0.599487
-0.567374
-0.529542
-0.487588
-0.443005
-0.397068
-0.350875
-0.305331
-0.261144
-0.218841
-0.178799
-0.14126
-0.106369
-0.0741777
-0.0446787
-0.0178158
0.00648935
0.0283468
0.0478829
0.0652293
0.0805162
0.0938738
0.105437
0.115337
0.123692
0.130614
0.136208
0.140573
0.143803
0.145984
0.147203
0.147526
0.147022
0.145756
0.143788
0.141172
0.13796
0.134203
0.129937
0.125209
0.120053
0.114506
0.108604
0.102364
0.095827
0.0890149
0.0819601
0.0746706
0.0671796
0.0594874
0.0516063
0.0435532
0.0352172
0.0267098
0.0174686
0.00860855
0.00343318
1.25446
1.10986
1.07321
1.02746
0.980491
0.937201
0.891549
0.844074
0.793541
0.739513
0.681522
0.619268
0.552605
0.481387
0.405702
0.325772
0.241972
0.154917
0.0653803
-0.0255068
-0.116558
-0.206085
-0.292538
-0.373776
-0.448213
-0.513588
-0.568547
-0.611856
-0.642722
-0.660725
-0.666213
-0.659937
-0.643088
-0.617147
-0.583762
-0.544623
-0.501362
-0.455502
-0.408335
-0.360979
-0.314345
-0.269152
-0.225931
-0.185056
-0.146769
-0.111203
-0.078415
-0.048382
-0.0210468
0.00367183
0.0258893
0.0457419
0.0633622
0.0788901
0.0924631
0.104214
0.114272
0.122763
0.12981
0.135509
0.139967
0.143275
0.145528
0.146802
0.147177
0.14672
0.145494
0.143562
0.140979
0.137795
0.134059
0.129818
0.125105
0.119962
0.11443
0.108534
0.102305
0.0957764
0.0889702
0.0819257
0.0746395
0.0671585
0.0594726
0.0515976
0.0435458
0.0352073
0.0267213
0.0174821
0.00859818
0.00341162
1.25252
1.10788
1.07117
1.02536
0.978276
0.934834
0.888989
0.841297
0.790454
0.736124
0.677757
0.615042
0.547856
0.476048
0.399701
0.319032
0.23442
0.146505
0.056046
-0.0357718
-0.127793
-0.218215
-0.305558
-0.387522
-0.462706
-0.52847
-0.583485
-0.626803
-0.657635
-0.675314
-0.680321
-0.673414
-0.655829
-0.629072
-0.594825
-0.554802
-0.510658
-0.463936
-0.415943
-0.367801
-0.320434
-0.274563
-0.23072
-0.189281
-0.150484
-0.114466
-0.081276
-0.0508778
-0.0232239
0.00177229
0.0242328
0.0442954
0.0621039
0.0777962
0.091509
0.103382
0.113552
0.12214
0.129265
0.135038
0.139558
0.142921
0.145219
0.146539
0.146953
0.146526
0.145323
0.143412
0.140848
0.137678
0.133958
0.129726
0.125026
0.119899
0.114375
0.108487
0.102264
0.0957418
0.0889434
0.0819015
0.0746194
0.0671356
0.0594514
0.0515755
0.0435303
0.0351935
0.0267041
0.0174736
0.00861475
0.0034519
1.25155
1.10689
1.07015
1.02431
0.977168
0.933646
0.88773
0.839892
0.788948
0.734415
0.675838
0.61292
0.545455
0.473348
0.396656
0.31561
0.230587
0.14223
0.0513108
-0.0409852
-0.133478
-0.22436
-0.312148
-0.394499
-0.470084
-0.536192
-0.590933
-0.634221
-0.665126
-0.682656
-0.68742
-0.680199
-0.66224
-0.635074
-0.600393
-0.559927
-0.515338
-0.46818
-0.419768
-0.371232
-0.323496
-0.277283
-0.23313
-0.191409
-0.152364
-0.116114
-0.0827533
-0.0521646
-0.0242918
0.000840562
0.0234025
0.0435742
0.0614774
0.0772494
0.0910337
0.102972
0.113195
0.121826
0.128991
0.134799
0.139353
0.142742
0.145063
0.146398
0.146829
0.146419
0.145232
0.143332
0.140778
0.137623
0.133908
0.129683
0.124989
0.119866
0.114345
0.108459
0.102243
0.0957279
0.0889316
0.0818925
0.0746083
0.0671298
0.0594474
0.0515746
0.0435239
0.0351905
0.0266874
0.0174405
0.00860343
0.00343966
1.25156
1.10689
1.07014
1.02431
0.977167
0.933646
0.887725
0.839886
0.788948
0.734418
0.675835
0.612922
0.545458
0.473349
0.396661
0.315616
0.230599
0.142242
0.051317
-0.0409704
-0.13347
-0.224348
-0.312142
-0.394489
-0.470091
-0.536177
-0.590915
-0.634224
-0.665114
-0.682646
-0.68741
-0.680187
-0.662231
-0.635065
-0.600384
-0.559919
-0.515331
-0.468173
-0.419762
-0.371225
-0.323489
-0.277278
-0.233121
-0.191399
-0.152352
-0.116105
-0.0827463
-0.0521617
-0.0242917
0.000841104
0.0234039
0.0435716
0.0614714
0.0772428
0.0910291
0.102965
0.113188
0.121823
0.12899
0.134797
0.139348
0.142741
0.145063
0.146401
0.14683
0.146423
0.145236
0.143337
0.140783
0.137623
0.133909
0.129684
0.124991
0.119867
0.114347
0.108462
0.102242
0.0957247
0.0889297
0.0818882
0.074609
0.0671276
0.0594422
0.0515672
0.0435223
0.0351897
0.0266922
0.0174635
0.00860803
0.00343719
1.25253
1.10788
1.07117
1.02536
0.978283
0.93484
0.889009
0.84131
0.790459
0.736135
0.677777
0.615056
0.547862
0.476055
0.3997
0.319033
0.23442
0.146506
0.0560496
-0.0357693
-0.127775
-0.218192
-0.305539
-0.387482
-0.462678
-0.5284
-0.583437
-0.626808
-0.657599
-0.675282
-0.680284
-0.673379
-0.655793
-0.629039
-0.594794
-0.554775
-0.510636
-0.463914
-0.415921
-0.367781
-0.320418
-0.274551
-0.230711
-0.189272
-0.15048
-0.114461
-0.0812717
-0.0508744
-0.0232187
0.00177686
0.0242372
0.0443019
0.0621112
0.0778069
0.0915219
0.103394
0.11356
0.122145
0.129269
0.135037
0.139555
0.142916
0.145218
0.146533
0.146944
0.146519
0.145318
0.143408
0.140844
0.137678
0.133955
0.129723
0.125021
0.119893
0.114369
0.108479
0.102261
0.0957442
0.0889454
0.0819048
0.0746198
0.0671396
0.0594496
0.0515765
0.0435258
0.0351928
0.0266877
0.0174455
0.00860746
0.0034319
1.25447
1.10985
1.0732
1.02747
0.980496
0.937201
0.891559
0.844064
0.793558
0.739519
0.681518
0.619287
0.552614
0.481396
0.405718
0.325786
0.241993
0.154943
0.0654012
-0.0254767
-0.116533
-0.20604
-0.2925
-0.373727
-0.448169
-0.513528
-0.568498
-0.611812
-0.642658
-0.66067
-0.666158
-0.659882
-0.643034
-0.617095
-0.583714
-0.544579
-0.501321
-0.455465
-0.408302
-0.36095
-0.31432
-0.269131
-0.225911
-0.185037
-0.14675
-0.111185
-0.0783995
-0.0483697
-0.0210354
0.00368072
0.025896
0.0457452
0.0633646
0.0788931
0.0924641
0.104211
0.114272
0.122765
0.129806
0.135504
0.139962
0.143273
0.145525
0.1468
0.147176
0.146723
0.145499
0.143565
0.140981
0.137795
0.134057
0.129811
0.125097
0.119959
0.114428
0.10853
0.102302
0.095778
0.0889726
0.0819225
0.0746378
0.0671519
0.0594638
0.0515817
0.0435305
0.0351928
0.0266756
0.0174419
0.00862393
0.00346427
1.25737
1.11278
1.07622
1.0306
0.983799
0.940705
0.895345
0.848172
0.79806
0.744519
0.687107
0.625534
0.559613
0.48927
0.414565
0.335726
0.253112
0.167332
0.0791419
-0.0103705
-0.100013
-0.1882
-0.273366
-0.353521
-0.426963
-0.491743
-0.546354
-0.589563
-0.620584
-0.639061
-0.645264
-0.639912
-0.624152
-0.599416
-0.567307
-0.529481
-0.487532
-0.442952
-0.397022
-0.350835
-0.305297
-0.261116
-0.218818
-0.178778
-0.141244
-0.106352
-0.074163
-0.0446641
-0.0178022
0.00650186
0.0283575
0.0478904
0.0652333
0.0805212
0.0938819
0.105446
0.115344
0.123696
0.130618
0.136209
0.140572
0.143798
0.145981
0.147198
0.147519
0.147014
0.14575
0.143784
0.141169
0.137958
0.134199
0.129937
0.125207
0.120051
0.114503
0.108595
0.10236
0.0958261
0.0890131
0.0819632
0.07467
0.0671805
0.0594845
0.0516063
0.0435543
0.0352132
0.0267339
0.0174842
0.00860427
0.00342352
1.2612
1.11664
1.08021
1.03472
0.988131
0.945313
0.900283
0.853543
0.803953
0.75104
0.694371
0.633652
0.568722
0.499496
0.426061
0.348612
0.267536
0.1834
0.0969379
0.00921847
-0.0786333
-0.165068
-0.248601
-0.327307
-0.399534
-0.463424
-0.517524
-0.560587
-0.591812
-0.610878
-0.617989
-0.613824
-0.599462
-0.576282
-0.545834
-0.509715
-0.469473
-0.426568
-0.382246
-0.337587
-0.293474
-0.25061
-0.209517
-0.170571
-0.134021
-0.100012
-0.0686067
-0.0398027
-0.0135599
0.0101995
0.0315818
0.0506997
0.0676752
0.0826391
0.0957204
0.107044
0.116732
0.124901
0.131659
0.137112
0.141359
0.144488
0.146581
0.147717
0.14797
0.147411
0.146095
0.144083
0.141431
0.138185
0.134394
0.130101
0.125348
0.120173
0.114609
0.108688
0.102441
0.095893
0.0890673
0.0820054
0.0747084
0.0672108
0.0595112
0.0516225
0.0435644
0.0352194
0.0266963
0.0174552
0.00862704
0.00345756
1.26593
1.12143
1.08511
1.0398
0.99347
0.950969
0.906364
0.860124
0.811159
0.758976
0.703187
0.643498
0.579738
0.511863
0.43994
0.364173
0.28493
0.202752
0.118386
0.0327922
-0.052879
-0.137231
-0.218754
-0.295715
-0.366443
-0.429242
-0.482652
-0.525474
-0.556924
-0.576653
-0.584832
-0.582075
-0.569397
-0.548101
-0.519661
-0.485613
-0.447452
-0.406583
-0.364226
-0.321424
-0.27905
-0.23779
-0.198169
-0.160557
-0.125208
-0.0922747
-0.0618266
-0.0338724
-0.00838136
0.0147194
0.0355202
0.0541276
0.0706594
0.0852344
0.097977
0.109006
0.118439
0.126389
0.132961
0.138241
0.142336
0.14533
0.14731
0.148352
0.14852
0.147882
0.146502
0.144437
0.141737
0.13845
0.134625
0.130307
0.125526
0.120325
0.114736
0.108795
0.10253
0.0959714
0.0891352
0.0820629
0.0747531
0.0672476
0.0595407
0.0516552
0.0435945
0.0352454
0.026752
0.0175166
0.00861118
0.00339957
1.27153
1.12709
1.09094
1.0458
0.999742
0.957611
0.913458
0.867804
0.819536
0.768199
0.713404
0.654875
0.592471
0.526118
0.455919
0.382062
0.304905
0.224981
0.142977
0.0598435
-0.0233643
-0.105291
-0.184538
-0.259454
-0.328451
-0.38993
-0.442489
-0.484982
-0.516624
-0.537068
-0.546424
-0.545254
-0.534486
-0.515343
-0.489215
-0.457563
-0.421808
-0.383303
-0.343223
-0.302585
-0.262232
-0.222845
-0.184934
-0.148876
-0.114928
-0.0832472
-0.0539171
-0.0269542
-0.00233896
0.0199893
0.0401148
0.0581318
0.0741443
0.08827
0.100618
0.111299
0.120428
0.128113
0.13445
0.139534
0.143459
0.14631
0.148163
0.149091
0.149162
0.148443
0.146989
0.144858
0.142104
0.13877
0.134899
0.130538
0.125725
0.120494
0.114884
0.108923
0.102638
0.0960619
0.0892138
0.082128
0.0748065
0.0672924
0.0595775
0.0516839
0.0436113
0.0352674
0.0267578
0.0175061
0.00861453
0.00339821
1.27798
1.13359
1.09759
1.05267
1.00691
0.965164
0.921522
0.876476
0.828981
0.778545
0.724834
0.66758
0.606647
0.541976
0.473669
0.401898
0.327047
0.249573
0.170198
0.0897392
0.00927327
-0.0699985
-0.146697
-0.219333
-0.28638
-0.346356
-0.397914
-0.439972
-0.471764
-0.492928
-0.503537
-0.504079
-0.495402
-0.478634
-0.455067
-0.426075
-0.393008
-0.357141
-0.319615
-0.281397
-0.243316
-0.206027
-0.170039
-0.135726
-0.103352
-0.0730805
-0.0450022
-0.0191544
0.00447639
0.0259405
0.0453016
0.0626463
0.0780714
0.091681
0.103583
0.113877
0.122671
0.130063
0.13615
0.141012
0.144744
0.147422
0.149126
0.149923
0.149884
0.149066
0.147529
0.145327
0.142508
0.139119
0.135204
0.130807
0.125956
0.120694
0.115052
0.109067
0.102759
0.0961654
0.0892995
0.0821996
0.0748689
0.0673423
0.0596209
0.0517127
0.0436478
0.0352776
0.02677
0.0175283
0.0086284
0.00343533
1.28522
1.1409
1.1051
1.06033
1.01488
0.973559
0.930428
0.886046
0.839339
0.789874
0.737308
0.681398
0.622026
0.559132
0.49283
0.423296
0.350875
0.276045
0.19944
0.121871
0.0443086
-0.0320967
-0.10607
-0.176237
-0.241154
-0.299461
-0.349881
-0.3914
-0.423268
-0.445132
-0.457014
-0.459344
-0.45287
-0.438628
-0.417807
-0.391686
-0.361522
-0.328524
-0.293772
-0.258197
-0.222585
-0.187588
-0.153702
-0.121299
-0.0906441
-0.0619151
-0.0352174
-0.0105901
0.0119604
0.0324678
0.0509917
0.0676068
0.0823911
0.095441
0.10685
0.116719
0.12514
0.132203
0.138002
0.14262
0.146139
0.148632
0.150177
0.150839
0.150678
0.149758
0.148129
0.145848
0.142963
0.139513
0.13554
0.131092
0.126201
0.120906
0.115237
0.109222
0.102892
0.0962782
0.0893946
0.0822784
0.0749317
0.067394
0.0596614
0.0517485
0.043661
0.0353023
0.0267613
0.0174977
0.00863714
0.00342456
1.29327
1.149
1.11331
1.06878
1.02362
0.982686
0.940081
0.896341
0.850453
0.801978
0.750596
0.696077
0.638321
0.577273
0.513059
0.445832
0.375966
0.30384
0.23014
0.15555
0.0810381
0.0076183
-0.0634931
-0.131049
-0.193714
-0.250223
-0.29939
-0.34027
-0.372146
-0.394666
-0.407814
-0.411955
-0.407753
-0.396132
-0.378174
-0.355057
-0.327953
-0.297977
-0.266161
-0.233383
-0.200407
-0.167849
-0.136201
-0.105834
-0.0770206
-0.0499443
-0.0247161
-0.00139786
0.0199952
0.0394843
0.0571113
0.0729332
0.0870236
0.0994695
0.110356
0.119765
0.127787
0.134506
0.140006
0.14436