/*--------------------------------*- C++ -*----------------------------------*\
  =========                 |
  \\      /  F ield         | OpenFOAM: The Open Source CFD Toolbox
   \\    /   O peration     | Website:  https://openfoam.org
    \\  /    A nd           | Version:  11
     \\/     M anipulation  |
\*---------------------------------------------------------------------------*/
FoamFile
{
    format      ascii;
    class       volScalarField;
    location    "0.002";
    object      p;
}
// * * * * * * * * * * * * * * * * * * * * * * * * * * * * * * * * * * * * * //

dimensions      [0 2 -2 0 0 0 0];

internalField   nonuniform List<scalar> 
287084
(
10.1034
10.0006
9.92469
9.85913
9.79727
9.73198
9.66061
9.58163
9.49348
9.39796
9.29274
9.17605
9.04756
8.9064
8.74976
8.58026
8.39534
8.19592
7.98117
7.75038
7.50627
7.24567
6.96778
6.6712
6.35971
6.04448
5.7297
5.40992
5.08687
4.76159
4.43924
4.12115
3.81009
3.50954
3.22002
2.94297
2.6801
2.43392
2.20272
1.98826
1.79029
1.60855
1.44265
1.29198
1.15576
1.03318
0.923367
0.825346
0.738088
0.660748
0.592423
0.532068
0.478952
0.431916
0.391249
0.356665
0.326182
0.298954
0.274999
0.253872
0.235569
0.219598
0.205579
0.193239
0.182304
0.17254
0.163775
0.155864
0.148748
0.142099
0.135945
0.130308
0.124924
0.119858
0.114934
0.110212
0.105425
0.100738
0.096045
0.0911602
0.0859074
0.0801391
0.0739257
0.0685639
0.0640425
0.0575
0.0475428
0.0349564
0.0205255
0.00630374
10.0572
9.98343
9.91879
9.85822
9.79859
9.73435
9.66359
9.58493
9.49771
9.40296
9.2977
9.18106
9.05236
8.91106
8.75571
8.58538
8.40109
8.20101
7.9853
7.75455
7.50856
7.24788
6.96973
6.67147
6.36347
6.048
5.73001
5.40834
5.08385
4.75756
4.43385
4.11472
3.80304
3.50075
3.21077
2.9333
2.6706
2.42336
2.19259
1.97816
1.78032
1.59879
1.43329
1.28308
1.14735
1.02532
0.916049
0.818464
0.731762
0.654945
0.587119
0.527253
0.474626
0.428443
0.388088
0.353156
0.322648
0.29581
0.272273
0.251687
0.233636
0.217898
0.204072
0.191901
0.181117
0.171478
0.162836
0.155037
0.147953
0.141432
0.135413
0.129842
0.124532
0.119499
0.114627
0.109914
0.105267
0.100553
0.0959374
0.091023
0.0859076
0.0804523
0.0746287
0.0688128
0.0631175
0.0565471
0.0472109
0.0350608
0.0211792
0.00684397
10.0359
9.97191
9.91417
9.85933
9.80212
9.73937
9.66951
9.59182
9.50691
9.41248
9.30736
9.19104
9.06262
8.92123
8.76612
8.59653
8.41162
8.21116
7.99517
7.76268
7.5146
7.25157
6.97307
6.67696
6.36784
6.05215
5.73127
5.40544
5.0775
4.74929
4.42303
4.10192
3.78821
3.48436
3.1925
2.9139
2.65082
2.40333
2.17208
1.95795
1.76048
1.57958
1.4148
1.2654
1.13058
1.00961
0.901367
0.804914
0.719209
0.643366
0.576516
0.517631
0.465928
0.420652
0.381143
0.346665
0.316601
0.290386
0.267422
0.247354
0.229833
0.214535
0.201087
0.189231
0.178754
0.16932
0.160944
0.153399
0.146505
0.140187
0.134371
0.128865
0.123703
0.118764
0.114028
0.109405
0.104893
0.100297
0.0956227
0.0907996
0.0857912
0.0803613
0.0745721
0.0687764
0.0629651
0.0559049
0.046419
0.0346275
0.0210717
0.00693434
10.0273
9.9671
9.91418
9.86349
9.80853
9.74726
9.67885
9.60386
9.51985
9.42611
9.32107
9.2057
9.07823
8.93755
8.78273
8.61234
8.42747
8.22624
8.00928
7.77551
7.52607
7.26107
6.98134
6.68461
6.37331
6.05503
5.73029
5.40052
5.06914
4.7368
4.40705
4.08254
3.76578
3.45941
3.16547
2.88573
2.62155
2.37315
2.14188
1.92786
1.73105
1.55102
1.3873
1.23917
1.10587
0.986342
0.879577
0.784719
0.700607
0.626263
0.560854
0.503298
0.452952
0.408866
0.370529
0.337015
0.307899
0.282527
0.260447
0.24108
0.224186
0.209543
0.196635
0.185238
0.175249
0.166259
0.158176
0.150978
0.144384
0.138304
0.132696
0.127476
0.122444
0.117729
0.113141
0.108634
0.104244
0.0997899
0.0951979
0.0904594
0.0855158
0.0801501
0.0742719
0.0684615
0.0624784
0.0551653
0.0456762
0.0340436
0.0207052
0.00677653
10.0274
9.96868
9.91956
9.8713
9.81808
9.75851
9.69312
9.6194
9.53602
9.44365
9.34062
9.22627
9.09927
8.95863
8.80355
8.63372
8.44877
8.24707
8.02877
7.79373
7.54252
7.27464
6.9914
6.69251
6.38032
6.05877
5.72888
5.39408
5.05758
4.72021
4.38563
4.05726
3.73641
3.4268
3.12989
2.84808
2.58253
2.33384
2.1021
1.8884
1.69232
1.51343
1.35125
1.20486
1.07336
0.955803
0.851135
0.758245
0.676162
0.603801
0.540322
0.484595
0.435909
0.393461
0.356505
0.324401
0.296539
0.272293
0.251245
0.232912
0.216896
0.202977
0.190813
0.180085
0.170665
0.162178
0.154625
0.147765
0.141589
0.135862
0.130538
0.125617
0.120847
0.116327
0.111956
0.107651
0.103358
0.0990634
0.0946463
0.0900358
0.0850869
0.0797383
0.0738791
0.0678953
0.0617937
0.0544051
0.0448414
0.0332897
0.0202372
0.00667072
10.0339
9.9764
9.92952
9.88297
9.83122
9.77448
9.7105
9.63791
9.55718
9.46596
9.36348
9.25094
9.1251
8.98507
8.83028
8.66048
8.47488
8.27333
8.05379
7.81732
7.56279
7.29315
7.00577
6.7034
6.38798
6.06136
5.72603
5.3856
5.04266
4.6992
4.3592
4.0256
3.69974
3.38665
3.08643
2.80201
2.53446
2.28503
2.05323
1.83992
1.64482
1.4674
1.30707
1.16282
1.03362
0.918473
0.816304
0.725956
0.646333
0.576391
0.515149
0.461719
0.415108
0.374625
0.339466
0.30898
0.282651
0.259844
0.240045
0.222905
0.207986
0.195024
0.183709
0.173792
0.165069
0.157229
0.150233
0.143929
0.138133
0.132847
0.127925
0.123311
0.118926
0.114601
0.110498
0.106392
0.10234
0.0982057
0.0939081
0.0893752
0.0845652
0.0793348
0.0734567
0.0671524
0.0606239
0.0534638
0.0441789
0.0326408
0.0197124
0.00642893
10.0454
9.98911
9.94392
9.89803
9.84895
9.79386
9.73115
9.6613
9.58132
9.49202
9.39112
9.27977
9.15527
9.01612
8.86166
8.69297
8.50645
8.304
8.08305
7.84534
7.58814
7.31475
7.02319
6.7164
6.39604
6.06354
5.72244
5.37462
5.02501
4.67439
4.3282
3.98798
3.65632
3.33865
3.03547
2.74765
2.47825
2.22751
1.99577
1.78306
1.58922
1.41354
1.25539
1.11362
0.987171
0.874978
0.775677
0.688249
0.611539
0.544437
0.485895
0.434989
0.390867
0.352647
0.319575
0.291022
0.266502
0.24532
0.227057
0.211244
0.197612
0.185786
0.175456
0.166472
0.158511
0.151442
0.14513
0.139379
0.134198
0.129345
0.124868
0.120652
0.116636
0.112609
0.10878
0.104922
0.101035
0.0971315
0.0930319
0.0886507
0.0838544
0.078607
0.0728442
0.0667664
0.0602404
0.0525238
0.043044
0.0317369
0.0191026
0.00626072
10.0616
10.0062
9.96167
9.91725
9.86998
9.81613
9.7559
9.687
9.60971
9.52148
9.42268
9.31271
9.18916
9.05066
8.89804
8.72921
8.5428
8.3395
8.11717
7.87691
7.61679
7.33934
7.04394
6.73136
6.40477
6.0656
5.71729
5.36188
5.00409
4.6459
4.29161
3.94439
3.60732
3.28413
2.97644
2.68595
2.4139
2.1623
1.9305
1.71866
1.52624
1.35262
1.197
1.05811
0.934757
0.825753
0.729857
0.645757
0.572377
0.508436
0.452895
0.404963
0.363566
0.327876
0.297155
0.270866
0.248316
0.229018
0.212405
0.198149
0.185895
0.1754
0.166197
0.158166
0.151169
0.144915
0.139372
0.134311
0.1297
0.125483
0.121466
0.117599
0.113989
0.110318
0.1068
0.103252
0.0996384
0.0959387
0.0919851
0.0876978
0.0830372
0.0778356
0.0721611
0.0661729
0.0595332
0.051675
0.0420766
0.0308876
0.0185455
0.00605308
10.0811
10.0272
9.98265
9.94025
9.89365
9.84194
9.78301
9.71615
9.64066
9.55451
9.45752
9.34895
9.22648
9.08996
8.93733
8.76942
8.58307
8.37846
8.15523
7.91168
7.64899
7.36664
7.06583
6.74758
6.41408
6.06711
5.71034
5.34685
4.97989
4.61298
4.25028
3.896
3.55224
3.22374
2.91072
2.61704
2.3432
2.09037
1.85853
1.64752
1.45679
1.28558
1.13277
0.997014
0.877116
0.771768
0.679604
0.599158
0.529351
0.468954
0.416778
0.372023
0.333601
0.300732
0.272653
0.248752
0.228421
0.211083
0.196392
0.183841
0.173078
0.163951
0.156042
0.14914
0.143106
0.13777
0.133056
0.128722
0.124819
0.121179
0.117652
0.11432
0.111068
0.107819
0.104653
0.101405
0.0980522
0.0945169
0.0908362
0.0866976
0.0820443
0.076639
0.0712395
0.0656841
0.0588131
0.0508535
0.0415186
0.0304412
0.0181754
0.00588478
10.104
10.0508
10.0069
9.96535
9.92024
9.86994
9.81314
9.74776
9.67423
9.59037
9.49502
9.38784
9.26735
9.1317
8.98026
8.81267
8.62628
8.42054
8.19548
7.94893
7.68307
7.39589
7.08931
6.76438
6.4235
6.06838
5.70197
5.32896
4.95256
4.57693
4.20512
3.84218
3.49196
3.15723
2.83941
2.54245
2.26653
2.01249
1.78072
1.57084
1.38196
1.21333
1.0636
0.931398
0.815254
0.713847
0.625583
0.549169
0.483266
0.426603
0.3781
0.336677
0.301465
0.271654
0.246413
0.225062
0.207096
0.191973
0.179188
0.168475
0.159391
0.151677
0.145123
0.139419
0.134521
0.130168
0.126279
0.12275
0.119576
0.116538
0.113615
0.110731
0.10796
0.105134
0.102343
0.0993674
0.0963436
0.0930334
0.0895189
0.0856116
0.081172
0.0760923
0.070542
0.0645471
0.0579016
0.0500732
0.0406676
0.0298471
0.0178177
0.00575462
10.1294
10.0763
10.0332
9.9925
9.94922
9.9
9.84462
9.78162
9.71012
9.6283
9.53495
9.42942
9.31012
9.17591
9.02546
8.85831
8.67119
8.46499
8.23802
7.9887
7.71835
7.42635
7.11378
6.78135
6.43238
6.06763
5.69245
5.30924
4.92278
4.53666
4.15611
3.78451
3.42685
3.08602
2.76365
2.4627
2.18465
1.92978
1.69827
1.48962
1.30296
1.13705
0.990718
0.862253
0.750108
0.65286
0.568798
0.496563
0.43479
0.382075
0.337403
0.299642
0.267782
0.241099
0.218745
0.200151
0.184697
0.171854
0.161178
0.152344
0.145007
0.138806
0.133642
0.129244
0.125464
0.122164
0.119205
0.116498
0.114012
0.111675
0.109317
0.10701
0.104649
0.102294
0.0999003
0.0972456
0.094474
0.0914927
0.088148
0.0843723
0.0801398
0.075324
0.0697922
0.0635488
0.0568077
0.0492124
0.0401157
0.0293263
0.0174827
0.0056388
10.1565
10.1035
10.0609
10.0212
9.97919
9.93194
9.87807
9.817
9.74699
9.66708
9.57614
9.4726
9.3545
9.22198
9.07257
8.90509
8.71862
8.51097
8.28112
8.02881
7.7549
7.45739
7.13808
6.79788
6.44047
6.06658
5.68091
5.2873
4.88982
4.49336
4.10333
3.72348
3.35837
3.01109
2.68379
2.37936
2.09924
1.84367
1.61251
1.4053
1.22093
1.05801
0.915248
0.790704
0.682729
0.589771
0.510135
0.442337
0.384732
0.336116
0.295407
0.261375
0.232958
0.209576
0.190288
0.174483
0.16159
0.15109
0.142571
0.135693
0.130069
0.12555
0.121838
0.118759
0.116119
0.113881
0.111858
0.110038
0.108322
0.10665
0.10489
0.103139
0.101323
0.0993177
0.09734
0.0950289
0.0925495
0.0898184
0.0866959
0.0830769
0.0789139
0.074183
0.0688266
0.0627689
0.0561918
0.0485868
0.0393618
0.0287441
0.0171784
0.00553437
10.1845
10.1313
10.0898
10.0515
10.0102
9.96429
9.91191
9.85304
9.78503
9.70718
9.61781
9.5163
9.40037
9.26847
9.12015
8.95307
8.76598
8.5572
8.32509
8.0696
7.79065
7.48799
7.16208
6.81407
6.44676
6.06376
5.66744
5.26321
4.85446
4.44828
4.04865
3.65949
3.28707
2.9329
2.6014
2.29377
2.01164
1.75544
1.5249
1.31927
1.1373
0.9776
0.838379
0.717887
0.614313
0.525729
0.450592
0.387157
0.333901
0.28958
0.252769
0.222468
0.197646
0.177549
0.161377
0.148427
0.138142
0.13003
0.12375
0.118805
0.115011
0.112067
0.109863
0.108077
0.106631
0.105498
0.104448
0.103504
0.102538
0.101503
0.100411
0.0991655
0.097904
0.096392
0.0946806
0.0927269
0.0905629
0.0880231
0.0851794
0.0818174
0.0777953
0.0731583
0.0678749
0.0618209
0.0551972
0.0477731
0.0388926
0.0283902
0.0168345
0.00538602
10.2129
10.1599
10.1191
10.0814
10.0415
9.99694
9.94658
9.88909
9.82317
9.74742
9.65981
9.55976
9.44591
9.31485
9.16775
9.00071
8.81314
8.60315
8.36838
8.11003
7.82624
7.51774
7.18485
6.82832
6.45212
6.05907
5.65242
5.23655
4.81806
4.40111
3.99138
3.59411
3.21386
2.85371
2.51793
2.20718
1.92334
1.66668
1.43689
1.23295
1.05351
0.896996
0.76153
0.645126
0.545869
0.461777
0.391126
0.33204
0.283167
0.242982
0.210163
0.183704
0.16246
0.145634
0.132514
0.12236
0.114714
0.109008
0.104906
0.101959
0.0999336
0.0986222
0.0979113
0.0974165
0.0971848
0.0970964
0.0970684
0.0969289
0.0967524
0.0964191
0.0959213
0.0952876
0.094421
0.0933733
0.0920566
0.0904468
0.088578
0.086283
0.0836323
0.0804076
0.0765091
0.0717864
0.0666586
0.0612174
0.0546097
0.0471049
0.0382856
0.027921
0.0165381
0.00528401
10.2407
10.1881
10.1481
10.1112
10.0727
10.0294
9.98073
9.92515
9.86037
9.78648
9.70177
9.60286
9.48996
9.36077
9.21414
9.04787
8.85931
8.64735
8.41035
8.14867
7.86038
7.54589
7.20586
6.84129
6.45581
6.0525
5.63503
5.20884
4.77988
4.35283
3.93329
3.52827
3.14091
2.77497
2.43456
2.12114
1.83584
1.57897
1.34997
1.14785
0.97098
0.817714
0.685956
0.573615
0.478627
0.398897
0.332664
0.277987
0.233372
0.197202
0.168326
0.145546
0.12786
0.114262
0.104172
0.0968159
0.0916563
0.0883959
0.0863692
0.0853841
0.0851828
0.0854659
0.086101
0.0869671
0.087863
0.0888708
0.0898087
0.0905013
0.0910657
0.091434
0.091519
0.0914119
0.0910319
0.0903873
0.0894779
0.0881762
0.0865913
0.0845927
0.082152
0.0790467
0.0752856
0.0707947
0.0658737
0.0601718
0.053545
0.046222
0.037628
0.0274965
0.0162644
0.00521583
10.2675
10.216
10.1764
10.14
10.1028
10.0611
10.0135
9.95975
9.89652
9.82439
9.7412
9.6446
9.53315
9.40531
9.25906
9.09249
8.90363
8.6901
8.45081
8.18516
7.89237
7.57146
7.22443
6.8522
6.45794
6.04414
5.61675
5.17977
4.74099
4.30418
3.87587
3.46231
3.06843
2.69802
2.35351
2.03738
1.75078
1.49379
1.26572
1.06548
0.891178
0.741119
0.612939
0.50451
0.413672
0.338213
0.276198
0.225797
0.185209
0.153072
0.127933
0.108725
0.0944334
0.0839657
0.0767314
0.0720814
0.0694981
0.0683841
0.0684679
0.0693778
0.0709106
0.0727581
0.0747357
0.0768796
0.0789435
0.0809265
0.0827863
0.084275
0.0855795
0.086596
0.0872733
0.0876284
0.087736
0.0875289
0.0869969
0.0859944
0.0846765
0.0829242
0.0806705
0.077761
0.0742072
0.0700219
0.064992
0.0591733
0.0523499
0.0450118
0.0368158
0.027163
0.0161847
0.00526468
10.2936
10.2424
10.2029
10.1677
10.1312
10.0908
10.0452
9.99203
9.93107
9.86089
9.77935
9.6842
9.57342
9.44691
9.30154
9.13456
8.94467
8.73024
8.4886
8.21884
7.92162
7.59514
7.24111
6.86106
6.45709
6.0344
5.59723
5.15066
4.70163
4.25615
3.82003
3.3993
2.99866
2.6235
2.27565
1.95733
1.66966
1.41272
1.18568
0.987243
0.815507
0.668404
0.543724
0.438996
0.352096
0.280653
0.222711
0.176258
0.139567
0.111126
0.0896377
0.0738021
0.0626626
0.05523
0.0507645
0.0486607
0.0484288
0.0494571
0.0515025
0.0541854
0.0573636
0.0606023
0.0640202
0.0673147
0.0704415
0.0733936
0.0760893
0.0783972
0.080392
0.081968
0.0832337
0.0841124
0.0846667
0.0847981
0.0845986
0.0839132
0.082847
0.0812853
0.0791822
0.0765118
0.0731458
0.0689329
0.0638976
0.0580467
0.0515738
0.0444446
0.0359194
0.0263768
0.0161885
0.00541751
10.3179
10.2669
10.2278
10.1934
10.1572
10.1185
10.0736
10.0225
9.96331
9.89484
9.81477
9.72022
9.61156
9.48522
9.34042
9.17307
8.98301
8.76707
8.52263
8.24963
7.94813
7.61556
7.25522
6.86793
6.45499
6.02349
5.57756
5.12155
4.66361
4.20952
3.76594
3.33928
2.93356
2.5535
2.20245
1.88242
1.59396
1.3372
1.11116
0.914449
0.745064
0.600878
0.479388
0.378129
0.294842
0.227211
0.17292
0.13024
0.0971422
0.0721921
0.0540159
0.041326
0.0331044
0.0284949
0.0266146
0.026852
0.0288064
0.031847
0.0357082
0.0401122
0.0447546
0.0493867
0.0539897
0.0583983
0.0625922
0.0664583
0.0699343
0.0729424
0.0755182
0.0777155
0.0794973
0.0808147
0.0817128
0.0822471
0.0823639
0.0819652
0.0811009
0.0797682
0.0778796
0.0752903
0.0719713
0.0677301
0.0625748
0.0571424
0.0511122
0.0436632
0.0354589
0.026014
0.0155378
0.00511834
10.3398
10.2885
10.2506
10.2165
10.1812
10.143
10.0999
10.0507
9.99209
9.92521
9.84644
9.75322
9.64536
9.51992
9.37552
9.20831
9.01754
8.79947
8.55312
8.2768
7.97099
7.63346
7.26669
6.87233
6.45179
6.01218
5.55776
5.09361
4.62688
4.16611
3.71601
3.28324
2.87338
2.48946
2.13571
1.81409
1.52506
1.26847
1.04341
0.848327
0.681167
0.539497
0.420957
0.322892
0.242911
0.178602
0.127736
0.0883509
0.0585872
0.0367977
0.0216241
0.0117661
0.00631423
0.00412763
0.00462596
0.0070619
0.0109817
0.0159042
0.0213503
0.027261
0.0332946
0.0392318
0.0449216
0.0503504
0.0554497
0.0601309
0.0643078
0.0679967
0.0711306
0.0738495
0.0760704
0.077833
0.0790809
0.0799425
0.0803258
0.0801796
0.0795267
0.0783697
0.0766294
0.0741746
0.0709638
0.0669629
0.0621008
0.0563408
0.0497676
0.0426337
0.0347742
0.0255346
0.0152293
0.00499461
10.359
10.3076
10.2702
10.2361
10.2026
10.1653
10.123
10.0745
10.0177
9.95121
9.87417
9.78205
9.67507
9.55061
9.40629
9.23917
9.04754
8.82805
8.57918
8.30021
7.99048
7.64805
7.27564
6.87477
6.4478
6.00016
5.53871
5.06719
4.59384
4.12647
3.67099
3.23288
2.81923
2.43218
2.07648
1.75354
1.464
1.20763
0.983554
0.7899
0.624681
0.485326
0.369317
0.274032
0.196967
0.135603
0.0877958
0.05134
0.0244989
0.00550251
-0.00699761
-0.0143253
-0.0174507
-0.0173933
-0.0148262
-0.0104242
-0.00476134
0.0017601
0.00867594
0.0159624
0.0231828
0.0302856
0.0369642
0.0432424
0.0491745
0.0545218
0.0593479
0.0635792
0.0672838
0.070483
0.0730662
0.0751897
0.0767722
0.077901
0.0784471
0.0785689
0.0781424
0.0770878
0.0754502
0.0731424
0.0700736
0.0661365
0.0612089
0.0552594
0.0488708
0.0420162
0.0340629
0.0250547
0.015107
0.00493408
10.3749
10.3234
10.2865
10.2531
10.2196
10.1841
10.1424
10.094
10.0392
9.97366
9.89734
9.8065
9.70038
9.57651
9.43178
9.26477
9.07265
8.85162
8.60138
8.31951
8.00609
7.66025
7.28258
6.87537
6.44318
5.98878
5.52091
5.04315
4.56496
4.09223
3.63135
3.18947
2.77189
2.38325
2.02563
1.70165
1.41177
1.1557
0.932384
0.740024
0.576424
0.439038
0.325253
0.232354
0.157741
0.0989383
0.0536677
0.0197578
-0.00466255
-0.0212635
-0.0315048
-0.036565
-0.0377297
-0.0357606
-0.0314133
-0.0253894
-0.0182189
-0.0102536
-0.00205579
0.00631473
0.0146036
0.0226064
0.0301736
0.0372718
0.0438279
0.0498171
0.0551638
0.0598868
0.0640372
0.067552
0.0705246
0.0729668
0.0748187
0.0761608
0.0768894
0.0771605
0.0768451
0.075978
0.0744702
0.0722201
0.0691883
0.0653586
0.0605289
0.0545311
0.0481874
0.0412354
0.0333851
0.0245946
0.0148502
0.00484011
10.3874
10.3358
10.2988
10.2669
10.2333
10.1978
10.1574
10.1106
10.0556
9.99152
9.91541
9.82589
9.72057
9.59677
9.45297
9.28544
9.09206
8.87058
8.61837
8.33484
8.01882
7.66966
7.2878
6.87578
6.43804
5.97792
5.50436
5.02304
4.54
4.06311
3.59879
3.15322
2.73356
2.3428
1.98398
1.65915
1.36909
1.1133
0.890668
0.699386
0.537084
0.401298
0.289331
0.198329
0.125748
0.0690908
0.0258229
-0.00597982
-0.02841
-0.0430417
-0.0514424
-0.0547494
-0.0542193
-0.0506323
-0.0448818
-0.0375375
-0.0290954
-0.0200267
-0.0107455
-0.0014937
0.00766303
0.0163943
0.0247329
0.0324227
0.0395603
0.0460528
0.0518023
0.056925
0.0614177
0.0652412
0.0684977
0.0711685
0.0732241
0.0747121
0.0756344
0.0760389
0.0757849
0.0749951
0.0735373
0.0713869
0.0684141
0.0646563
0.0600262
0.0544193
0.0478565
0.0402924
0.0324598
0.0241201
0.014592
0.00473389
10.3959
10.3446
10.3076
10.2764
10.2431
10.2078
10.168
10.1213
10.0679
10.0041
9.92875
9.83978
9.73499
9.61172
9.46797
9.30029
9.1067
8.88383
8.6309
8.34643
8.02914
7.6768
7.29191
6.87581
6.4303
5.96696
5.49213
5.00724
4.52076
4.04012
3.57314
3.12559
2.70397
2.31182
1.95198
1.62675
1.33654
1.081
0.858884
0.66842
0.507179
0.372649
0.262011
0.172571
0.10147
0.0463264
0.00472399
-0.0255152
-0.0464325
-0.0595372
-0.0665351
-0.0684983
-0.0666714
-0.0618992
-0.0550118
-0.0466814
-0.0372723
-0.0273867
-0.0172409
-0.00725243
0.00246271
0.0117948
0.0206294
0.028847
0.0364116
0.0432557
0.0493446
0.054765
0.0595121
0.063574
0.0670074
0.0697953
0.0720722
0.0736218
0.0746523
0.0751308
0.0749843
0.0742422
0.0727805
0.0706746
0.0677541
0.0639441
0.0593684
0.054001
0.0474796
0.0398811
0.0320923
0.0239718
0.0144669
0.00462742
10.3998
10.3497
10.3124
10.2816
10.2489
10.2136
10.1738
10.1276
10.0749
10.0113
9.93671
9.84841
9.74373
9.62108
9.47687
9.30967
9.11551
8.89196
8.63848
8.35271
8.03365
7.68005
7.29353
6.87417
6.42712
5.96153
5.48303
4.99595
4.50677
4.02474
3.55506
3.10694
2.68428
2.29044
1.93023
1.60476
1.3145
1.05912
0.837484
0.647581
0.487061
0.353391
0.243688
0.155233
0.0851705
0.0311686
-0.00943457
-0.0385909
-0.0584216
-0.0705661
-0.0765585
-0.077628
-0.0749046
-0.0693048
-0.061669
-0.0526298
-0.0426438
-0.0321571
-0.0214818
-0.0109358
-0.000810129
0.0088943
0.0180694
0.0265979
0.0343673
0.0414894
0.0477948
0.0534214
0.0583253
0.0625588
0.0660688
0.0689591
0.0712813
0.0729743
0.0740488
0.0744941
0.0744183
0.0736381
0.0722683
0.0701034
0.0670669
0.0631323
0.0585332
0.0535978
0.0473214
0.0396117
0.0317237
0.0237528
0.0143103
0.00456699
10.4001
10.3504
10.313
10.2824
10.25
10.2147
10.1749
10.1291
10.0768
10.0135
9.93911
9.8506
9.74681
9.62381
9.4806
9.31292
9.11869
8.89526
8.64129
8.3547
8.03476
7.68091
7.29322
6.87303
6.42647
5.95765
5.47652
4.98878
4.49942
4.01597
3.54557
3.09721
2.67391
2.27967
1.9191
1.59346
1.30326
1.04814
0.826677
0.637016
0.476961
0.343685
0.234598
0.146619
0.0770139
0.0235705
-0.0163848
-0.0449438
-0.0642314
-0.0759356
-0.0813732
-0.0819408
-0.0787511
-0.0727378
-0.06479
-0.0553632
-0.0450338
-0.0342443
-0.0233294
-0.0125252
-0.00218331
0.00766247
0.0170159
0.0256764
0.0336197
0.0407937
0.0472391
0.0529552
0.0579303
0.0621462
0.0657307
0.0686359
0.0709748
0.0727012
0.0737516
0.0742369
0.0740502
0.0732799
0.0718491
0.0696867
0.0666897
0.0629225
0.0583111
0.0530071
0.0465916
0.0391054
0.0313352
0.0234088
0.0141243
0.00452686
10.3964
10.3468
10.3094
10.2788
10.2464
10.2111
10.171
10.1259
10.0731
10.0106
9.93596
9.84744
9.74373
9.62086
9.47784
9.31022
9.11612
8.89287
8.63903
8.35249
8.03257
7.67904
7.2915
6.87143
6.42511
5.95648
5.47541
4.98775
4.49839
4.01461
3.54506
3.09664
2.67332
2.27913
1.91871
1.59309
1.30296
1.04787
0.826534
0.636966
0.476973
0.343734
0.234623
0.146734
0.077287
0.0238622
-0.0160386
-0.0445724
-0.063817
-0.0754822
-0.0808797
-0.0814178
-0.0782041
-0.072172
-0.0642148
-0.0547815
-0.0444467
-0.0336509
-0.0226759
-0.0119862
-0.00163405
0.00823829
0.0174722
0.026149
0.0341
0.0412366
0.04763
0.0533323
0.0582763
0.0624551
0.0659919
0.0688138
0.0711228
0.0728409
0.073807
0.0742074
0.0739536
0.0731126
0.0716277
0.0694262
0.0663872
0.062618
0.0579648
0.0525671
0.0461605
0.0389142
0.0310199
0.0227796
0.0138934
0.00459372
10.3886
10.3389
10.3015
10.2707
10.2381
10.2028
10.1631
10.1172
10.0647
10.0014
9.92704
9.83888
9.73437
9.61219
9.46874
9.30144
9.10773
8.88495
8.63175
8.34605
8.0267
7.67459
7.28829
6.86927
6.42321
5.95829
5.47982
4.99291
4.50381
4.02168
3.55248
3.10516
2.68254
2.28895
1.92893
1.60357
1.31363
1.05854
0.837063
0.647361
0.487032
0.353554
0.244023
0.155661
0.0858622
0.0319545
-0.00838349
-0.0374577
-0.0571495
-0.0692029
-0.0750802
-0.076055
-0.0732567
-0.0675961
-0.0599372
-0.050881
-0.0408847
-0.0303901
-0.0196713
-0.00926087
0.000848727
0.0105244
0.0196091
0.0280597
0.035753
0.0428013
0.0490385
0.0545769
0.0593596
0.0634123
0.0668379
0.0695693
0.0717382
0.0733373
0.0741973
0.0744878
0.0741205
0.0731708
0.0715901
0.0693019
0.0661792
0.0623363
0.0575987
0.0521266
0.0458399
0.0389021
0.0312226
0.0226574
0.0133518
0.00425784
10.377
10.3268
10.2897
10.2584
10.2252
10.1899
10.1504
10.1041
10.0507
9.98744
9.91281
9.82411
9.71976
9.59717
9.45393
9.28681
9.09358
8.87169
8.61989
8.33531
8.01741
7.66686
7.28258
6.86707
6.42471
5.96301
5.48724
5.00204
4.51583
4.03574
3.56861
3.12259
2.70111
2.30914
1.94976
1.62483
1.33505
1.07992
0.858201
0.668045
0.507197
0.372962
0.262601
0.173401
0.10265
0.0477537
0.00637608
-0.0236473
-0.0442514
-0.0572662
-0.0640357
-0.0658591
-0.06391
-0.0589986
-0.0521054
-0.0437528
-0.0343367
-0.0244584
-0.0143175
-0.00440141
0.00524499
0.0145602
0.02326
0.0313276
0.0387114
0.0453862
0.0513832
0.0567043
0.0611835
0.0651054
0.0682936
0.0708272
0.0727951
0.0741863
0.0749379
0.0750898
0.0745528
0.073452
0.0717358
0.0693209
0.0660716
0.0620919
0.0571701
0.0514503
0.0450893
0.0386815
0.0316334
0.0229315
0.0133133
0.00421254
10.3618
10.3105
10.2736
10.2417
10.2082
10.1727
10.1329
10.0867
10.032
9.96835
9.89274
9.80394
9.69909
9.57692
9.43332
9.26646
9.07409
8.85344
8.60326
8.3203
8.00485
7.65667
7.27534
6.86392
6.42682
5.96972
5.49775
5.01619
4.5333
4.05686
3.59263
3.14887
2.72938
2.33896
1.98078
1.65652
1.36705
1.11182
0.889677
0.698882
0.537071
0.401769
0.290215
0.199662
0.127443
0.0710541
0.0282182
-0.00329432
-0.0254062
-0.0397365
-0.0478893
-0.0510359
-0.0502693
-0.046588
-0.0407985
-0.0334203
-0.0249695
-0.0159337
-0.00666405
0.00255363
0.0115339
0.0202381
0.0283649
0.0359216
0.0428535
0.0491075
0.0547027
0.0596083
0.0638229
0.0673626
0.070289
0.0726109
0.0743046
0.075454
0.0759742
0.0759417
0.0752346
0.0739529
0.07207
0.0694934
0.0660724
0.0618913
0.0567839
0.0512073
0.0455295
0.0388457
0.0308143
0.0223062
0.0134133
0.00439475
10.3424
10.2909
10.2541
10.2209
10.1875
10.1516
10.1109
10.0641
10.009
9.94401
9.8679
9.77844
9.67365
9.55081
9.40731
9.24086
9.04894
8.83
8.58179
8.30124
7.98864
7.6441
7.2672
6.86084
6.42928
5.97749
5.5106
5.03373
4.55615
4.08431
3.62441
3.18329
2.76627
2.37831
2.02162
1.69827
1.40916
1.15389
0.931139
0.739416
0.576436
0.439663
0.326452
0.234102
0.159973
0.101615
0.0568013
0.0233086
-0.000740753
-0.0169072
-0.0268947
-0.0317765
-0.0326532
-0.0304793
-0.0261143
-0.0200619
-0.0128489
-0.00499757
0.00323028
0.0114868
0.0196332
0.0275017
0.034913
0.0417667
0.048141
0.0538052
0.0588334
0.0633278
0.0671079
0.0702539
0.0728247
0.0748397
0.0762522
0.0771106
0.0773208
0.0770429
0.0761957
0.0746609
0.0726172
0.0698313
0.066285
0.0619758
0.0568294
0.0512209
0.045468
0.0387365
0.0308449
0.0221827
0.012977
0.00412411
10.3195
10.2679
10.2308
10.1971
10.164
10.1268
10.085
10.0372
9.98081
9.91563
9.8383
9.74801
9.64299
9.5194
9.37579
9.21008
9.01924
8.80173
8.5554
8.27763
7.96875
7.62885
7.25722
6.85732
6.43181
5.98559
5.52505
5.05539
4.58353
4.11708
3.66253
3.22522
2.81225
2.42636
2.07166
1.74954
1.46089
1.20545
0.982079
0.789265
0.624712
0.486147
0.370885
0.276324
0.199803
0.138996
0.0917338
0.0558298
0.0293475
0.0108224
-0.00129418
-0.00830369
-0.0111929
-0.0109716
-0.0083057
-0.00387822
0.00179232
0.00827746
0.0152192
0.0222824
0.0293686
0.0362119
0.0427612
0.0488403
0.0544189
0.0594055
0.0638561
0.0677317
0.071051
0.0737902
0.0758805
0.0775067
0.0786172
0.0791009
0.0790133
0.0784515
0.0772965
0.0755924
0.0732876
0.0702872
0.0667007
0.062283
0.0572768
0.0515752
0.0453763
0.0383785
0.0304822
0.0218675
0.0127745
0.00405272
10.2935
10.2421
10.2045
10.1703
10.1363
10.0981
10.0555
10.0066
9.94974
9.8833
9.80443
9.7135
9.60703
9.48333
9.33947
9.17467
8.9852
8.76878
8.52416
8.25069
7.94548
7.61035
7.24482
6.8513
6.43355
5.99496
5.54164
5.07949
4.61489
4.15508
3.70612
3.27414
2.86489
2.48244
2.13023
1.80953
1.52149
1.26591
1.04178
0.84763
0.681357
0.540599
0.4229
0.325655
0.24637
0.182733
0.132514
0.0937422
0.0645191
0.0432295
0.0284107
0.0189876
0.0137166
0.0117943
0.01237
0.0148465
0.0187723
0.0236636
0.0290864
0.0347641
0.0405907
0.0463539
0.0517887
0.0569188
0.0616405
0.0659184
0.0696682
0.0729104
0.0755726
0.0777904
0.0794099
0.0806018
0.0812982
0.0813846
0.0809545
0.080084
0.0786846
0.0766648
0.0741212
0.070973
0.0671468
0.0626709
0.0574664
0.0516725
0.0452829
0.0382637
0.0303344
0.0216694
0.0127423
0.00409713
10.265
10.2136
10.1753
10.141
10.1055
10.0672
10.0233
9.97282
9.91457
9.84674
9.76663
9.67469
9.56719
9.44331
9.29899
9.13443
8.94593
8.73165
8.49005
8.21958
7.91882
7.58932
7.23014
6.84389
6.43423
6.00403
5.55875
5.10546
4.64881
4.19688
3.75448
3.32887
2.92401
2.54568
2.19616
1.87721
1.58997
1.33434
1.1094
0.913767
0.745419
0.602259
0.481766
0.38145
0.299025
0.23209
0.178586
0.136514
0.104131
0.079687
0.0619594
0.0496975
0.041809
0.0373665
0.0356066
0.0359174
0.0378509
0.0408716
0.0445812
0.0487496
0.0531504
0.0576728
0.0619093
0.0660123
0.069756
0.0731704
0.0761363
0.0786276
0.080649
0.0822959
0.083356
0.0840574
0.084301
0.0839563
0.0831965
0.0819473
0.0801918
0.0779562
0.0751781
0.0717673
0.0677194
0.0630101
0.0575214
0.0515492
0.0453596
0.0384366
0.0305153
0.0218701
0.0128033
0.0040828
10.2343
10.1832
10.1439
10.109
10.073
10.033
9.9885
9.93657
9.87647
9.80699
9.72623
9.63205
9.52426
9.39953
9.25462
9.09023
8.90305
8.69106
8.45164
8.18471
7.88951
7.56487
7.21275
6.83495
6.43309
6.01253
5.57681
5.13227
4.68491
4.2408
3.80683
3.38768
2.98873
2.6146
2.26822
1.95145
1.66521
1.40955
1.1838
0.986541
0.81605
0.670137
0.546535
0.44292
0.356942
0.286408
0.229215
0.183531
0.147642
0.119764
0.0987784
0.0833632
0.0725172
0.0653373
0.061063
0.0589832
0.0587099
0.0596668
0.0615702
0.0640806
0.0669343
0.0699896
0.0730242
0.0758955
0.0785647
0.0810719
0.083114
0.0848787
0.0862063
0.0871538
0.0877053
0.0878198
0.0875509
0.086765
0.0856281
0.0840111
0.0819671
0.0794259
0.076313
0.0726766
0.0685039
0.0636123
0.0580604
0.0518701
0.0452664
0.0382589
0.0303622
0.0218567
0.0130556
0.00425679
10.2019
10.1507
10.1113
10.0751
10.0382
9.9973
9.95077
9.89806
9.83631
9.7648
9.68261
9.58772
9.47862
9.35266
9.20781
9.04327
8.85681
8.64645
8.40984
8.1468
7.85659
7.53816
7.19317
6.8234
6.43056
6.01986
5.5939
5.15965
4.7216
4.287
3.86188
3.44975
3.05686
2.68806
2.3452
2.03091
1.74582
1.49033
1.26379
1.06485
0.892009
0.743167
0.616307
0.509026
0.419223
0.344795
0.283731
0.234039
0.194273
0.16282
0.138245
0.119521
0.105471
0.0953574
0.0882833
0.083719
0.0810409
0.0798246
0.0797462
0.0804195
0.0816317
0.0831215
0.0848351
0.0864364
0.0880196
0.089455
0.0906079
0.0915333
0.0921347
0.0923513
0.0922807
0.0918753
0.0910486
0.0898122
0.0882532
0.0862898
0.0839046
0.0809948
0.0776546
0.0737652
0.0693284
0.0643407
0.058693
0.0524512
0.0457475
0.0384579
0.0304622
0.0218489
0.012772
0.00404569
10.1686
10.1169
10.0771
10.0405
10.0023
9.95971
9.91223
9.85709
9.79449
9.72087
9.63705
9.54072
9.4309
9.30386
9.15821
8.99379
8.80834
8.59932
8.36624
8.10633
7.8209
7.50894
7.17046
6.80946
6.4267
6.02575
5.60988
5.18609
4.75895
4.33426
3.91795
3.51384
3.12752
2.76427
2.42576
2.11408
1.83045
1.57524
1.3479
1.14736
0.972005
0.820162
0.689839
0.578739
0.484899
0.406347
0.341081
0.287331
0.243448
0.208099
0.17982
0.157554
0.140149
0.126826
0.116949
0.109683
0.104498
0.100966
0.0988
0.097589
0.0970576
0.0969416
0.0971322
0.0974985
0.0979286
0.0982633
0.0984488
0.0985101
0.0983498
0.0978658
0.0970905
0.0960846
0.0947452
0.0930234
0.0910597
0.0887387
0.0859281
0.0827107
0.0790396
0.0749322
0.0703143
0.0650827
0.0592932
0.0529758
0.0461608
0.0387311
0.0306552
0.0219513
0.012749
0.00400278
10.1354
10.0827
10.0421
10.0047
9.96515
9.92164
9.87279
9.81567
9.7513
9.67616
9.59115
9.49272
9.38057
9.25324
9.10687
8.94288
8.75791
8.55062
8.31977
8.06376
7.78321
7.47746
7.14703
6.79389
6.42057
6.02945
5.62422
5.21176
4.79558
4.38128
3.97374
3.57834
3.19978
2.8423
2.5079
2.19936
1.91748
1.66272
1.43469
1.23254
1.05481
0.899843
0.765877
0.650858
0.552922
0.470097
0.400467
0.34239
0.29435
0.254935
0.222732
0.1968
0.176013
0.159447
0.146497
0.136431
0.128703
0.122841
0.118508
0.115279
0.112879
0.111176
0.109892
0.108885
0.108102
0.107374
0.106556
0.105699
0.104717
0.103484
0.10206
0.100468
0.0985856
0.0963598