/*--------------------------------*- C++ -*----------------------------------*\
  =========                 |
  \\      /  F ield         | OpenFOAM: The Open Source CFD Toolbox
   \\    /   O peration     | Website:  https://openfoam.org
    \\  /    A nd           | Version:  11
     \\/     M anipulation  |
\*---------------------------------------------------------------------------*/
FoamFile
{
    format      ascii;
    class       volScalarField;
    location    "0.006";
    object      p;
}
// * * * * * * * * * * * * * * * * * * * * * * * * * * * * * * * * * * * * * //

dimensions      [0 2 -2 0 0 0 0];

internalField   nonuniform List<scalar> 
287084
(
5.62342
5.38556
5.25628
5.16261
5.08319
5.01066
4.94004
4.86976
4.79809
4.72445
4.64793
4.56689
4.48119
4.38966
4.29133
4.1876
4.07753
3.96035
3.83652
3.70669
3.5708
3.42927
3.28305
3.132
2.97727
2.82005
2.66197
2.50324
2.3442
2.18624
2.03082
1.88016
1.73567
1.597
1.46493
1.34015
1.22391
1.1162
1.01628
0.925066
0.842011
0.766781
0.699042
0.638346
0.584187
0.536053
0.493433
0.45576
0.422445
0.393019
0.366922
0.343339
0.321427
0.3032
0.291976
0.283431
0.270496
0.255897
0.244235
0.236882
0.232531
0.225578
0.21651
0.209219
0.202433
0.195623
0.189862
0.183824
0.1772
0.169981
0.162531
0.155337
0.14817
0.140888
0.133428
0.125842
0.118012
0.109841
0.101346
0.0926743
0.0837637
0.0744243
0.0651923
0.0553328
0.0463775
0.0388578
0.0302338
0.0209251
0.0105129
0.00193511
5.49576
5.33739
5.23368
5.15043
5.07628
5.00619
4.93753
4.86832
4.79763
4.72487
4.64834
4.56746
4.48157
4.39039
4.29268
4.18836
4.07804
3.96066
3.83668
3.70668
3.57056
3.42883
3.28211
3.13066
2.97576
2.81716
2.65774
2.49794
2.33836
2.18029
2.02468
1.87372
1.72883
1.58987
1.4578
1.33291
1.21653
1.10886
1.0093
0.918187
0.83533
0.760366
0.692967
0.632673
0.578918
0.53121
0.488962
0.451629
0.418732
0.389732
0.364174
0.341545
0.321566
0.30457
0.290739
0.278717
0.266756
0.255173
0.245142
0.236889
0.229791
0.22259
0.215147
0.208191
0.201522
0.195004
0.188753
0.182426
0.175858
0.16902
0.162031
0.154992
0.147862
0.14065
0.133256
0.125717
0.117956
0.109916
0.1017
0.0932333
0.0844649
0.0753863
0.0661203
0.0567072
0.0473055
0.0388568
0.0307024
0.0214534
0.0118489
0.00370629
5.44612
5.30713
5.21426
5.13778
5.06777
5.00075
4.93407
4.86663
4.79765
4.72547
4.64943
4.56886
4.48309
4.39156
4.29405
4.18977
4.07866
3.96124
3.83754
3.70676
3.5695
3.4272
3.27936
3.12669
2.9708
2.81197
2.6511
2.48918
2.32824
2.16882
2.01249
1.86116
1.71529
1.57578
1.44336
1.31868
1.20197
1.09407
0.995089
0.904399
0.821995
0.747677
0.680983
0.621386
0.568387
0.521464
0.480018
0.443472
0.411287
0.383054
0.358297
0.336519
0.31745
0.300966
0.286843
0.274448
0.263041
0.252527
0.243087
0.23476
0.227315
0.2202
0.213218
0.206514
0.200035
0.193629
0.187348
0.181058
0.174608
0.168013
0.161255
0.154358
0.14734
0.140186
0.132906
0.125456
0.117798
0.109885
0.101754
0.0934174
0.0848388
0.0758949
0.0666537
0.0572037
0.0478806
0.0392024
0.0309376
0.0220414
0.0121991
0.00340216
5.4112
5.2806
5.1961
5.12537
5.05925
4.99495
4.93081
4.86577
4.79785
4.72649
4.65049
4.5702
4.48518
4.39431
4.29663
4.19188
4.08042
3.96205
3.83796
3.70658
3.56842
3.42504
3.27574
3.12153
2.96363
2.80273
2.63981
2.47632
2.31357
2.1524
1.99502
1.84215
1.69509
1.55475
1.42181
1.29689
1.18043
1.07264
0.97378
0.883722
0.802193
0.72884
0.663146
0.604665
0.552854
0.50704
0.466694
0.431321
0.400248
0.373045
0.349298
0.328494
0.310365
0.294585
0.280895
0.268843
0.258025
0.248235
0.239379
0.231339
0.224031
0.217188
0.210537
0.204135
0.197924
0.191734
0.185595
0.179453
0.173168
0.166735
0.160183
0.153478
0.146595
0.139589
0.132401
0.125009
0.117436
0.109658
0.10164
0.0934021
0.0849111
0.0760588
0.066874
0.057495
0.0481595
0.0394196
0.0311872
0.0223902
0.0124676
0.00344698
5.38734
5.26062
5.1807
5.11415
5.05129
4.9901
4.92882
4.86534
4.79822
4.72765
4.65331
4.57377
4.48852
4.39714
4.29915
4.19475
4.08289
3.96384
3.83843
3.70608
3.56708
3.42145
3.27022
3.11409
2.95403
2.79094
2.62541
2.4595
2.29452
2.13127
1.97171
1.81698
1.66871
1.52743
1.39348
1.26807
1.15154
1.04411
0.945903
0.856916
0.776496
0.704334
0.64
0.582882
0.532458
0.488158
0.449275
0.415319
0.38569
0.359832
0.337357
0.317762
0.300726
0.285936
0.273011
0.26166
0.251555
0.242461
0.234275
0.226789
0.219893
0.213418
0.207157
0.20113
0.195217
0.189328
0.183444
0.177485
0.171442
0.165227
0.15885
0.152346
0.145643
0.138751
0.1317
0.124457
0.116981
0.109282
0.101412
0.0932583
0.084807
0.0760458
0.0669452
0.0575335
0.0482397
0.0397038
0.0314335
0.0225006
0.0126466
0.00359882
5.36995
5.24539
5.16868
5.10545
5.04566
4.98698
4.92736
4.86517
4.80011
4.73038
4.65614
4.57736
4.49247
4.40118
4.30317
4.19787
4.08565
3.96642
3.83951
3.70529
3.56435
3.41742
3.26414
3.10519
2.94203
2.77582
2.6073
2.43841
2.27053
2.10462
1.94295
1.78624
1.63591
1.49317
1.35864
1.23318
1.11645
1.00964
0.912467
0.824546
0.745477
0.674817
0.612047
0.556591
0.507843
0.465212
0.428019
0.395796
0.36787
0.343619
0.322645
0.304507
0.288798
0.275168
0.263311
0.25291
0.243693
0.235438
0.227997
0.221196
0.214841
0.208871
0.203124
0.197516
0.191972
0.186459
0.180895
0.175212
0.169391
0.163417
0.157293
0.151004
0.144493
0.137752
0.130859
0.123716
0.116381
0.108834
0.101034
0.0929751
0.0846359
0.0759306
0.0669431
0.0576624
0.0479862
0.0394469
0.0316516
0.0224827
0.0127581
0.00384598
5.3577
5.23492
5.16118
5.09968
5.04227
4.98554
4.92735
4.8672
4.8025
4.73387
4.66044
4.5816
4.4972
4.40612
4.30776
4.20207
4.08866
3.96834
3.84038
3.70479
3.56196
3.41209
3.25585
3.09405
2.92765
2.75792
2.58617
2.41379
2.24223
2.07334
1.9089
1.74976
1.59706
1.45281
1.31799
1.19204
1.07575
0.969742
0.87362
0.787021
0.709547
0.640652
0.579751
0.526225
0.479449
0.438741
0.403484
0.373106
0.347043
0.324679
0.305461
0.288968
0.27478
0.262554
0.251962
0.242686
0.23451
0.22722
0.220659
0.214636
0.208972
0.203616
0.198459
0.193361
0.188238
0.183132
0.177959
0.17258
0.167089
0.161385
0.155492
0.149452
0.14315
0.136587
0.129857
0.122874
0.115653
0.108221
0.100577
0.0926222
0.0843484
0.0757401
0.0668368
0.0576058
0.0483356
0.0397798
0.0314033
0.0223291
0.0125254
0.00356831
5.35105
5.22901
5.15628
5.09661
5.04096
4.98557
4.92892
4.86936
4.80616
4.73843
4.66561
4.58705
4.50246
4.41103
4.3129
4.20659
4.09244
3.97094
3.84143
3.70352
3.55813
3.40593
3.24674
3.08127
2.91112
2.73763
2.56185
2.38511
2.2098
2.03735
1.86931
1.70736
1.55299
1.40734
1.27125
1.14512
1.02927
0.924199
0.829305
0.744341
0.668765
0.60197
0.54331
0.4921
0.447589
0.409131
0.376071
0.347746
0.323707
0.303322
0.28606
0.271415
0.258956
0.248289
0.239093
0.231161
0.224212
0.217995
0.212364
0.207214
0.202358
0.197744
0.193211
0.188644
0.184082
0.179447
0.174657
0.169684
0.164504
0.159125
0.153535
0.147694
0.141607
0.135236
0.128687
0.121906
0.114877
0.107589
0.0999963
0.0921463
0.0839998
0.0754687
0.0667513
0.0578438
0.0487044
0.0398416
0.0308375
0.0216364
0.0122566
0.00356202
5.34781
5.22624
5.15418
5.09588
5.04144
4.98703
4.93151
4.87316
4.81055
4.74385
4.67153
4.59299
4.5086
4.41728
4.31815
4.21157
4.09648
3.9735
3.84224
3.70206
3.55408
3.39836
3.23548
3.06668
2.89256
2.71438
2.53392
2.35285
2.17328
1.99654
1.82497
1.66019
1.50355
1.35642
1.21907
1.09283
0.977627
0.873491
0.780074
0.696927
0.623543
0.559169
0.503047
0.454411
0.412529
0.376695
0.346111
0.320143
0.298305
0.28005
0.264793
0.252143
0.241536
0.232604
0.225015
0.218501
0.212858
0.207824
0.203294
0.199106
0.19513
0.191296
0.187452
0.183546
0.179534
0.17537
0.171049
0.166517
0.161722
0.156642
0.151332
0.145789
0.139944
0.133803
0.127453
0.12085
0.113971
0.10679
0.0993374
0.0916048
0.0833976
0.074637
0.0661529
0.0576398
0.0483302
0.0400397
0.0318031
0.0218876
0.0121836
0.00367053
5.34718
5.22583
5.15429
5.09649
5.04335
4.99032
4.93537
4.87761
4.81646
4.75024
4.6779
4.5998
4.51521
4.42383
4.32438
4.21645
4.10052
3.97571
3.84232
3.69993
3.54914
3.38994
3.22323
3.05016
2.87161
2.68871
2.50298
2.31695
2.13282
1.95197
1.77599
1.60784
1.44911
1.30037
1.16232
1.03591
0.921284
0.81822
0.726474
0.645442
0.57448
0.512767
0.459453
0.413724
0.374747
0.341722
0.313888
0.290595
0.271243
0.255242
0.242093
0.231452
0.222856
0.215774
0.20988
0.204908
0.200676
0.196956
0.193576
0.190427
0.187384
0.184365
0.181264
0.178055
0.174689
0.171069
0.167213
0.163113
0.158732
0.154018
0.148999
0.143716
0.138171
0.132267
0.12613
0.119712
0.112965
0.105942
0.0986461
0.0910368
0.0830882
0.0747202
0.0661252
0.0573471
0.0485374
0.0401196
0.0312508
0.02147
0.0116625
0.00323459
5.34841
5.227
5.1561
5.09921
5.04642
4.99413
4.94024
4.88345
4.82293
4.75716
4.68527
4.60743
4.52272
4.43058
4.33007
4.22164
4.1042
3.97802
3.84252
3.69718
3.54334
3.38046
3.20982
3.0319
2.84798
2.66002
2.46941
2.27839
2.08891
1.90303
1.72316
1.55199
1.3906
1.23976
1.10109
0.974751
0.860776
0.759103
0.669249
0.590579
0.522301
0.463483
0.413248
0.370619
0.334739
0.304777
0.27989
0.259431
0.242751
0.229196
0.218358
0.209874
0.203241
0.198047
0.19392
0.190606
0.18786
0.185483
0.183327
0.181295
0.179243
0.177101
0.1748
0.172306
0.169578
0.166536
0.163211
0.159552
0.155572
0.151251
0.146565
0.141566
0.136271
0.13065
0.124735
0.11851
0.111924
0.105055
0.0979001
0.0904237
0.0826044
0.0743469
0.0657571
0.0569415
0.0481415
0.0397135
0.0309721
0.0213597
0.0116456
0.0032624
5.35126
5.23006
5.15918
5.10259
5.05098
4.9997
4.9463
4.88999
4.82916
4.7635
4.69263
4.6152
4.53043
4.4379
4.33665
4.22685
4.10828
3.98013
3.84195
3.69396
3.53671
3.36985
3.19453
3.01176
2.82298
2.62967
2.43343
2.23631
2.04156
1.85092
1.66691
1.49237
1.32838
1.17626
1.03662
0.910111
0.797161
0.69711
0.609349
0.533233
0.467828
0.412076
0.365083
0.32576
0.293108
0.266366
0.244632
0.227169
0.213277
0.202334
0.193914
0.187612
0.182998
0.179757
0.177501
0.175852
0.174625
0.17363
0.172728
0.171806
0.170787
0.169598
0.16815
0.166383
0.164274
0.161876
0.15907
0.155866
0.152338
0.148388
0.144038
0.139398
0.134363
0.12895
0.12328
0.117243
0.110841
0.104126
0.0971102
0.0897272
0.081992
0.0738777
0.0652573
0.055964
0.0474323
0.0396059
0.0307028
0.0214136
0.0117686
0.00316288
5.35529
5.23423
5.16365
5.10749
5.05603
5.00519
4.9526
4.89707
4.83657
4.7713
4.70084
4.62296
4.53772
4.44493
4.34273
4.23218
4.11213
3.98164
3.84099
3.69007
3.52892
3.35813
3.17844
2.99044
2.79606
2.59711
2.39504
2.19198
1.99137
1.79633
1.60835
1.43009
1.26362
1.10962
0.969609
0.843551
0.73156
0.633212
0.547763
0.474352
0.41193
0.359463
0.315802
0.279833
0.250597
0.227178
0.208635
0.194201
0.183225
0.175034
0.169095
0.165043
0.162501
0.161164
0.16075
0.160837
0.161171
0.161585
0.161987
0.162253
0.16227
0.161967
0.161345
0.160346
0.158942
0.157137
0.154862
0.152162
0.149041
0.14547
0.141506
0.13715
0.132402
0.127274
0.121772
0.115911
0.10971
0.10314
0.0962893
0.089067
0.081433
0.0734265
0.0650208
0.0562506
0.0474044
0.0385867
0.0298699
0.02107
0.0117247
0.00327844
5.36007
5.23929
5.16895
5.11304
5.06208
5.01133
4.95907
4.90425
4.84436
4.77944
4.7086
4.63087
4.54549
4.45129
4.34886
4.23727
4.11528
3.98286
3.83965
3.68526
3.52045
3.3454
3.16099
2.96804
2.76787
2.56327
2.35487
2.14573
1.93958
1.73922
1.54732
1.36596
1.19711
1.04204
0.901537
0.775849
0.665064
0.568574
0.485504
0.414907
0.355612
0.306441
0.266193
0.233682
0.2079
0.187814
0.172505
0.161167
0.153076
0.147606
0.144246
0.142557
0.142147
0.142662
0.144001
0.145817
0.147723
0.149546
0.151223
0.152643
0.153691
0.154346
0.154567
0.154322
0.153606
0.152388
0.150677
0.148439
0.145752
0.142593
0.138974
0.134928
0.130424
0.125535
0.12027
0.114608
0.108586
0.102178
0.0954335
0.0883438
0.0807998
0.0728034
0.0646319
0.056186
0.0473077
0.03851
0.0298443
0.0208248
0.0114387
0.00316665
5.36487
5.24439
5.17456
5.11913
5.06852
5.01848
4.96641
4.91145
4.85208
4.78754
4.71684
4.63839
4.55244
4.45804
4.35479
4.24169
4.11776
3.98317
3.83722
3.68009
3.51139
3.33194
3.14264
2.94411
2.7388
2.52812
2.3131
2.09825
1.88691
1.6816
1.4857
1.30159
1.13042
0.973953
0.833301
0.708264
0.598798
0.504297
0.423698
0.355957
0.299808
0.25397
0.217163
0.188097
0.165719
0.148951
0.136847
0.128565
0.123362
0.1206
0.119743
0.120363
0.122083
0.124531
0.127606
0.131036
0.134441
0.137723
0.140673
0.143203
0.145282
0.146849
0.147899
0.148401
0.148311
0.14772
0.146543
0.144776
0.142542
0.139768
0.136454
0.132698
0.128494
0.123855
0.118806
0.113295
0.107436
0.101243
0.0946569
0.0876351
0.0802219
0.07234
0.0642232
0.0557756
0.0467175
0.037778
0.0294794
0.0209214
0.0116808
0.00330275
5.36963
5.25039
5.18083
5.12553
5.0752
5.02515
4.97346
4.91887
4.8594
4.79486
4.72395
4.64581
4.5597
4.46465
4.36007
4.24569
4.1202
3.98303
3.83456
3.67388
3.50151
3.31779
3.12337
2.92008
2.70938
2.49168
2.27095
2.05045
1.83398
1.62437
1.42452
1.2372
1.06435
0.907182
0.76639
0.642043
0.53406
0.441563
0.363479
0.298619
0.245554
0.203015
0.169539
0.143822
0.124797
0.111272
0.102237
0.0969375
0.0945429
0.0944051
0.0960057
0.0989271
0.102697
0.107017
0.111747
0.116737
0.12167
0.126233
0.130386
0.134063
0.137151
0.139614
0.141456
0.142643
0.143244
0.14324
0.142553
0.141264
0.139422
0.136999
0.134034
0.130549
0.126597
0.122217
0.117381
0.112054
0.106359
0.100318
0.0938682
0.0869788
0.0796995
0.0720173
0.0639029
0.0555086
0.0467463
0.0375434
0.0288505
0.0204892
0.0113475
0.0031307
5.37521
5.25629
5.18686
5.1315
5.08127
5.03201
4.98065
4.92578
4.86677
4.80237
4.73145
4.65308
4.56593
4.47012
4.36496
4.24907
4.12164
3.98244
3.83136
3.66755
3.49111
3.30289
3.10422
2.8962
2.6793
2.45538
2.2291
2.00338
1.78164
1.56806
1.36508
1.17535
1.00067
0.842599
0.702002
0.578517
0.471995
0.381547
0.305963
0.2439
0.193871
0.154406
0.124143
0.101707
0.0858306
0.075368
0.0693112
0.0668003
0.0670793
0.0694685
0.0734254
0.0784641
0.0842405
0.0903987
0.0967454
0.103189
0.1095
0.115363
0.120676
0.125369
0.129391
0.132688
0.135323
0.137223
0.138421
0.138921
0.138736
0.137923
0.136475
0.134374
0.131719
0.128559
0.124876
0.120656
0.11599
0.110864
0.105337
0.0994031
0.0930554
0.0863266
0.0791546
0.0715163
0.063436
0.0551629
0.0467457
0.0378697
0.028738
0.0200503
0.0115346
0.00343694
5.3808
5.26203
5.19264
5.13731
5.08731
5.03823
4.98679
4.93253
4.87379
4.80933
4.73833
4.65915
4.57197
4.47546
4.36909
4.25171
4.12292
3.98161
3.82714
3.66055
3.481
3.28847
3.0853
2.87243
2.64939
2.42014
2.18864
1.95797
1.73178
1.5143
1.30832
1.11637
0.940632
0.78173
0.641147
0.518784
0.41381
0.325414
0.252201
0.192736
0.145557
0.109089
0.0818072
0.0623706
0.0494472
0.0418692
0.0385761
0.0387195
0.0414827
0.0462139
0.0523716
0.0594057
0.0670349
0.0749173
0.0827918
0.0905418
0.098133
0.105194
0.111587
0.117282
0.122173
0.12627
0.129588
0.132144
0.133944
0.134954
0.135231
0.134802
0.133698
0.131953
0.129594
0.126664
0.123193
0.119203
0.114717
0.109765
0.104389
0.0985726
0.0923319
0.0856611
0.0785012
0.0707795
0.0623579
0.0544626
0.0467591
0.0379518
0.0292536
0.0204966
0.0114909
0.00343899
5.38608
5.26726
5.19769
5.1428
5.09308
5.04381
4.99296
4.9389
4.88003
4.81559
4.74394
4.6648
4.57734
4.47991
4.37249
4.25407
4.12375
3.98008
3.82328
3.6534
3.4703
3.27461
3.06708
2.84921
2.62101
2.38653
2.15032
1.91529
1.68512
1.46435
1.25569
1.06187
0.88508
0.725982
0.585651
0.464224
0.360717
0.274144
0.203121
0.146123
0.101546
0.0677315
0.0432352
0.0265614
0.0163307
0.0113424
0.0105755
0.0130735
0.01812
0.0250182
0.0331192
0.0420017
0.0513651
0.0607674
0.0700571
0.0790809
0.0877726
0.0959503
0.103298
0.109877
0.115602
0.120425
0.124414
0.127535
0.129808
0.131299
0.132027
0.131982
0.131178
0.129713
0.127641
0.124959
0.121696
0.117895
0.11357
0.108764
0.103514
0.0978109
0.0916804
0.0851271
0.0781297
0.0707103
0.0628403
0.0547241
0.0465688
0.0381448
0.0293318
0.020052
0.0106943
0.00289685
5.39091
5.27208
5.20255
5.14751
5.09823
5.04934
4.99845
4.94441
4.88538
4.82058
4.74909
4.66937
4.58147
4.4838
4.37607
4.25628
4.12394
3.97857
3.81936
3.64664
3.46044
3.26097
3.04993
2.82762
2.59459
2.35578
2.1151
1.8764
1.64294
1.41915
1.20828
1.01297
0.835373
0.675976
0.536275
0.415753
0.313577
0.228662
0.159607
0.104785
0.0625147
0.0311294
0.00903465
-0.00524975
-0.0130992
-0.0157587
-0.0142564
-0.00961821
-0.00257943
0.00618516
0.0160615
0.0265919
0.0374501
0.0482436
0.058745
0.0688929
0.0786226
0.0877298
0.0959577
0.103336
0.109777
0.115279
0.119826
0.123433
0.126188
0.128068
0.129163
0.129447
0.128958
0.127795
0.125909
0.123412
0.120352
0.116724
0.112516
0.107868
0.10274
0.0971035
0.0910913
0.0846385
0.0777437
0.0704248
0.062625
0.0544615
0.0463693
0.0380771
0.0291911
0.0198084
0.0104356
0.00274989
5.39501
5.27592
5.2067
5.15203
5.10224
5.05383
5.00312
4.94874
4.89031
4.82532
4.75319
4.67348
4.58523
4.48712
4.37819
4.25727
4.12387
3.97683
3.81526
3.63999
3.45133
3.24886
3.03464
2.80831
2.57117
2.32869
2.08461
1.84225
1.60632
1.38006
1.1669
0.970723
0.792533
0.633293
0.493889
0.37416
0.273164
0.18973
0.122368
0.069382
0.0290778
-0.000213597
-0.0202015
-0.0324548
-0.0382749
-0.038936
-0.0355573
-0.0290807
-0.0203231
-0.00996365
0.00143003
0.0134012
0.0254987
0.0374862
0.0490956
0.0601931
0.0707665
0.0807052
0.0896813
0.0977302
0.104786
0.110839
0.115905
0.119931
0.123073
0.12534
0.126716
0.127299
0.127074
0.126103
0.124432
0.122114
0.119211
0.115721
0.111642
0.107077
0.102052
0.0965512
0.0906034
0.0842159
0.077391
0.0701399
0.0624106
0.0542433
0.0461218
0.0378682
0.0290761
0.0197109
0.010297
0.00265496
5.39838
5.27929
5.21007
5.15548
5.10564
5.05704
5.00668
4.95291
4.89388
4.8286
4.75657
4.67684
4.58827
4.48971
4.38014
4.25827
4.12334
3.97477
3.81166
3.63447
3.44338
3.23843
3.02162
2.79187
2.55193
2.30573
2.05849
1.81402
1.57556
1.34759
1.13313
0.935701
0.757335
0.598264
0.459232
0.340151
0.240134
0.157939
0.0919469
0.0404937
0.00183432
-0.0258488
-0.0441527
-0.0546803
-0.0588598
-0.0578666
-0.0529575
-0.0450315
-0.0348524
-0.0231343
-0.0105153
0.00255987
0.0157451
0.0287265
0.0412234
0.0531161
0.0643965
0.0749735
0.0845548
0.0931475
0.100704
0.107207
0.112682
0.117088
0.120566
0.123117
0.124749
0.125536
0.125504
0.124737
0.123238
0.121065
0.118255
0.114861
0.11094
0.106482
0.101487
0.0960356
0.0901668
0.0838487
0.07708
0.0698785
0.0622567
0.0542577
0.0459903
0.0374771
0.0287791
0.0196107
0.0101915
0.00255667
5.40089
5.28173
5.21246
5.15797
5.10819
5.05963
5.00937
4.9552
4.89651
4.83161
4.75945
4.67892
4.58988
4.49127
4.381
4.25833
4.12318
3.97331
3.80896
3.63049
3.437
3.23013
3.01147
2.77896
2.53575
2.28733
2.0388
1.79218
1.55174
1.32235
1.10722
0.909254
0.730451
0.571247
0.432636
0.314193
0.214973
0.133735
0.0688019
0.0184968
-0.0189263
-0.0453326
-0.0623762
-0.0716078
-0.0745073
-0.0723187
-0.0661998
-0.0571336
-0.0459171
-0.0331982
-0.0196148
-0.00565859
0.00830757
0.0220462
0.0352251
0.0477228
0.0595434
0.0706103
0.0806928
0.0897026
0.0976038
0.10445
0.110222
0.11494
0.118678
0.12142
0.123258
0.124221
0.12435
0.123708
0.12233
0.120266
0.117563
0.114244
0.110375
0.105968
0.101072
0.0956966
0.0898146
0.0835396
0.0768016
0.0695927
0.0620117
0.0540076
0.0456573
0.0372748
0.028776
0.0195809
0.0101713
0.00254911
5.40238
5.28314
5.21344
5.15938
5.11003
5.06123
5.01058
4.95665
4.898
4.83286
4.761
4.68102
4.59177
4.4922
4.38144
4.25871
4.12247
3.97173
3.80673
3.62698
3.43246
3.22434
3.00374
2.76964
2.52519
2.27528
2.02504
1.7774
1.53582
1.30567
1.0897
0.891242
0.71217
0.553056
0.414797
0.29675
0.198027
0.11739
0.0532137
0.00372435
-0.0328902
-0.0584376
-0.0746439
-0.0830219
-0.0850303
-0.0820088
-0.0751342
-0.0652835
-0.0533374
-0.0399498
-0.025732
-0.0111865
0.0033635
0.017581
0.0311939
0.0441382
0.0562967
0.0676861
0.0781133
0.0873843
0.0955601
0.102645
0.108625
0.113535
0.117399
0.120307
0.122253
0.123349
0.12361
0.123021
0.121705
0.119742
0.117101
0.113837
0.110041
0.105651
0.100763
0.0954208
0.089603
0.0833154
0.0764978
0.0691868
0.0613456
0.0532992
0.0450177
0.0369888
0.0290698
0.019942
0.0106615
0.00293822
5.40295
5.28358
5.21372
5.15983
5.11059
5.0617
5.011
4.95701
4.89847
4.83322
4.76149
4.68156
4.59192
4.4922
4.38149
4.25814
4.12179
3.97123
3.80573
3.62534
3.43064
3.22166
2.9999
2.76513
2.52017
2.26846
2.01711
1.76964
1.52779
1.29673
1.08062
0.882375
0.703002
0.543995
0.405862
0.287971
0.189534
0.109261
0.0454319
-0.0036848
-0.0399118
-0.0650463
-0.080771
-0.0887349
-0.0903372
-0.0868739
-0.0795492
-0.0693085
-0.0570091
-0.0433116
-0.0287828
-0.0139109
0.000924491
0.0153912
0.0291994
0.0423469
0.0547089
0.0662754
0.0768291
0.0862634
0.0945765
0.101777
0.107865
0.112827
0.116795
0.11979
0.121838
0.122965
0.123236
0.122686
0.121451
0.119506
0.116891
0.11365
0.109827
0.105511
0.100613
0.0952548
0.0894734
0.0832225
0.0765046
0.0693832
0.0617815
0.0537731
0.0454173
0.0370506
0.0285921
0.0194487
0.0100655
0.00249357
5.40267
5.28329
5.21342
5.15953
5.11028
5.06143
5.01062
4.95674
4.898
4.8328
4.76097
4.68107
4.59145
4.49174
4.38108
4.25775
4.12144
3.97095
3.80549
3.62512
3.43043
3.2214
2.99963
2.76487
2.51997
2.26832
2.017
1.76947
1.52767
1.29663
1.08063
0.882387
0.703013
0.543979
0.405873
0.287982
0.189565
0.109257
0.0454292
-0.00362183
-0.0398232
-0.0649676
-0.0807036
-0.0886352
-0.0902307
-0.0868076
-0.079494
-0.0692516
-0.0569375
-0.0432321
-0.0286946
-0.0138226
0.00101162
0.0154754
0.0292808
0.0424286
0.0547944
0.0663519
0.0769414
0.0863481
0.0946538
0.101853
0.107897
0.112889
0.116892
0.119863
0.121866
0.123006
0.123269
0.122757
0.121508
0.119509
0.1169
0.1137
0.10985
0.10548
0.100588
0.0952214
0.089455
0.0832074
0.0764855
0.0693497
0.06175
0.0537516
0.045412
0.0369573
0.0283558
0.0193058
0.0100768
0.00249451
5.40099
5.28163
5.21188
5.15783
5.10851
5.05975
5.00909
4.95515
4.89655
4.83131
4.75943
4.67954
4.58999
4.49065
4.38043
4.25715
4.12118
3.97109
3.80604
3.62632
3.43195
3.22386
3.00313
2.76911
2.52473
2.27481
2.02459
1.77692
1.53551
1.30528
1.08951
0.891547
0.712251
0.553074
0.41483
0.296791
0.198163
0.117546
0.0533415
0.00388125
-0.032749
-0.0582556
-0.0743934
-0.0827777
-0.0848152
-0.0818041
-0.0748619
-0.0650104
-0.0530532
-0.0396682
-0.0254454
-0.010886
0.00367067
0.0178776
0.0314846
0.0444324
0.0565933
0.0679731
0.0784003
0.0876636
0.0958367
0.102906
0.108877
0.113797
0.117647
0.120544
0.122503
0.123553
0.123749
0.123155
0.121872
0.119866
0.117192
0.113946
0.11006
0.105655
0.100725
0.0953326
0.0895384
0.0832617
0.0765176
0.0693664
0.0617601
0.0538389
0.0456472
0.0371239
0.0283234
0.019149
0.0098143
0.00230526
5.3982
5.27897
5.20962
5.15517
5.10543
5.05691
5.00667
4.95258
4.89351
4.82904
4.75743
4.67677
4.58766
4.48896
4.37869
4.25603
4.12077
3.97154
3.80779
3.62894
3.43576
3.2291
3.00999
2.77792
2.53546
2.28715
2.03812
1.79122
1.55108
1.3224
1.10734
0.90934
0.730333
0.57115
0.432668
0.314292
0.215146
0.133916
0.0689968
0.0187744
-0.0186244
-0.0449996
-0.0620186
-0.0712398
-0.0740905
-0.0719403
-0.0658073
-0.0566471
-0.0453769
-0.0326915
-0.0191277
-0.00513695
0.0088734
0.0225846
0.035745
0.0482512
0.0600722
0.0711244
0.0812048
0.0902054
0.0980989
0.104927
0.110714
0.115419
0.119086
0.121814
0.12364
0.124567
0.124638
0.123987
0.122577
0.120472
0.117723
0.114371
0.110478
0.106032
0.101021
0.0955671
0.0897187
0.0833914
0.0765933
0.0693771
0.0616361
0.0534451
0.0448291
0.0361424
0.0279036
0.0194642
0.01051
0.00277229
5.39438
5.27521
5.20598
5.15143
5.10168
5.05316
5.0029
4.94921
4.89015
4.8251
4.75325
4.67359
4.58497
4.48643
4.37647
4.25468
4.1207
3.97264
3.80976
3.63262
3.44169
3.23692
3.02001
2.79041
2.5503
2.30476
2.05798
1.81313
1.57473
1.34727
1.13306
0.935645
0.757105
0.598171
0.459258
0.340273
0.240367
0.158195
0.0922261
0.0408438
0.00223719
-0.0253679
-0.0436635
-0.0541691
-0.0583046
-0.0573276
-0.0523422
-0.0443212
-0.0341311
-0.0224406
-0.00975186
0.00335995
0.0165344
0.0294895
0.0419794
0.0538778
0.0651528
0.0757183
0.0853038
0.0938781
0.101408
0.107896
0.113345
0.117787
0.121205
0.123679
0.125287
0.126048
0.125973
0.125143
0.123583
0.121351
0.118494
0.115043
0.111051
0.10652
0.101443
0.0959248
0.0899978
0.0836046
0.0767174
0.0693694
0.0615814
0.0533531
0.044943
0.0365057
0.0279109
0.0191629
0.0104038
0.00281515
5.38966
5.27058
5.2014
5.14669
5.09699
5.04843
4.99807
4.94427
4.88542
4.8208
4.74939
4.66947
4.58105
4.48286
4.37396
4.25338
4.12001
3.9732
3.81261
3.63782
3.44904
3.2468
3.03259
2.80658
2.56972
2.32748
2.08334
1.84107
1.60521
1.37946
1.16694
0.970571
0.792276
0.633279
0.494009
0.374299
0.273392
0.190055
0.122696
0.0698086
0.0296134
0.000367006
-0.0195772
-0.0317964
-0.0375693
-0.0381827
-0.0347465
-0.0282056
-0.019403
-0.0089858
0.00242586
0.0143811
0.0265183
0.0385289
0.050109
0.061196
0.0717666
0.081679
0.0906984
0.0986992
0.10571
0.111745
0.116763
0.120813
0.123924
0.126106
0.127423
0.127942
0.127643
0.12662
0.124885
0.122489
0.119511
0.115942
0.111786
0.10713
0.102023
0.0964296
0.0903898
0.083917
0.0769822
0.0695997
0.0618294
0.0536915
0.0450362
0.0363567
0.0279639
0.0193329
0.0106241
0.00296184
5.38423
5.26519
5.19592
5.14122
5.09192
5.04319
4.99245
4.9386
4.87952
4.81511
4.74385
4.66416
4.5762
4.47872
4.37067
4.25148
4.11954
3.97451
3.81587
3.6432
3.45738
3.25863
3.04745
2.82545
2.59284
2.3543
2.11369
1.87479
1.64209
1.41858
1.20791
1.01269
0.835028
0.676207
0.536492
0.415914
0.313822
0.228995
0.160021
0.105313
0.0631287
0.0318224
0.00981766
-0.00439944
-0.0122205
-0.0148159
-0.0132513
-0.00854101
-0.00144949
0.00736652
0.0173103
0.0278677
0.0386733
0.0494745
0.0600142
0.0701432
0.0798636
0.0889477
0.0971981
0.104552
0.110914
0.116372
0.120936
0.124525
0.127199
0.129014
0.130005
0.130223
0.129698
0.128447
0.12647
0.123875
0.12073
0.117
0.112731
0.107961
0.102702
0.0970063
0.0908472
0.0843129
0.0773718
0.0699824
0.0622462
0.0541463
0.0457368
0.0371068
0.028311
0.019191
0.00997488
0.00245208
5.37823
5.25943
5.1899
5.13516
5.08562
5.03628
4.98575
4.93194
4.87333
4.80911
4.73764
4.65814
4.5709
4.4744
4.36695
4.24882
4.11878
3.9756
3.81915
3.64954
3.46668
3.2711
3.06395
2.8465
2.61883
2.38498
2.14845
1.91378
1.68436
1.46359
1.25518
1.06142
0.884373
0.725749
0.585936
0.464435
0.360991
0.274502
0.203588
0.146716
0.102255
0.0685746
0.0441452
0.0275015
0.0173438
0.0124582
0.0117808
0.0143919
0.0195143
0.0264372
0.0345951
0.0435248
0.0528417
0.0622504
0.0715427
0.0805699
0.0892623
0.0974055
0.104755
0.111283
0.11698
0.121817
0.125742
0.128791
0.130994
0.132413
0.133052
0.132922
0.132027
0.130508
0.128322
0.125525
0.122147
0.118221
0.113789
0.108872
0.1035
0.097645
0.0914269
0.0848014
0.0777665
0.0703466
0.0625264
0.0543303
0.0457874
0.037122
0.0282686
0.0191921
0.0102636
0.0027281
5.37171
5.25291
5.18338
5.12842
5.07855
5.0296
4.97887
4.92466
4.8659
4.80169
4.73032
4.6517
4.56482
4.46882
4.36262
4.24567
4.11725
3.97658
3.82282
3.65586
3.47639
3.28506
3.08195
2.86897
2.64698
2.41802
2.18628
1.95621
1.73078
1.51353
1.30777
1.11589
0.939768
0.781573
0.641347
0.518967
0.414102
0.325763
0.252702
0.193422
0.146368
0.11002
0.0828812
0.0635353
0.0506654
0.0431724
0.0399889
0.0402059
0.0430467
0.0478319
0.0540501
0.0611557
0.0687871
0.0766422
0.0845146
0.0923079
0.0998707
0.106894
0.113248
0.118877
0.12377
0.127885
0.131148
0.133611
0.135316
0.136247
0.136426
0.135891
0.134683
0.13284
0.130369
0.127358
0.123773
0.119614
0.114987
0.109904
0.104384
0.0984348
0.0920783
0.0853328
0.0781804
0.0706166
0.0626822
0.0543328
0.0453759
0.0369304
0.0286888
0.0194849
0.0106417
0.00307576
5.36495
5.24612
5.17672
5.12139
5.0713
5.02194
4.97119
4.91703
4.85806
4.79369
4.723
4.6443
4.55786
4.46287
4.35743
4.24189
4.11563
3.97724
3.82585
3.662
3.48659
3.29915
3.1002
2.89228
2.67611
2.45304
2.22688
2.00149
1.7806
1.56711
1.36446
1.17474
0.999972
0.842038
0.701651
0.578487
0.472158
0.381889
0.306507
0.244592
0.194753
0.155481
0.125358
0.103012
0.0872126
0.07686
0.0709028
0.0684895
0.0688763
0.0713487
0.0753668
0.0804538
0.0862038
0.0923604
0.098711
0.105153
0.111463
0.117309
0.122593
0.12724
0.131249
0.134533
0.137063
0.138877
0.139983
0.140409
0.140119
0.139154
0.137566
0.135409
0.132655
0.129334
0.125501
0.121121
0.116298
0.111042
0.105358
0.0992971
0.0928004
0.0859081
0.078714
0.0711471
0.0631509
0.0548073
0.0461768
0.0374504
0.0284727
0.0192314
0.0103125
0.00277002
5.35816
5.23912
5.16965
5.11445
5.06378
5.01416
4.96299
4.90871
4.84989
4.78526
4.71462
4.63674
4.55078
4.45617
4.35199
4.23798
4.11318
3.97692
3.82835
3.6682
3.49646
3.31284
3.11912
2.91656
2.70572
2.48855
2.26853
2.04853
1.83209
1.62277
1.42382
1.23673
1.06361
0.906564
0.765913
0.641923
0.534136
0.441884
0.364088
0.299405
0.246577
0.204176
0.170842
0.14529
0.126368
0.112973
0.104061
0.0987971
0.0964872
0.0964855
0.0981627
0.101105
0.104877
0.109257
0.113998
0.118964
0.123878
0.128457
0.132588
0.136182
0.139211
0.14162
0.143391
0.144511
0.145002
0.144842
0.144053
0.142657
0.140711
0.138147
0.135051
0.131443
0.12735
0.122773
0.11772
0.112297
0.106446
0.100181
0.0935707
0.0865908
0.0792696
0.0716267
0.0636266
0.0553203
0.0467772
0.0380435
0.0289811
0.0194706
0.00993223
0.00234412
5.35165
5.23227
5.16249
5.10706
5.05645
5.00656
4.95493
4.90008
4.84111
4.77628
4.70573
4.62815
4.54317
4.44945
4.34583
4.23328
4.11015
3.97605
3.83106
3.67382
3.50579
3.32686
3.13745
2.93996
2.73536
2.52433
2.30995
2.0959
1.88481
1.68033
1.48501
1.30043
1.12937
0.973445
0.83271
0.707993
0.59885
0.504588
0.424324
0.356833
0.300872
0.255211
0.218576
0.189711
0.167487
0.150828
0.138813
0.130633
0.125541
0.12292
0.122151
0.122795
0.124469
0.126965
0.130101
0.133527
0.136937
0.140131
0.14303
0.145556
0.147595
0.149082
0.150037
0.150436
0.150266
0.14952
0.14821
0.146358
0.143964
0.141035
0.137579
0.133659
0.129319
0.12448
0.119238
0.113596
0.107519
0.101153
0.0943826
0.0872732
0.0798455
0.0720669
0.0640025
0.055659
0.0470685
0.0382468
0.0291211
0.0195564
0.00997519
0.0023611
5.34656
5.22597
5.15575
5.09993
5.04858
4.99818
4.94679
4.89156
4.83228
4.76772
4.69733
4.61994
4.53488
4.4418
4.33915
4.2279
4.10672
3.97505
3.83251
3.67893
3.51455
3.33992
3.1558
2.96295
2.76379
2.55942
2.35108
2.14298
1.93765
1.7378
1.54613
1.36484
1.19603
1.04107
0.90068
0.775508
0.665073
0.568852
0.486147
0.415805
0.356731
0.307797
0.267724
0.235407
0.209833
0.189893
0.174668
0.163429
0.155478
0.150133
0.146808
0.145155
0.144768
0.145366
0.146743
0.148531
0.150407
0.152233
0.153885
0.155224
0.156183
0.15675
0.156915
0.156554
0.1557
0.154355
0.152476
0.150157
0.147339
0.144
0.14021
0.135991
0.131314
0.12622
0.120801
0.114933
0.10867
0.102139
0.0952517
0.0879841
0.0804086
0.0725428
0.0643528
0.0558624
0.0471024
0.0381897
0.0290806