/*--------------------------------*- C++ -*----------------------------------*\
  =========                 |
  \\      /  F ield         | OpenFOAM: The Open Source CFD Toolbox
   \\    /   O peration     | Website:  https://openfoam.org
    \\  /    A nd           | Version:  11
     \\/     M anipulation  |
\*---------------------------------------------------------------------------*/
FoamFile
{
    format      ascii;
    class       volScalarField;
    location    "0.07";
    object      k;
}
// * * * * * * * * * * * * * * * * * * * * * * * * * * * * * * * * * * * * * //

dimensions      [0 2 -2 0 0 0 0];

internalField   nonuniform List<scalar> 
287084
(
0.38125
0.394667
0.408293
0.419285
0.426243
0.429428
0.430108
0.430108
0.430064
0.430014
0.430077
0.430046
0.430168
0.430274
0.430246
0.430243
0.430217
0.430208
0.430019
0.43001
0.430199
0.43015
0.430258
0.430419
0.430404
0.430387
0.430177
0.430183
0.430325
0.430304
0.430365
0.430389
0.430359
0.430343
0.430305
0.430232
0.430043
0.429985
0.429947
0.429928
0.429785
0.429781
0.429801
0.42978
0.429778
0.429742
0.42972
0.42955
0.42952
0.429458
0.429498
0.42974
0.429815
0.4298
0.42979
0.429658
0.429584
0.429556
0.429449
0.429553
0.429678
0.429649
0.429594
0.429554
0.429793
0.429878
0.429836
0.429745
0.429679
0.429782
0.42982
0.429779
0.429645
0.429652
0.429818
0.429898
0.429876
0.429858
0.429839
0.429769
0.429734
0.429678
0.429814
0.429983
0.42996
0.429925
0.429803
0.42977
0.429715
0.42954
0.381295
0.39462
0.408075
0.419094
0.426154
0.429486
0.430239
0.430131
0.430132
0.43039
0.430497
0.43045
0.430459
0.430466
0.430451
0.430329
0.430173
0.430205
0.430288
0.430263
0.430186
0.43027
0.43067
0.430738
0.430716
0.430688
0.430704
0.430651
0.430485
0.430358
0.430327
0.430265
0.43037
0.430423
0.430316
0.430321
0.430324
0.430302
0.430094
0.43015
0.430267
0.43026
0.430253
0.430026
0.430035
0.430144
0.430039
0.430121
0.430167
0.43016
0.430154
0.429973
0.429931
0.429894
0.42979
0.4298
0.429824
0.429802
0.429724
0.42972
0.429656
0.429767
0.430002
0.429981
0.429946
0.429781
0.42984
0.430062
0.430051
0.430016
0.429892
0.430002
0.430175
0.430112
0.430114
0.430108
0.430051
0.429962
0.429948
0.42989
0.429953
0.429983
0.429956
0.429884
0.429947
0.430061
0.429972
0.429975
0.429954
0.429754
0.381299
0.394607
0.408061
0.419098
0.426031
0.429471
0.430473
0.430511
0.430483
0.430428
0.430399
0.430319
0.430381
0.43041
0.430385
0.430315
0.430345
0.430542
0.43056
0.430549
0.430349
0.430333
0.430465
0.430657
0.430722
0.430685
0.430681
0.43065
0.430624
0.430575
0.430544
0.430505
0.430503
0.430493
0.430495
0.430472
0.430395
0.430332
0.430146
0.430187
0.430266
0.430071
0.430138
0.430194
0.430187
0.430182
0.42997
0.430026
0.430193
0.430212
0.430174
0.430127
0.430121
0.43005
0.429828
0.429818
0.429886
0.429807
0.42976
0.429739
0.429734
0.429854
0.429904
0.429877
0.429804
0.429821
0.430128
0.430159
0.430131
0.430123
0.430076
0.430042
0.429997
0.429817
0.429827
0.429877
0.429832
0.429792
0.429812
0.429826
0.429666
0.429682
0.429893
0.429966
0.429938
0.42997
0.429986
0.429969
0.429958
0.429715
0.381272
0.394628
0.408087
0.419008
0.425978
0.429489
0.43054
0.430587
0.430554
0.430461
0.430536
0.43062
0.430605
0.430599
0.430402
0.430457
0.430606
0.430483
0.43055
0.430597
0.430517
0.430526
0.430522
0.430372
0.430413
0.430453
0.430394
0.430386
0.430261
0.430386
0.430638
0.430608
0.430609
0.430582
0.430573
0.43053
0.430497
0.430453
0.430268
0.430172
0.43015
0.430147
0.430145
0.430054
0.430017
0.430006
0.430095
0.430121
0.430068
0.429894
0.429916
0.429969
0.429972
0.429972
0.429924
0.429921
0.429877
0.429744
0.42977
0.430032
0.430094
0.43006
0.429986
0.429963
0.429782
0.429831
0.430031
0.429858
0.429899
0.430061
0.430068
0.430081
0.43005
0.429994
0.429813
0.429802
0.430049
0.430201
0.43013
0.430133
0.430133
0.430084
0.429986
0.430039
0.43009
0.430045
0.429897
0.429927
0.429983
0.429765
0.381268
0.394638
0.408074
0.418954
0.426076
0.429419
0.430228
0.430409
0.430482
0.430451
0.430361
0.430393
0.430498
0.430482
0.430468
0.430353
0.430313
0.430244
0.430325
0.430371
0.430342
0.430261
0.430255
0.430495
0.430528
0.430448
0.43045
0.430425
0.430415
0.430477
0.430513
0.430487
0.430489
0.430456
0.430411
0.430325
0.430177
0.430309
0.430527
0.430504
0.430467
0.430404
0.4304
0.430352
0.430336
0.430301
0.430274
0.430236
0.430182
0.430079
0.429854
0.42985
0.429874
0.429775
0.429766
0.429757
0.429761
0.429672
0.429762
0.429856
0.429764
0.42976
0.429734
0.429743
0.429726
0.429747
0.429661
0.429752
0.429855
0.429835
0.429821
0.429788
0.430045
0.430184
0.430148
0.430158
0.430161
0.430128
0.430103
0.430078
0.430056
0.430025
0.429964
0.429826
0.429741
0.429885
0.429984
0.429976
0.429968
0.429775
0.381269
0.394614
0.408064
0.419062
0.426055
0.429143
0.42992
0.430044
0.43036
0.430447
0.430407
0.430409
0.430377
0.430341
0.430147
0.430174
0.430322
0.430412
0.430424
0.430358
0.430361
0.43036
0.43025
0.430305
0.43043
0.430268
0.430224
0.430437
0.430578
0.430567
0.430573
0.43054
0.430509
0.430444
0.430234
0.430271
0.430346
0.430183
0.430244
0.430313
0.430236
0.430229
0.430229
0.430227
0.430203
0.430087
0.429901
0.429932
0.430014
0.430011
0.430009
0.429933
0.429851
0.42992
0.430019
0.430009
0.430007
0.429911
0.429862
0.429935
0.43002
0.430006
0.430006
0.429949
0.429756
0.429728
0.430003
0.430124
0.430109
0.430123
0.430099
0.430039
0.429881
0.429824
0.429927
0.429915
0.430006
0.430102
0.430062
0.430066
0.430045
0.429941
0.429819
0.429928
0.430071
0.430049
0.430016
0.429989
0.429938
0.42978
0.381246
0.394621
0.408075
0.419048
0.426071
0.429106
0.430226
0.430307
0.430309
0.430307
0.430184
0.430081
0.430266
0.430647
0.430522
0.430562
0.430892
0.430944
0.430915
0.430882
0.430859
0.430823
0.430783
0.430654
0.430727
0.430819
0.430771
0.430647
0.430606
0.430616
0.430576
0.430593
0.430553
0.430421
0.430463
0.430493
0.430438
0.430327
0.430219
0.430343
0.430403
0.430349
0.43016
0.430165
0.430236
0.430227
0.430219
0.430063
0.430041
0.430098
0.430084
0.429916
0.429951
0.429991
0.429943
0.429951
0.429895
0.429909
0.429872
0.429959
0.429994
0.429949
0.429865
0.429787
0.429822
0.429781
0.429866
0.429927
0.429887
0.429755
0.429787
0.429895
0.429881
0.429814
0.429811
0.429977
0.429973
0.42997
0.429937
0.429932
0.429843
0.4299
0.430002
0.430003
0.430002
0.429818
0.429834
0.429995
0.429994
0.429881
0.381263
0.39461
0.408152
0.418917
0.425844
0.42952
0.43081
0.431081
0.431019
0.431016
0.430959
0.431027
0.431066
0.431046
0.431053
0.430988
0.430974
0.430986
0.430978
0.430806
0.430865
0.430962
0.430899
0.430902
0.430911
0.430923
0.430867
0.43084
0.430784
0.430774
0.430766
0.430769
0.430753
0.430666
0.430589
0.430539
0.430477
0.430284
0.430313
0.430511
0.430516
0.430495
0.430305
0.430264
0.430296
0.430285
0.430323
0.430285
0.430248
0.430205
0.430175
0.43003
0.430105
0.430269
0.430227
0.43022
0.430077
0.430158
0.430217
0.430212
0.430212
0.430156
0.430041
0.429984
0.42995
0.429913
0.429793
0.42982
0.429972
0.429865
0.429937
0.430049
0.430048
0.430045
0.429842
0.429834
0.430124
0.430184
0.430138
0.430136
0.430087
0.429947
0.429844
0.43001
0.430119
0.430073
0.429907
0.429907
0.429987
0.429783
0.381259
0.394609
0.408087
0.419046
0.425947
0.42931
0.430273
0.43031
0.430282
0.430281
0.430148
0.430224
0.4307
0.430742
0.430661
0.430676
0.430681
0.430643
0.430782
0.430983
0.430893
0.430924
0.430931
0.430784
0.430858
0.430949
0.430905
0.43091
0.430921
0.430931
0.430874
0.430841
0.430765
0.430596
0.430483
0.43044
0.430364
0.430335
0.430324
0.430184
0.430209
0.430354
0.430166
0.430146
0.430312
0.43034
0.43027
0.430322
0.430343
0.430325
0.430317
0.430166
0.430137
0.430105
0.430029
0.42982
0.429767
0.429946
0.429996
0.42995
0.42977
0.429766
0.430011
0.430045
0.43002
0.430023
0.429963
0.429823
0.429737
0.429963
0.430125
0.430124
0.430124
0.430043
0.430018
0.429864
0.429821
0.4301
0.430249
0.430188
0.430225
0.430238
0.430188
0.429995
0.429942
0.42999
0.429947
0.429967
0.429928
0.429768
0.381288
0.394513
0.408178
0.419041
0.425932
0.429265
0.430098
0.430115
0.430046
0.430088
0.430414
0.43047
0.430423
0.430255
0.430256
0.430439
0.430398
0.430479
0.430557
0.430514
0.430366
0.430412
0.430537
0.430457
0.430478
0.430481
0.430477
0.430401
0.430523
0.430657
0.430592
0.430606
0.430561
0.430372
0.430392
0.430462
0.43038
0.430383
0.430376
0.430377
0.430379
0.430376
0.430367
0.430304
0.430121
0.429905
0.429838
0.429869
0.429875
0.429857
0.429717
0.429769
0.429832
0.429784
0.429621
0.429625
0.429712
0.429652
0.429581
0.429716
0.429928
0.429939
0.42994
0.429853
0.429831
0.42971
0.429613
0.429712
0.429819
0.429889
0.429869
0.429823
0.429695
0.429708
0.42983
0.42978
0.429713
0.429832
0.43004
0.430017
0.429982
0.429806
0.429819
0.430103
0.430152
0.430128
0.430132
0.430104
0.430033
0.429797
0.381277
0.394587
0.408098
0.418997
0.426002
0.429359
0.430184
0.430199
0.43013
0.430211
0.430336
0.430319
0.430269
0.430317
0.430447
0.430275
0.43032
0.430566
0.430497
0.43062
0.43081
0.430832
0.430796
0.430578
0.430644
0.43074
0.430516
0.430575
0.430657
0.430613
0.430605
0.430478
0.430569
0.430678
0.430629
0.430629
0.430628
0.430626
0.43058
0.430532
0.43049
0.430415
0.430208
0.430111
0.430023
0.429799
0.429748
0.429933
0.430031
0.429995
0.429873
0.429946
0.429996
0.429952
0.429808
0.429826
0.429864
0.429811
0.429724
0.429763
0.429914
0.429916
0.429914
0.42974
0.42982
0.429916
0.429895
0.429883
0.429721
0.429779
0.42991
0.429884
0.429798
0.429869
0.429944
0.429923
0.429918
0.429748
0.429781
0.429983
0.429978
0.429923
0.429995
0.430132
0.430093
0.429941
0.429962
0.430024
0.429983
0.429841
0.381248
0.39463
0.408074
0.419018
0.42598
0.429304
0.430417
0.430507
0.430496
0.430491
0.430318
0.430314
0.430571
0.430906
0.430895
0.430764
0.430785
0.430747
0.430613
0.430629
0.430778
0.430776
0.430803
0.430806
0.430721
0.430814
0.430957
0.430918
0.430937
0.430924
0.430932
0.430868
0.430833
0.430833
0.430837
0.430778
0.430747
0.43066
0.430502
0.430363
0.43025
0.43016
0.430079
0.429831
0.42984
0.429916
0.429912
0.429911
0.429776
0.429778
0.429742
0.429852
0.430071
0.430022
0.430019
0.430013
0.429944
0.429902
0.42987
0.429822
0.429787
0.429754
0.429647
0.42969
0.430014
0.430031
0.429997
0.429952
0.429827
0.429936
0.430076
0.430057
0.430045
0.429884
0.429943
0.430032
0.430003
0.429974
0.429799
0.429889
0.430007
0.429976
0.429874
0.429896
0.430059
0.430107
0.430072
0.429994
0.429971
0.429747
0.381266
0.394599
0.408175
0.418871
0.425879
0.429539
0.430675
0.430734
0.43061
0.430681
0.430861
0.430704
0.430674
0.430747
0.430659
0.430731
0.43099
0.431013
0.430965
0.430776
0.430826
0.431011
0.430946
0.430876
0.430975
0.431088
0.430954
0.431028
0.431058
0.431025
0.431017
0.430977
0.430893
0.430809
0.430625
0.430495
0.430513
0.430514
0.430467
0.430328
0.430255
0.430274
0.430285
0.430235
0.430046
0.430056
0.430168
0.430116
0.430184
0.430202
0.430152
0.430161
0.430152
0.430094
0.429909
0.429907
0.430002
0.429974
0.429878
0.429783
0.429935
0.430078
0.430043
0.430058
0.430069
0.430046
0.429834
0.429821
0.429924
0.42983
0.429911
0.430004
0.43
0.429999
0.429817
0.429843
0.430108
0.430129
0.430081
0.429902
0.429918
0.430057
0.430049
0.430055
0.430045
0.429927
0.429943
0.429997
0.429955
0.429823
0.381274
0.394577
0.40807
0.419097
0.426036
0.429093
0.430136
0.430201
0.430001
0.430079
0.430199
0.430035
0.430124
0.430207
0.430026
0.430037
0.430245
0.430211
0.430343
0.430537
0.430475
0.43041
0.430474
0.430588
0.430675
0.430875
0.430719
0.430803
0.430878
0.430837
0.430763
0.430726
0.430681
0.430656
0.430569
0.43047
0.430427
0.430281
0.430334
0.430396
0.430312
0.430316
0.43032
0.430327
0.430334
0.430292
0.430104
0.430151
0.430205
0.430204
0.430203
0.430094
0.430014
0.429916
0.429942
0.429949
0.42991
0.429789
0.429866
0.42997
0.429963
0.429961
0.429771
0.429824
0.429904
0.429876
0.429839
0.429788
0.429856
0.429835
0.429952
0.43002
0.43001
0.430006
0.429862
0.429854
0.429758
0.429804
0.430045
0.429919
0.429968
0.430198
0.430262
0.430233
0.430181
0.430024
0.430036
0.430166
0.430147
0.42999
0.381264
0.39461
0.408147
0.418925
0.425814
0.429539
0.430826
0.430917
0.430784
0.430855
0.431011
0.430814
0.430878
0.431007
0.430893
0.430909
0.430872
0.430745
0.430771
0.430902
0.430813
0.430884
0.431087
0.431083
0.431037
0.431081
0.431089
0.431037
0.431044
0.431047
0.431043
0.431
0.430958
0.430914
0.430872
0.430825
0.430772
0.43072
0.430535
0.43041
0.430313
0.430115
0.429891
0.429961
0.430082
0.430023
0.430016
0.429992
0.429858
0.429777
0.429797
0.429777
0.429731
0.429869
0.430006
0.42996
0.429951
0.429927
0.429923
0.429848
0.429786
0.42995
0.43012
0.430087
0.429955
0.429995
0.430133
0.430145
0.430142
0.429891
0.429895
0.429995
0.429995
0.429981
0.429777
0.429827
0.430107
0.430114
0.430075
0.42989
0.429918
0.430061
0.429966
0.430019
0.430034
0.429991
0.429852
0.42989
0.429952
0.429756
0.381277
0.394656
0.40803
0.418971
0.42605
0.429201
0.430412
0.430516
0.430425
0.430314
0.430343
0.430473
0.430441
0.430345
0.430292
0.430516
0.430649
0.430613
0.43048
0.430523
0.430624
0.430451
0.430476
0.430641
0.430643
0.430606
0.430705
0.430813
0.430628
0.430601
0.430634
0.430597
0.43052
0.430569
0.430598
0.430567
0.430571
0.430537
0.43054
0.430518
0.430485
0.430454
0.430392
0.430352
0.430314
0.430237
0.430062
0.429842
0.429791
0.429657
0.429727
0.42992
0.429941
0.429904
0.429731
0.42984
0.430038
0.429986
0.430225
0.430406
0.430404
0.430401
0.430227
0.43026
0.43029
0.430162
0.43026
0.430325
0.430316
0.430316
0.43027
0.430214
0.430003
0.430026
0.430077
0.430037
0.429912
0.42994
0.429969
0.42984
0.429788
0.429955
0.430131
0.430137
0.430137
0.429944
0.429975
0.430008
0.429962
0.429822
0.381262
0.394629
0.408137
0.418941
0.425757
0.429462
0.430977
0.431141
0.431116
0.431111
0.430982
0.431069
0.431158
0.431127
0.431123
0.431101
0.431091
0.430955
0.430846
0.430895
0.430992
0.43098
0.430943
0.430835
0.430903
0.431078
0.431054
0.431062
0.431046
0.431026
0.43093
0.430913
0.430881
0.430844
0.43081
0.430743
0.430693
0.430639
0.430584
0.430537
0.43046
0.430317
0.429994
0.429865
0.429842
0.429843
0.429825
0.42976
0.429739
0.429561
0.429595
0.429787
0.429783
0.429793
0.429701
0.429786
0.430123
0.430129
0.430042
0.429969
0.429961
0.429881
0.429944
0.430094
0.430014
0.430011
0.430023
0.430036
0.43001
0.429965
0.429856
0.429783
0.429919
0.430061
0.430062
0.430058
0.42988
0.429853
0.429945
0.429918
0.430012
0.430064
0.430032
0.430004
0.429891
0.429854
0.429819
0.42979
0.429806
0.429738
0.381262
0.394618
0.408123
0.418981
0.425737
0.429534
0.430995
0.431134
0.431005
0.431088
0.431148
0.431134
0.431131
0.430916
0.430974
0.431083
0.430866
0.430895
0.431047
0.430971
0.430929
0.431033
0.431128
0.431013
0.431102
0.431183
0.431186
0.431185
0.431125
0.431117
0.431079
0.431071
0.431012
0.430977
0.430915
0.430855
0.430791
0.430666
0.430499
0.430362
0.430288
0.430166
0.430036
0.429976
0.429911
0.429844
0.429635
0.429612
0.42988
0.429948
0.429932
0.429929
0.429839
0.429752
0.429802
0.430047
0.430104
0.429926
0.430007
0.430166
0.430008
0.430096
0.430188
0.430182
0.430179
0.43
0.429973
0.429953
0.429891
0.429859
0.430036
0.430222
0.430239
0.430201
0.430171
0.430166
0.430077
0.43008
0.430029
0.429993
0.429978
0.429845
0.429896
0.430085
0.430082
0.430074
0.429863
0.429891
0.429977
0.429769
0.381263
0.394623
0.408156
0.418899
0.42581
0.429497
0.4308
0.431056
0.431025
0.430879
0.430926
0.431024
0.43101
0.431015
0.430948
0.430916
0.430853
0.430802
0.430861
0.431024
0.430998
0.430962
0.430863
0.430935
0.431045
0.43094
0.43095
0.430934
0.430963
0.430903
0.430862
0.430846
0.430782
0.430672
0.430582
0.43032
0.430297
0.430413
0.430418
0.43042
0.430382
0.430343
0.430302
0.430286
0.430208
0.430123
0.430049
0.429925
0.429608
0.429621
0.429839
0.429842
0.429828
0.42974
0.42964
0.429748
0.430135
0.430129
0.429995
0.430057
0.4302
0.430033
0.430117
0.430219
0.430209
0.430205
0.430026
0.430065
0.430103
0.429938
0.430003
0.430099
0.429901
0.429972
0.430086
0.43008
0.430078
0.429904
0.42997
0.430124
0.430138
0.430099
0.430057
0.430024
0.429814
0.429828
0.429899
0.429889
0.429884
0.429692
0.381233
0.394703
0.408056
0.418938
0.425912
0.42947
0.430555
0.430654
0.430615
0.430486
0.430547
0.43063
0.43059
0.430501
0.430451
0.430538
0.430473
0.430592
0.430754
0.430687
0.430688
0.430657
0.430833
0.431018
0.431142
0.43115
0.431148
0.431147
0.431094
0.431095
0.431058
0.431028
0.430973
0.430968
0.43089
0.430819
0.430717
0.430622
0.430549
0.430457
0.430322
0.430243
0.430117
0.429976
0.429896
0.429667
0.429673
0.429704
0.429688
0.429685
0.429531
0.429727
0.430324
0.430334
0.430274
0.43034
0.430497
0.430508
0.43051
0.43043
0.430321
0.430322
0.430334
0.430235
0.430307
0.430346
0.430311
0.430208
0.430188
0.430263
0.430244
0.43029
0.430304
0.430265
0.43006
0.430088
0.430148
0.430026
0.430017
0.429986
0.42995
0.429925
0.429922
0.42981
0.429804
0.429839
0.429784
0.429781
0.429779
0.42966
0.381274
0.394606
0.408079
0.419013
0.426023
0.429269
0.430001
0.429927
0.429947
0.430225
0.430312
0.430304
0.430304
0.430113
0.430166
0.430414
0.430385
0.430384
0.430339
0.43041
0.430932
0.431189
0.43107
0.431163
0.431213
0.431156
0.431159
0.431152
0.431131
0.431092
0.431043
0.430995
0.430944
0.430877
0.430771
0.430517
0.430308
0.430296
0.430291
0.430251
0.430196
0.430168
0.430129
0.430075
0.429943
0.429757
0.429801
0.429879
0.429786
0.429829
0.429876
0.429861
0.429866
0.429793
0.42974
0.429571
0.429614
0.42971
0.429642
0.429641
0.429592
0.429645
0.429672
0.429632
0.429509
0.42954
0.429714
0.429711
0.429639
0.429634
0.429836
0.429834
0.429955
0.430123
0.430097
0.430062
0.429877
0.429881
0.430023
0.429968
0.430046
0.430075
0.43003
0.429886
0.429902
0.429935
0.429733
0.429786
0.429927
0.429726
0.381267
0.394596
0.408183
0.418858
0.425893
0.429548
0.430722
0.430804
0.430793
0.430789
0.430627
0.430663
0.43084
0.430828
0.430845
0.430843
0.430876
0.430828
0.430798
0.430726
0.430822
0.431102
0.431039
0.431086
0.431189
0.431158
0.431163
0.431162
0.431148
0.431139
0.431052
0.430844
0.430754
0.430676
0.430641
0.430591
0.430496
0.430466
0.430422
0.430381
0.43031
0.430262
0.430196
0.430154
0.430097
0.429988
0.429732
0.429619
0.429701
0.429789
0.429749
0.42957
0.429582
0.430072
0.430336
0.430318
0.43023
0.430308
0.430504
0.430395
0.430392
0.430391
0.430291
0.430368
0.430471
0.430366
0.430358
0.430298
0.430144
0.430088
0.430157
0.430083
0.430154
0.430336
0.430252
0.430351
0.430424
0.430293
0.430378
0.430425
0.430413
0.430406
0.430248
0.430045
0.430044
0.430076
0.429997
0.429989
0.429971
0.42976
0.381263
0.394613
0.40814
0.418947
0.425781
0.429579
0.430774
0.430758
0.430871
0.431049
0.430897
0.430943
0.430971
0.430933
0.430821
0.430869
0.431054
0.430967
0.430912
0.431028
0.431177
0.431169
0.431134
0.431241
0.43139
0.431253
0.431311
0.431324
0.431261
0.431261
0.431258
0.431234
0.431134
0.431042
0.43094
0.430718
0.430606
0.430498
0.430273
0.430039
0.43009
0.430142
0.430113
0.430116
0.430055
0.429984
0.429759
0.42979
0.429956
0.429981
0.429944
0.42975
0.429711
0.430055
0.430327
0.430456
0.430557
0.430461
0.430542
0.430573
0.430526
0.430373
0.430419
0.430535
0.430397
0.43037
0.430328
0.430176
0.430197
0.430332
0.43026
0.430368
0.430444
0.430292
0.430386
0.430462
0.430453
0.43045
0.430231
0.430281
0.430326
0.430186
0.430252
0.430288
0.430252
0.430218
0.429997
0.430012
0.430044
0.429844
0.381285
0.394578
0.408068
0.419112
0.425898
0.429299
0.430213
0.430296
0.430263
0.430116
0.430204
0.43027
0.430197
0.430132
0.430286
0.430617
0.430529
0.430683
0.431105
0.43107
0.431071
0.431071
0.431074
0.431072
0.431076
0.431076
0.430987
0.431056
0.431101
0.430975
0.430962
0.430945
0.430944
0.430938
0.430908
0.430854
0.43077
0.430629
0.430299
0.430116
0.430051
0.429882
0.429943
0.429998
0.429885
0.429889
0.429885
0.429835
0.429795
0.429763
0.429735
0.42966
0.429657
0.429745
0.42973
0.429595
0.429631
0.429807
0.429713
0.429778
0.429801
0.429772
0.429738
0.429877
0.430151
0.43015
0.43016
0.430109
0.430063
0.429892
0.429968
0.430088
0.43007
0.430062
0.429991
0.429973
0.429925
0.429871
0.429923
0.430004
0.430007
0.429978
0.429966
0.429838
0.429891
0.430061
0.430028
0.430028
0.430007
0.429823
0.381244
0.39466
0.408094
0.418912
0.425981
0.42942
0.430597
0.430668
0.430651
0.430598
0.430628
0.43074
0.430731
0.430738
0.430751
0.430699
0.430679
0.430614
0.430706
0.430844
0.430824
0.430755
0.430732
0.430894
0.430907
0.430882
0.431008
0.431137
0.431135
0.431131
0.431058
0.430912
0.430738
0.430688
0.430634
0.430581
0.430538
0.430488
0.430446
0.430381
0.430246
0.430167
0.430104
0.430014
0.429817
0.429645
0.429577
0.429581
0.429571
0.42945
0.429415
0.429674
0.4298
0.429765
0.429702
0.429565
0.429528
0.429435
0.429437
0.429579
0.429572
0.429691
0.429816
0.429693
0.429771
0.42986
0.429862
0.429859
0.429686
0.429624
0.429776
0.429842
0.429721
0.429808
0.429918
0.429695
0.4297
0.429897
0.429947
0.429903
0.429743
0.429824
0.430041
0.429979
0.429991
0.43007
0.430065
0.430043
0.430023
0.429721
0.381265
0.394603
0.408167
0.418885
0.425868
0.429558
0.430687
0.430746
0.430653
0.43075
0.430948
0.430765
0.430824
0.431041
0.43104
0.431002
0.431052
0.431103
0.430982
0.431044
0.43107
0.430942
0.431034
0.431248
0.431188
0.431238
0.431297
0.431271
0.431258
0.431212
0.431143
0.43113
0.431044
0.430964
0.430853
0.430604
0.430468
0.4304
0.4303
0.430239
0.430192
0.43015
0.43013
0.430103
0.430067
0.430011
0.429899
0.429575
0.429538
0.429681
0.429748
0.429716
0.429561
0.429633
0.429743
0.429749
0.42975
0.429549
0.429602
0.429731
0.429715
0.429652
0.429666
0.429864
0.429791
0.429889
0.429947
0.429921
0.429912
0.42983
0.429789
0.429721
0.429626
0.429793
0.43002
0.430008
0.430007
0.429904
0.429982
0.430018
0.429989
0.429971
0.429744
0.42981
0.429974
0.429957
0.429939
0.429822
0.429805
0.429707
0.381262
0.394618
0.408123
0.418983
0.425738
0.429543
0.430986
0.431182
0.43114
0.43096
0.430976
0.431078
0.4309
0.430979
0.431111
0.430904
0.43094
0.431106
0.431037
0.430983
0.431085
0.431169
0.431041
0.431138
0.431334
0.431254
0.431234
0.431218
0.431215
0.431217
0.431188
0.431148
0.431155
0.431147
0.431059
0.430822
0.430651
0.430538
0.430475
0.430422
0.430373
0.430327
0.430267
0.430225
0.430143
0.429947
0.429897
0.429801
0.429817
0.429828
0.429742
0.429633
0.429753
0.430318
0.430281
0.430395
0.430571
0.430568
0.430569
0.43046
0.430465
0.430417
0.430477
0.430499
0.430415
0.430406
0.43039
0.430229
0.43017
0.430247
0.430208
0.43022
0.430215
0.430232
0.43022
0.430066
0.430082
0.430177
0.430137
0.430166
0.430186
0.430155
0.430024
0.429959
0.430104
0.43018
0.430143
0.43014
0.430076
0.429824
0.381263
0.394613
0.40814
0.418946
0.42578
0.42958
0.430777
0.430761
0.430875
0.431053
0.430879
0.430944
0.431036
0.431002
0.430886
0.430868
0.430992
0.430954
0.43091
0.430909
0.430896
0.431051
0.431266
0.431104
0.431197
0.43134
0.431309
0.431271
0.431258
0.431255
0.431212
0.431175
0.431005
0.430901
0.430825
0.430688
0.430611
0.430511
0.430299
0.430045
0.430098
0.430165
0.430137
0.430133
0.430051
0.429992
0.429787
0.429822
0.429958
0.429974
0.429937
0.429715
0.429709
0.430135
0.430316
0.430185
0.430271
0.430484
0.430471
0.430445
0.430288
0.430209
0.430222
0.430109
0.430165
0.43031
0.430285
0.430282
0.430259
0.430252
0.430093
0.43017
0.430314
0.430198
0.430274
0.430309
0.430239
0.430232
0.430214
0.430121
0.429982
0.429933
0.429805
0.42986
0.430026
0.429924
0.430016
0.430071
0.430014
0.429813
0.381268
0.394595
0.408185
0.418856
0.4259
0.429543
0.430663
0.430936
0.430908
0.430751
0.430807
0.430852
0.430658
0.430651
0.430892
0.430999
0.430938
0.430934
0.430935
0.430825
0.430918
0.431108
0.431083
0.431083
0.431052
0.431059
0.431009
0.430871
0.430931
0.43107
0.431066
0.431063
0.430981
0.430971
0.430969
0.430961
0.430913
0.430837
0.430698
0.430425
0.430255
0.430189
0.430111
0.430058
0.430018
0.429927
0.429666
0.429596
0.429789
0.429859
0.429811
0.429638
0.429636
0.430121
0.430314
0.430299
0.430244
0.430271
0.430512
0.43053
0.430476
0.43028
0.430253
0.430403
0.430434
0.430408
0.430414
0.43038
0.430334
0.430121
0.430114
0.43033
0.430346
0.430311
0.430267
0.430203
0.430158
0.430022
0.430086
0.430295
0.43029
0.430286
0.430207
0.430192
0.430154
0.430095
0.429958
0.429976
0.429992
0.429823
0.381278
0.394594
0.408094
0.419014
0.425981
0.429294
0.430158
0.430177
0.430064
0.430059
0.43033
0.430461
0.430421
0.430427
0.430415
0.430268
0.43034
0.430563
0.43047
0.430442
0.430607
0.431024
0.431018
0.430994
0.430913
0.430974
0.43102
0.430858
0.430935
0.431011
0.431001
0.430997
0.43094
0.430926
0.430886
0.430836
0.430629
0.430557
0.43045
0.430155
0.430087
0.430105
0.430054
0.43002
0.430053
0.430074
0.429919
0.42997
0.430009
0.429841
0.429902
0.430056
0.43004
0.430001
0.429942
0.429914
0.429884
0.429847
0.429582
0.429572
0.429873
0.429932
0.429881
0.429745
0.429705
0.429944
0.430064
0.430023
0.43002
0.430013
0.429916
0.429878
0.429861
0.430014
0.430205
0.430019
0.430091
0.430196
0.430009
0.430082
0.430163
0.430155
0.430152
0.429939
0.429932
0.430127
0.430198
0.430182
0.430135
0.429889
0.381285
0.394643
0.408032
0.418985
0.426047
0.429186
0.430394
0.430505
0.430496
0.430499
0.43048
0.430467
0.430352
0.430252
0.430401
0.430637
0.430562
0.4306
0.430615
0.430583
0.430494
0.430638
0.431047
0.431055
0.431038
0.43088
0.430825
0.430845
0.43082
0.430864
0.430868
0.430815
0.430668
0.430623
0.43058
0.430526
0.43041
0.430372
0.430324
0.430253
0.430178
0.430138
0.430088
0.430088
0.430087
0.43004
0.429993
0.430006
0.430017
0.429983
0.42995
0.429703
0.429636
0.429709
0.429723
0.429633
0.429642
0.429837
0.430012
0.430097
0.430097
0.430098
0.429973
0.430049
0.430098
0.430058
0.429931
0.42996
0.430067
0.429868
0.429883
0.430104
0.430123
0.430088
0.430016
0.429928
0.430045
0.430154
0.430099
0.430096
0.430052
0.429906
0.429853
0.429986
0.430025
0.429975
0.429802
0.429837
0.429907
0.429701
0.381277
0.394655
0.40803
0.418973
0.426051
0.429204
0.43041
0.430512
0.430273
0.43031
0.430401
0.43038
0.430378
0.430224
0.43034
0.430713
0.430721
0.430672
0.430506
0.430567
0.430836
0.430801
0.430809
0.430782
0.430905
0.430968
0.430921
0.43092
0.430922
0.430915
0.430817
0.430531
0.430525
0.43062
0.430547
0.430566
0.430532
0.430491
0.430431
0.430412
0.430352
0.43031
0.430254
0.430145
0.429885
0.429738
0.429705
0.429704
0.429694
0.429562
0.429676
0.429862
0.429772
0.429967
0.430317
0.430303
0.430262
0.430094
0.430043
0.430113
0.430098
0.430174
0.430196
0.430172
0.430171
0.430126
0.429939
0.429928
0.430069
0.430076
0.430117
0.430142
0.430109
0.429999
0.42991
0.429987
0.430101
0.430089
0.430102
0.430075
0.429988
0.429953
0.42994
0.429959
0.429915
0.429803
0.429732
0.429858
0.429915
0.429751
0.381263
0.394615
0.408135
0.418955
0.425771
0.42955
0.430902
0.431061
0.431024
0.430881
0.430928
0.431072
0.430916
0.431008
0.431115
0.431085
0.431038
0.430948
0.430952
0.43091
0.430892
0.430927
0.43089
0.431015
0.431149
0.43098
0.431066
0.431125
0.431066
0.431057
0.431048
0.43099
0.43071
0.430597
0.430538
0.430481
0.430431
0.430336
0.430316
0.430275
0.430238
0.430194
0.430112
0.430053
0.429869
0.429907
0.430081
0.429899
0.429909
0.430135
0.4302
0.430177
0.430189
0.430138
0.429995
0.429838
0.429876
0.429905
0.429952
0.430036
0.430021
0.43
0.43
0.429989
0.429906
0.429854
0.429949
0.430037
0.430012
0.429939
0.430058
0.430223
0.430239
0.430201
0.430141
0.430094
0.430037
0.430063
0.430054
0.430053
0.430041
0.429927
0.429839
0.430022
0.430124
0.430077
0.429905
0.429902
0.429985
0.429785
0.381261
0.394633
0.408128
0.418964
0.425706
0.42954
0.430875
0.430935
0.431039
0.431092
0.430913
0.430988
0.431098
0.431095
0.431118
0.431079
0.431106
0.43108
0.431156
0.431228
0.431266
0.431233
0.43119
0.431059
0.431126
0.431202
0.431087
0.43108
0.431084
0.431028
0.431025
0.431021
0.430986
0.430958
0.430777
0.430692
0.430618
0.430571
0.430506
0.43036
0.430329
0.430295
0.430227
0.430043
0.429984
0.42998
0.429982
0.429963
0.429907
0.429955
0.429919
0.430008
0.430088
0.430048
0.429914
0.429938
0.430111
0.430109
0.430115
0.430089
0.430071
0.429886
0.42988
0.430074
0.430007
0.430073
0.430255
0.430173
0.430261
0.430301
0.430278
0.430273
0.430131
0.430186
0.430292
0.430287
0.430287
0.430218
0.430139
0.430077
0.430083
0.430082
0.430092
0.430069
0.429924
0.429831
0.429901
0.429936
0.429886
0.429713
0.381238
0.394686
0.408092
0.418887
0.425935
0.429505
0.430433
0.430438
0.430457
0.430459
0.430452
0.43035
0.430361
0.43037
0.430284
0.43039
0.430563
0.430538
0.430444
0.430439
0.43064
0.430639
0.430754
0.430867
0.430785
0.430811
0.430816
0.43077
0.430579
0.430607
0.430706
0.430699
0.430687
0.430463
0.430491
0.430517
0.430415
0.430426
0.430419
0.430384
0.43035
0.430333
0.430217
0.429902
0.429774
0.429779
0.429841
0.429807
0.429632
0.429745
0.429932
0.429955
0.429918
0.429843
0.429834
0.429757
0.429708
0.429934
0.430228
0.43011
0.430183
0.430219
0.430168
0.430178
0.430162
0.430007
0.430059
0.430179
0.43005
0.430039
0.430035
0.429916
0.429969
0.430094
0.429881
0.429889
0.430052
0.430103
0.430068
0.429922
0.430028
0.430124
0.430029
0.430043
0.430046
0.430016
0.429921
0.429963
0.429992
0.429826
0.381263
0.394611
0.408144
0.418929
0.425821
0.429497
0.430889
0.431094
0.431043
0.431035
0.430932
0.431022
0.43109
0.430861
0.430892
0.431005
0.430829
0.430907
0.43109
0.430891
0.430931
0.431082
0.430968
0.43107
0.431151
0.431147
0.431144
0.43103
0.430992
0.430935
0.430762
0.430804
0.43083
0.430779
0.430781
0.430744
0.43071
0.430598
0.430502
0.430421
0.430318
0.430245
0.430122
0.429932
0.429856
0.429808
0.429715
0.429687
0.429607
0.429636
0.429975
0.430077
0.430073
0.430069
0.429929
0.429869
0.429954
0.42998
0.429849
0.429844
0.429921
0.429856
0.429814
0.429887
0.429915
0.429811
0.429871
0.429925
0.429783
0.429807
0.43009
0.430154
0.430155
0.430156
0.430117
0.430023
0.430027
0.430061
0.43002
0.429886
0.42986
0.430013
0.430091
0.430058
0.430028
0.430021
0.429837
0.429882
0.429945
0.429749
0.381265
0.39459
0.408091
0.419059
0.425995
0.429249
0.429988
0.43001
0.429985
0.430109
0.430357
0.430355
0.43034
0.430124
0.430122
0.430486
0.430584
0.430477
0.430503
0.430763
0.430815
0.43071
0.430817
0.431081
0.430961
0.431071
0.43116
0.43116
0.431156
0.431026
0.43101
0.430944
0.430913
0.430816
0.430532
0.430472
0.430459
0.43043
0.430436
0.430422
0.430414
0.430375
0.43035
0.430313
0.430241
0.429995
0.43
0.430159
0.430165
0.430132
0.430118
0.430076
0.429992
0.429764
0.429781
0.4299
0.42991
0.429911
0.429731