/*--------------------------------*- C++ -*----------------------------------*\
  =========                 |
  \\      /  F ield         | OpenFOAM: The Open Source CFD Toolbox
   \\    /   O peration     | Website:  https://openfoam.org
    \\  /    A nd           | Version:  11
     \\/     M anipulation  |
\*---------------------------------------------------------------------------*/
FoamFile
{
    format      ascii;
    class       volScalarField;
    location    "0.07";
    object      nut;
}
// * * * * * * * * * * * * * * * * * * * * * * * * * * * * * * * * * * * * * //

dimensions      [0 2 -1 0 0 0 0];

internalField   nonuniform List<scalar> 
287084
(
0.000835809
0.00086601
0.000897382
0.000923349
0.000940256
0.000948522
0.000950818
0.000951296
0.000951471
0.000951487
0.000951658
0.000951573
0.000951824
0.000952025
0.000951919
0.000951849
0.000951718
0.000951622
0.000951127
0.000951037
0.000951391
0.000951229
0.000951425
0.000951747
0.000951706
0.000951665
0.000951208
0.000951242
0.000951572
0.000951563
0.000951775
0.000951967
0.000952123
0.000952314
0.000952433
0.000952467
0.000952239
0.000952297
0.000952396
0.000952531
0.000952382
0.000952534
0.000952729
0.000952817
0.000952937
0.000952969
0.000953019
0.000952727
0.000952732
0.000952659
0.000952796
0.000953351
0.000953524
0.000953499
0.000953472
0.000953172
0.000952991
0.000952913
0.000952656
0.000952873
0.000953139
0.000953054
0.000952912
0.000952803
0.000953307
0.000953474
0.000953356
0.000953113
0.000952937
0.000953145
0.000953213
0.00095308
0.000952751
0.000952754
0.000953108
0.000953277
0.000953207
0.000953149
0.000953097
0.000952925
0.000952831
0.000952698
0.000952979
0.00095334
0.000953273
0.000953167
0.000952872
0.000952782
0.000952658
0.000952237
0.00118146
0.0012228
0.00126495
0.00129962
0.00132206
0.00133286
0.0013355
0.00133535
0.00133545
0.0013363
0.00133664
0.00133645
0.00133643
0.00133637
0.00133623
0.00133574
0.00133514
0.00133513
0.00133528
0.0013351
0.00133476
0.00133495
0.00133613
0.00133631
0.00133623
0.00133614
0.00133621
0.00133613
0.00133573
0.00133545
0.0013355
0.00133551
0.00133604
0.00133643
0.00133634
0.00133661
0.00133687
0.00133706
0.00133667
0.00133709
0.0013377
0.0013379
0.00133809
0.00133757
0.00133778
0.00133827
0.00133809
0.00133846
0.00133871
0.00133877
0.00133882
0.00133832
0.00133823
0.00133815
0.00133785
0.00133788
0.00133795
0.00133787
0.00133761
0.00133757
0.00133736
0.00133768
0.00133838
0.00133829
0.00133815
0.00133759
0.00133775
0.00133841
0.00133834
0.00133821
0.0013378
0.00133811
0.00133863
0.00133841
0.0013384
0.00133836
0.00133816
0.00133785
0.0013378
0.00133759
0.00133776
0.00133784
0.00133772
0.00133747
0.00133765
0.00133799
0.00133771
0.00133772
0.00133765
0.00133702
0.00118152
0.00122296
0.00126514
0.00129991
0.00132193
0.001333
0.00133635
0.00133661
0.00133659
0.00133645
0.00133634
0.00133605
0.00133617
0.00133618
0.00133599
0.00133566
0.00133563
0.00133613
0.00133607
0.00133593
0.00133521
0.00133508
0.00133543
0.00133598
0.00133617
0.00133607
0.0013361
0.00133608
0.00133611
0.00133609
0.00133616
0.00133623
0.00133643
0.00133662
0.00133687
0.00133705
0.00133707
0.00133714
0.00133683
0.00133721
0.0013377
0.00133732
0.00133774
0.00133811
0.00133826
0.00133841
0.00133788
0.00133817
0.0013388
0.00133894
0.00133889
0.0013388
0.00133883
0.00133864
0.00133796
0.00133795
0.00133817
0.00133792
0.00133775
0.00133766
0.00133762
0.00133798
0.00133811
0.001338
0.00133775
0.00133776
0.00133868
0.00133875
0.00133864
0.00133859
0.00133842
0.00133829
0.00133813
0.00133754
0.00133755
0.00133768
0.00133752
0.00133737
0.00133742
0.00133744
0.00133692
0.00133695
0.0013376
0.00133781
0.00133771
0.0013378
0.00133784
0.00133778
0.00133774
0.00133694
0.00118146
0.00122314
0.00126546
0.00129997
0.00132217
0.00133344
0.00133689
0.0013371
0.001337
0.00133667
0.00133685
0.00133703
0.0013369
0.00133677
0.00133604
0.00133608
0.00133642
0.00133591
0.001336
0.00133603
0.00133568
0.00133562
0.00133555
0.00133503
0.00133514
0.00133528
0.00133515
0.0013352
0.00133492
0.00133545
0.00133641
0.00133651
0.00133673
0.00133689
0.00133711
0.00133724
0.00133741
0.00133755
0.00133724
0.0013372
0.00133738
0.00133761
0.00133782
0.00133773
0.00133779
0.00133792
0.00133833
0.00133853
0.00133846
0.001338
0.00133814
0.00133836
0.00133841
0.00133843
0.0013383
0.0013383
0.00133817
0.00133775
0.00133782
0.00133862
0.00133879
0.00133866
0.0013384
0.0013383
0.00133771
0.00133783
0.00133843
0.00133786
0.00133795
0.00133843
0.00133842
0.00133843
0.00133831
0.00133811
0.00133752
0.00133746
0.0013382
0.00133865
0.00133841
0.0013384
0.00133839
0.00133822
0.00133789
0.00133804
0.00133819
0.00133804
0.00133757
0.00133766
0.00133783
0.0013371
0.00118146
0.00122327
0.00126555
0.00129996
0.00132264
0.00133338
0.00133605
0.00133665
0.00133686
0.0013367
0.00133635
0.00133635
0.00133657
0.0013364
0.00133623
0.00133573
0.00133547
0.00133513
0.00133524
0.00133527
0.00133507
0.00133472
0.00133463
0.00133533
0.00133542
0.00133518
0.00133523
0.00133524
0.00133532
0.00133567
0.00133596
0.00133609
0.00133633
0.00133648
0.00133661
0.00133662
0.00133645
0.00133715
0.0013381
0.0013383
0.00133844
0.00133848
0.00133869
0.00133874
0.00133887
0.00133891
0.00133897
0.00133896
0.00133889
0.00133865
0.00133801
0.00133805
0.00133816
0.00133787
0.00133786
0.00133783
0.00133784
0.00133756
0.00133782
0.0013381
0.00133779
0.00133775
0.00133764
0.00133764
0.00133755
0.00133758
0.00133729
0.00133754
0.00133783
0.00133773
0.00133766
0.00133752
0.0013383
0.0013387
0.00133856
0.00133857
0.00133856
0.00133843
0.00133833
0.00133823
0.00133815
0.00133803
0.00133783
0.00133738
0.00133711
0.00133755
0.00133784
0.00133781
0.00133778
0.00133713
0.00118147
0.00122321
0.00126557
0.0013004
0.00132271
0.00133268
0.00133524
0.00133564
0.00133658
0.00133677
0.00133654
0.00133643
0.0013362
0.00133595
0.0013352
0.00133514
0.00133545
0.00133558
0.00133548
0.00133514
0.00133504
0.00133494
0.00133452
0.00133463
0.001335
0.00133451
0.00133442
0.00133518
0.00133573
0.00133587
0.00133607
0.0013362
0.00133635
0.00133642
0.00133606
0.00133647
0.00133701
0.0013368
0.00133728
0.00133778
0.0013378
0.00133803
0.00133825
0.00133845
0.00133855
0.00133834
0.0013379
0.00133811
0.00133846
0.00133852
0.00133858
0.00133838
0.00133815
0.00133839
0.0013387
0.00133867
0.00133866
0.00133835
0.00133817
0.00133838
0.00133862
0.00133854
0.00133851
0.0013383
0.00133766
0.00133754
0.00133837
0.00133871
0.00133863
0.00133864
0.00133853
0.00133832
0.0013378
0.00133759
0.00133788
0.00133782
0.00133808
0.00133835
0.00133821
0.0013382
0.00133812
0.00133777
0.00133738
0.0013377
0.00133814
0.00133806
0.00133795
0.00133785
0.00133769
0.00133714
0.0011814
0.00122326
0.00126565
0.00130041
0.00132284
0.00133264
0.00133627
0.00133652
0.00133647
0.00133637
0.00133587
0.00133541
0.00133585
0.00133688
0.00133634
0.00133629
0.00133716
0.00133716
0.00133692
0.00133668
0.00133647
0.00133626
0.00133605
0.00133559
0.00133579
0.00133609
0.001336
0.0013357
0.00133571
0.00133591
0.001336
0.0013363
0.00133644
0.00133633
0.00133677
0.00133719
0.00133734
0.00133731
0.00133729
0.00133797
0.00133843
0.00133851
0.00133815
0.00133837
0.00133877
0.0013389
0.00133901
0.00133863
0.00133865
0.00133889
0.0013389
0.00133841
0.00133855
0.00133869
0.00133854
0.00133855
0.00133836
0.00133839
0.00133825
0.00133849
0.00133857
0.0013384
0.0013381
0.00133782
0.00133789
0.00133773
0.00133796
0.00133811
0.00133795
0.00133751
0.00133757
0.00133788
0.0013378
0.00133756
0.00133753
0.00133802
0.00133798
0.00133795
0.00133782
0.00133779
0.00133749
0.00133765
0.00133795
0.00133794
0.00133792
0.00133734
0.00133738
0.00133787
0.00133786
0.00133746
0.00118145
0.00122323
0.00126591
0.00130004
0.00132218
0.00133398
0.00133815
0.00133899
0.00133873
0.0013386
0.00133829
0.00133836
0.00133832
0.00133809
0.00133794
0.00133756
0.00133734
0.0013372
0.00133701
0.00133632
0.00133637
0.00133655
0.00133626
0.00133621
0.00133621
0.00133626
0.00133614
0.00133616
0.00133613
0.00133629
0.00133649
0.00133677
0.00133702
0.00133707
0.00133717
0.00133736
0.00133752
0.00133725
0.00133767
0.0013386
0.0013389
0.0013391
0.00133874
0.00133882
0.0013391
0.00133922
0.00133946
0.00133945
0.00133941
0.00133934
0.00133929
0.00133887
0.00133912
0.00133964
0.0013395
0.00133947
0.001339
0.00133923
0.00133938
0.00133933
0.00133929
0.00133908
0.00133868
0.00133847
0.00133832
0.00133817
0.00133775
0.0013378
0.00133824
0.00133786
0.00133805
0.00133837
0.00133833
0.00133829
0.00133763
0.00133758
0.00133846
0.00133862
0.00133846
0.00133843
0.00133825
0.0013378
0.00133747
0.00133797
0.00133829
0.00133814
0.00133761
0.0013376
0.00133784
0.00133716
0.00118144
0.00122324
0.00126572
0.00130047
0.00132253
0.00133337
0.00133651
0.00133663
0.00133646
0.00133634
0.00133577
0.00133585
0.00133716
0.0013371
0.00133667
0.00133652
0.00133634
0.00133604
0.00133629
0.00133674
0.00133631
0.00133628
0.0013362
0.00133568
0.00133587
0.00133617
0.00133609
0.00133622
0.00133641
0.00133665
0.00133672
0.00133691
0.00133701
0.00133683
0.00133685
0.00133709
0.00133723
0.0013375
0.00133781
0.0013377
0.00133808
0.0013388
0.00133846
0.0013386
0.0013393
0.00133954
0.00133944
0.00133971
0.00133984
0.00133984
0.00133985
0.0013394
0.00133932
0.00133922
0.00133897
0.00133829
0.0013381
0.00133863
0.00133875
0.00133857
0.00133796
0.00133791
0.00133863
0.00133869
0.00133857
0.00133853
0.0013383
0.00133783
0.00133752
0.00133819
0.00133865
0.00133862
0.00133858
0.0013383
0.00133819
0.00133768
0.00133752
0.00133837
0.00133881
0.00133859
0.00133869
0.00133871
0.00133854
0.00133792
0.00133774
0.00133788
0.00133774
0.00133778
0.00133765
0.00133711
0.00118153
0.00122295
0.00126601
0.00130047
0.00132251
0.00133326
0.00133599
0.00133604
0.00133574
0.00133574
0.00133659
0.00133659
0.00133626
0.00133554
0.00133534
0.0013357
0.00133536
0.00133541
0.00133545
0.00133514
0.00133451
0.00133451
0.00133479
0.00133447
0.0013345
0.00133453
0.00133458
0.00133446
0.00133501
0.00133566
0.00133574
0.0013361
0.00133632
0.00133611
0.00133657
0.0013372
0.00133735
0.00133774
0.00133809
0.00133844
0.00133876
0.00133903
0.00133925
0.00133927
0.00133887
0.00133835
0.00133826
0.00133845
0.00133853
0.00133852
0.00133811
0.00133829
0.00133848
0.00133832
0.00133779
0.00133777
0.00133801
0.00133778
0.00133752
0.00133789
0.00133851
0.00133849
0.00133845
0.00133813
0.00133801
0.00133759
0.00133724
0.00133751
0.0013378
0.00133797
0.00133787
0.00133769
0.00133726
0.00133726
0.00133762
0.00133743
0.00133719
0.00133754
0.00133816
0.00133807
0.00133794
0.00133737
0.00133739
0.00133826
0.0013384
0.00133832
0.00133831
0.00133822
0.00133799
0.0013372
0.00118149
0.00122318
0.00126576
0.00130034
0.00132273
0.00133356
0.00133627
0.00133631
0.001336
0.00133611
0.00133633
0.00133609
0.00133573
0.00133567
0.00133586
0.0013351
0.00133501
0.00133556
0.00133513
0.00133531
0.00133572
0.00133563
0.0013354
0.00133463
0.0013348
0.00133512
0.0013345
0.00133481
0.00133526
0.00133537
0.00133565
0.00133561
0.00133629
0.00133705
0.00133733
0.00133777
0.0013382
0.00133861
0.00133886
0.00133907
0.00133927
0.00133933
0.00133894
0.00133885
0.00133875
0.0013382
0.00133815
0.00133881
0.00133918
0.0013391
0.00133874
0.00133897
0.00133911
0.00133895
0.00133847
0.00133849
0.00133857
0.00133835
0.00133803
0.0013381
0.00133852
0.00133847
0.00133841
0.00133781
0.00133801
0.00133826
0.00133815
0.00133806
0.00133751
0.00133765
0.00133802
0.0013379
0.00133759
0.00133778
0.00133798
0.00133788
0.00133784
0.00133728
0.00133736
0.00133797
0.00133793
0.00133774
0.00133795
0.00133836
0.00133822
0.00133773
0.00133779
0.00133797
0.00133784
0.00133734
0.00118141
0.00122331
0.00126569
0.00130041
0.00132268
0.0013334
0.001337
0.00133726
0.00133713
0.00133697
0.00133625
0.00133604
0.00133662
0.00133743
0.00133717
0.00133652
0.00133634
0.00133598
0.00133533
0.00133516
0.00133543
0.00133526
0.0013352
0.00133512
0.00133482
0.00133513
0.00133564
0.00133567
0.00133594
0.00133618
0.00133654
0.00133673
0.00133705
0.00133751
0.001338
0.00133829
0.00133866
0.00133884
0.00133877
0.00133871
0.00133871
0.00133873
0.00133873
0.00133818
0.00133838
0.00133876
0.00133885
0.00133892
0.00133855
0.00133858
0.00133848
0.00133881
0.00133947
0.00133928
0.00133923
0.00133917
0.0013389
0.00133871
0.00133855
0.00133835
0.00133817
0.00133801
0.00133762
0.0013377
0.00133865
0.00133865
0.00133849
0.0013383
0.00133786
0.00133816
0.00133855
0.00133845
0.00133838
0.00133783
0.00133799
0.00133823
0.00133811
0.00133799
0.00133742
0.00133768
0.00133802
0.00133791
0.00133757
0.00133762
0.00133812
0.00133825
0.00133813
0.00133787
0.00133779
0.00133705
0.00118146
0.00122322
0.00126601
0.00129995
0.00132236
0.00133412
0.0013378
0.00133796
0.00133747
0.00133753
0.00133791
0.0013372
0.00133688
0.00133687
0.00133634
0.0013363
0.00133685
0.00133666
0.00133626
0.00133544
0.00133538
0.00133577
0.00133542
0.0013351
0.00133537
0.00133574
0.00133541
0.0013358
0.00133613
0.00133633
0.00133667
0.00133697
0.00133718
0.00133742
0.00133737
0.00133748
0.00133804
0.00133852
0.00133882
0.00133879
0.00133891
0.00133928
0.00133958
0.00133964
0.00133922
0.00133939
0.00133984
0.00133974
0.00133999
0.00134006
0.0013399
0.00133991
0.00133985
0.00133962
0.001339
0.00133893
0.00133917
0.00133902
0.00133865
0.00133828
0.00133869
0.00133907
0.0013389
0.00133888
0.00133886
0.00133873
0.00133801
0.00133792
0.00133819
0.00133785
0.00133805
0.0013383
0.00133825
0.00133821
0.0013376
0.00133765
0.00133845
0.00133849
0.00133831
0.00133773
0.00133775
0.00133816
0.00133812
0.00133813
0.00133808
0.00133769
0.00133773
0.00133789
0.00133775
0.00133729
0.00118148
0.00122315
0.00126568
0.00130065
0.00132285
0.00133273
0.00133611
0.00133629
0.00133555
0.00133563
0.0013358
0.00133507
0.0013351
0.0013351
0.00133427
0.00133404
0.0013344
0.00133402
0.00133416
0.0013345
0.00133408
0.00133368
0.00133373
0.00133397
0.00133419
0.00133483
0.00133445
0.00133488
0.00133537
0.00133558
0.00133576
0.00133611
0.00133648
0.00133695
0.00133723
0.00133748
0.00133788
0.00133793
0.00133857
0.00133918
0.00133929
0.00133962
0.0013399
0.00134014
0.00134033
0.00134033
0.00133983
0.00134004
0.00134023
0.00134023
0.00134022
0.00133984
0.00133955
0.00133919
0.00133921
0.00133916
0.00133897
0.00133851
0.00133868
0.00133893
0.00133884
0.00133876
0.00133809
0.00133819
0.00133838
0.00133823
0.00133805
0.00133784
0.001338
0.00133788
0.0013382
0.00133837
0.00133829
0.00133824
0.00133775
0.0013377
0.00133737
0.00133748
0.0013382
0.00133779
0.00133791
0.00133861
0.00133879
0.00133868
0.0013385
0.001338
0.00133803
0.00133842
0.00133835
0.00133781
0.00118145
0.00122325
0.00126592
0.00130011
0.00132215
0.00133411
0.00133824
0.0013385
0.00133796
0.00133801
0.00133828
0.00133744
0.00133738
0.00133751
0.00133687
0.00133662
0.00133621
0.00133552
0.00133531
0.00133544
0.00133492
0.00133492
0.00133538
0.00133525
0.00133506
0.00133522
0.00133535
0.00133538
0.00133569
0.00133606
0.00133649
0.00133687
0.00133729
0.00133774
0.00133821
0.00133866
0.00133907
0.00133945
0.00133936
0.00133942
0.0013395
0.00133921
0.00133878
0.00133922
0.00133976
0.0013397
0.00133975
0.00133973
0.00133933
0.00133907
0.0013391
0.00133899
0.00133879
0.00133916
0.00133951
0.00133929
0.00133918
0.00133902
0.00133893
0.00133861
0.00133834
0.00133877
0.00133923
0.00133905
0.00133858
0.00133863
0.001339
0.00133898
0.00133891
0.00133808
0.00133804
0.0013383
0.00133826
0.00133817
0.0013375
0.00133762
0.00133846
0.00133846
0.0013383
0.0013377
0.00133776
0.00133819
0.00133787
0.00133802
0.00133805
0.0013379
0.00133745
0.00133756
0.00133775
0.00133708
0.00118149
0.0012234
0.00126555
0.00130026
0.00132287
0.00133305
0.00133694
0.00133723
0.00133681
0.00133629
0.00133616
0.00133632
0.00133595
0.00133536
0.00133489
0.00133528
0.00133537
0.00133495
0.00133423
0.00133407
0.00133412
0.00133335
0.00133324
0.00133363
0.00133359
0.0013335
0.00133392
0.00133447
0.00133421
0.00133452
0.0013351
0.00133553
0.00133589
0.00133668
0.00133741
0.00133795
0.00133857
0.00133903
0.00133956
0.00133995
0.00134024
0.00134048
0.00134055
0.00134065
0.00134069
0.00134056
0.00134009
0.00133944
0.00133929
0.00133885
0.00133903
0.00133957
0.00133957
0.00133938
0.00133875
0.00133901
0.00133954
0.00133929
0.00133994
0.00134042
0.00134032
0.00134023
0.00133961
0.00133963
0.00133965
0.00133918
0.00133942
0.00133956
0.00133948
0.00133942
0.00133922
0.001339
0.0013383
0.00133833
0.00133845
0.00133829
0.00133786
0.00133792
0.00133798
0.00133755
0.00133736
0.00133786
0.00133839
0.00133839
0.00133837
0.00133776
0.00133784
0.00133793
0.00133778
0.00133729
0.00118145
0.00122331
0.00126588
0.00130016
0.00132195
0.00133385
0.00133868
0.00133915
0.00133894
0.00133873
0.0013381
0.00133811
0.0013381
0.00133771
0.00133737
0.00133698
0.00133661
0.00133586
0.00133519
0.00133503
0.00133505
0.00133477
0.00133445
0.00133399
0.00133415
0.00133472
0.00133477
0.00133503
0.00133531
0.00133568
0.0013359
0.00133644
0.00133698
0.00133754
0.00133812
0.00133858
0.00133907
0.0013395
0.00133986
0.00134019
0.00134036
0.00134025
0.00133952
0.00133933
0.00133942
0.00133953
0.00133954
0.00133936
0.00133929
0.00133871
0.00133876
0.00133929
0.0013392
0.00133914
0.00133876
0.00133893
0.00133988
0.0013398
0.00133943
0.00133911
0.001339
0.00133866
0.00133877
0.00133915
0.00133883
0.00133874
0.00133871
0.00133868
0.00133854
0.00133835
0.00133795
0.00133767
0.00133805
0.00133845
0.00133841
0.00133836
0.00133777
0.00133765
0.00133791
0.0013378
0.00133807
0.00133821
0.00133808
0.00133798
0.00133761
0.00133748
0.00133736
0.00133726
0.0013373
0.00133703
0.00118145
0.00122328
0.00126584
0.00130028
0.00132189
0.00133406
0.00133872
0.00133911
0.00133856
0.00133862
0.00133856
0.00133825
0.00133795
0.00133697
0.00133681
0.00133681
0.00133578
0.00133552
0.00133565
0.00133509
0.00133465
0.00133471
0.0013348
0.0013343
0.00133453
0.00133481
0.00133497
0.00133521
0.00133538
0.00133582
0.00133626
0.00133687
0.00133737
0.00133797
0.0013385
0.00133902
0.00133949
0.00133973
0.00133977
0.00133983
0.00134002
0.00133998
0.00133985
0.00133988
0.00133983
0.00133972
0.00133912
0.00133907
0.00133989
0.00134006
0.00133995
0.00133986
0.00133948
0.00133912
0.00133917
0.00133983
0.0013399
0.00133924
0.00133939
0.00133978
0.00133919
0.00133937
0.00133957
0.00133946
0.00133937
0.00133874
0.00133858
0.00133845
0.00133819
0.00133803
0.00133853
0.00133905
0.00133906
0.00133889
0.00133876
0.0013387
0.00133839
0.00133837
0.00133818
0.00133804
0.00133796
0.00133752
0.00133766
0.00133823
0.00133821
0.00133816
0.00133749
0.00133756
0.00133782
0.00133712
0.00118145
0.00122329
0.00126594
0.00130002
0.0013221
0.00133393
0.0013381
0.00133884
0.00133859
0.00133793
0.00133783
0.00133785
0.00133751
0.00133719
0.00133664
0.00133618
0.00133562
0.00133509
0.00133491
0.00133507
0.00133468
0.00133429
0.00133377
0.00133384
0.00133413
0.00133385
0.00133403
0.00133425
0.00133472
0.00133503
0.00133549
0.00133611
0.00133663
0.00133704
0.00133752
0.00133744
0.00133807
0.00133908
0.00133967
0.00134018
0.00134049
0.00134071
0.00134086
0.00134102
0.00134093
0.00134076
0.00134057
0.00134019
0.00133918
0.00133917
0.00133978
0.0013397
0.00133956
0.00133917
0.00133875
0.00133897
0.00134007
0.00133994
0.00133941
0.00133949
0.00133983
0.00133921
0.00133938
0.00133961
0.00133949
0.0013394
0.00133876
0.00133882
0.00133887
0.00133829
0.00133843
0.00133868
0.00133801
0.00133819
0.0013385
0.00133844
0.0013384
0.00133782
0.001338
0.00133845
0.00133847
0.00133832
0.00133817
0.00133805
0.00133737
0.0013374
0.00133761
0.00133757
0.00133754
0.00133689
0.00118136
0.00122354
0.00126563
0.00130013
0.00132242
0.00133384
0.00133732
0.00133757
0.00133729
0.00133668
0.00133661
0.00133658
0.00133614
0.00133553
0.00133501
0.00133491
0.00133432
0.00133431
0.00133443
0.00133387
0.00133354
0.00133316
0.00133348
0.00133391
0.00133424
0.00133431
0.00133447
0.00133475
0.00133499
0.00133551
0.00133602
0.00133663
0.00133721
0.00133798
0.00133853
0.00133908
0.00133949
0.00133985
0.00134022
0.00134045
0.00134046
0.00134057
0.00134045
0.00134022
0.00134012
0.00133949
0.00133955
0.00133964
0.00133956
0.00133949
0.00133892
0.00133944
0.0013412
0.00134111
0.00134081
0.00134089
0.00134126
0.00134117
0.00134106
0.0013407
0.00134025
0.00134015
0.00134009
0.00133969
0.00133982
0.00133986
0.00133968
0.00133928
0.00133915
0.00133932
0.0013392
0.00133929
0.00133928
0.00133911
0.00133843
0.00133847
0.00133862
0.00133821
0.00133815
0.00133802
0.00133788
0.00133778
0.00133775
0.00133738
0.00133735
0.00133744
0.00133726
0.00133723
0.00133722
0.00133679
0.00118148
0.00122324
0.0012657
0.00130036
0.00132275
0.00133321
0.00133558
0.00133529
0.00133519
0.00133583
0.00133584
0.00133552
0.0013352
0.00133426
0.00133405
0.00133443
0.00133395
0.00133355
0.00133302
0.00133287
0.00133414
0.00133465
0.00133405
0.00133418
0.00133428
0.00133416
0.00133434
0.00133462
0.00133498
0.00133541
0.0013359
0.00133649
0.00133711
0.00133772
0.00133821
0.00133821
0.0013383
0.00133895
0.00133954
0.00133994
0.00134021
0.00134048
0.00134063
0.00134067
0.0013404
0.0013399
0.00134007
0.00134031
0.00133997
0.00134004
0.0013401
0.00133995
0.00133985
0.00133949
0.0013392
0.00133855
0.00133856
0.00133873
0.0013384
0.00133828
0.00133801
0.00133807
0.00133805
0.00133783
0.00133736
0.00133737
0.00133783
0.00133774
0.00133745
0.00133737
0.00133794
0.00133788
0.0013382
0.00133867
0.00133855
0.0013384
0.00133778
0.00133776
0.00133817
0.00133797
0.00133819
0.00133825
0.00133809
0.00133762
0.00133765
0.00133774
0.0013371
0.00133725
0.00133768
0.001337
0.00118146
0.00122321
0.00126602
0.00129988
0.00132234
0.00133406
0.00133781
0.001338
0.0013378
0.00133756
0.00133679
0.0013366
0.00133682
0.00133642
0.0013361
0.00133569
0.00133539
0.00133483
0.00133434
0.00133374
0.00133368
0.00133425
0.00133381
0.0013338
0.00133406
0.00133402
0.00133422
0.00133454
0.00133494
0.00133548
0.00133588
0.00133599
0.00133652
0.00133712
0.00133784
0.0013385
0.00133897
0.00133957
0.00134005
0.00134045
0.00134068
0.00134089
0.00134096
0.00134103
0.00134099
0.00134073
0.00133996
0.00133959
0.0013398
0.00134
0.00133978
0.00133911
0.00133902
0.00134043
0.00134112
0.00134093
0.00134052
0.00134064
0.00134112
0.00134066
0.00134054
0.00134042
0.00134
0.00134015
0.00134037
0.00133996
0.00133985
0.00133959
0.00133904
0.0013388
0.00133895
0.00133866
0.00133883
0.00133934
0.00133904
0.0013393
0.00133949
0.00133905
0.00133928
0.0013394
0.00133933
0.00133929
0.00133877
0.00133812
0.0013381
0.00133818
0.00133792
0.00133788
0.00133782
0.00133711
0.00118145
0.00122326
0.00126588
0.00130015
0.00132199
0.00133415
0.00133797
0.00133785
0.00133803
0.00133835
0.00133761
0.00133744
0.00133719
0.00133671
0.00133597
0.00133572
0.00133588
0.00133519
0.00133461
0.00133458
0.00133468
0.00133435
0.001334
0.00133417
0.00133457
0.00133421
0.00133459
0.00133496
0.00133522
0.0013358
0.00133648
0.00133718
0.0013377
0.00133827
0.00133881
0.00133894
0.00133937
0.00133974
0.00133966
0.00133947
0.00134008
0.0013406
0.00134079
0.001341
0.00134094
0.0013408
0.00134012
0.0013402
0.00134067
0.00134066
0.00134045
0.00133972
0.00133948
0.00134042
0.00134113
0.0013414
0.00134158
0.00134114
0.00134127
0.00134124
0.00134097
0.00134038
0.00134042
0.00134068
0.00134016
0.00133998
0.00133977
0.00133922
0.00133921
0.00133956
0.00133928
0.00133955
0.00133974
0.00133921
0.00133946
0.00133965
0.00133959
0.00133954
0.00133883
0.00133895
0.00133906
0.0013386
0.00133878
0.00133888
0.00133875
0.00133862
0.00133792
0.00133795
0.00133805
0.00133737
0.00118152
0.00122315
0.00126565
0.00130066
0.00132235
0.00133327
0.00133621
0.0013364
0.00133613
0.00133544
0.00133543
0.00133533
0.00133476
0.00133419
0.00133427
0.0013349
0.0013342
0.00133426
0.00133515
0.00133465
0.00133429
0.00133397
0.00133374
0.00133357
0.00133352
0.00133359
0.00133351
0.00133406
0.00133467
0.00133487
0.00133553
0.00133627
0.00133711
0.00133796
0.00133873
0.0013394
0.00133992
0.0013402
0.0013398
0.00133977
0.00134002
0.00133985
0.00134032
0.00134069
0.00134047
0.00134056
0.00134057
0.00134039
0.00134021
0.00134003
0.00133983
0.00133948
0.00133934
0.00133948
0.0013393
0.00133874
0.00133871
0.00133913
0.0013387
0.00133878
0.00133873
0.00133852
0.00133831
0.00133864
0.0013394
0.00133931
0.00133925
0.00133901
0.0013388
0.0013382
0.00133837
0.00133869
0.00133857
0.0013385
0.00133823
0.00133813
0.00133795
0.00133774
0.00133787
0.00133809
0.00133807
0.00133795
0.0013379
0.00133748
0.00133762
0.00133813
0.00133802
0.001338
0.00133793
0.0013373
0.00118139
0.00122341
0.00126574
0.00130004
0.00132261
0.00133365
0.0013374
0.00133756
0.00133733
0.00133693
0.00133675
0.00133678
0.00133641
0.00133606
0.00133571
0.00133513
0.00133465
0.00133402
0.00133389
0.00133391
0.00133349
0.00133296
0.00133264
0.00133298
0.00133296
0.00133296
0.00133354
0.00133428
0.00133474
0.00133533
0.00133582
0.00133616
0.00133647
0.00133719
0.00133789
0.00133856
0.00133922
0.00133978
0.00134028
0.00134062
0.00134065
0.00134077
0.00134085
0.00134077
0.00134029
0.00133982
0.00133963
0.00133962
0.00133953
0.00133907
0.00133885
0.00133954
0.00133981
0.00133956
0.00133922
0.00133865
0.0013384
0.00133797
0.00133785
0.00133816
0.00133802
0.00133828
0.00133856
0.00133807
0.00133822
0.00133841
0.00133832
0.00133824
0.00133762
0.00133736
0.00133777
0.00133792
0.00133749
0.00133771
0.001338
0.00133727
0.00133724
0.00133782
0.00133794
0.00133777
0.00133725
0.00133747
0.00133813
0.00133792
0.00133793
0.00133816
0.00133813
0.00133806
0.00133798
0.00133699
0.00118146
0.00122323
0.00126597
0.00129996
0.00132226
0.00133408
0.00133768
0.0013378
0.00133733
0.0013374
0.00133774
0.00133686
0.0013367
0.001337
0.0013366
0.00133607
0.00133581
0.00133554
0.00133474
0.00133453
0.00133425
0.00133354
0.00133358
0.00133408
0.00133384
0.00133407
0.00133444
0.00133469
0.00133512
0.00133558
0.00133608
0.00133684
0.00133742
0.00133805
0.00133857
0.00133863
0.001339
0.0013395
0.00133983
0.00134018
0.00134049
0.00134072
0.00134093
0.00134105
0.00134107
0.00134097
0.00134064
0.0013396
0.00133943
0.00133979
0.0013399
0.00133968
0.00133906
0.00133915
0.00133935
0.00133923
0.00133909
0.00133833
0.00133836
0.00133864
0.00133847
0.00133816
0.00133809
0.0013386
0.00133828
0.00133849
0.00133859
0.00133843
0.00133833
0.001338
0.00133781
0.00133754
0.00133719
0.00133766
0.00133832
0.00133824
0.0013382
0.00133784
0.00133805
0.00133813
0.00133802
0.00133793
0.0013372
0.00133739
0.00133788
0.00133781
0.00133774
0.00133736
0.0013373
0.00133694
0.00118145
0.00122328
0.00126583
0.00130026
0.00132185
0.00133403
0.00133862
0.00133916
0.00133886
0.00133806
0.00133784
0.00133784
0.00133694
0.00133682
0.00133684
0.00133579
0.00133548
0.00133557
0.00133494
0.00133438
0.00133433
0.00133428
0.00133364
0.00133377
0.00133433
0.00133415
0.00133428
0.00133456
0.00133502
0.00133562
0.00133624
0.0013369
0.00133776
0.00133861
0.0013392
0.0013393
0.00133955
0.00133991
0.00134035
0.00134072
0.00134102
0.00134124
0.00134133
0.0013414
0.00134128
0.00134074
0.0013406
0.00134028
0.00134028
0.00134023
0.00133985
0.00133939
0.00133964
0.00134127
0.00134102
0.00134123
0.00134164
0.0013415
0.00134137
0.0013409
0.0013408
0.00134054
0.00134061
0.00134058
0.00134022
0.0013401
0.00133997
0.00133939
0.00133913
0.0013393
0.00133912
0.0013391
0.00133903
0.00133903
0.00133894
0.00133842
0.00133843
0.00133869
0.00133853
0.00133859
0.00133863
0.00133851
0.00133808
0.00133785
0.00133829
0.0013385
0.00133838
0.00133836
0.00133815
0.00133731
0.00118145
0.00122326
0.00126588
0.00130015
0.00132198
0.00133416
0.00133798
0.00133786
0.00133804
0.00133837
0.00133755
0.00133744
0.00133739
0.00133692
0.00133618
0.00133572
0.00133569
0.00133515
0.00133461
0.00133421
0.00133381
0.00133398
0.0013344
0.00133375
0.00133397
0.00133448
0.00133458
0.00133479
0.00133521
0.00133578
0.00133634
0.001337
0.0013373
0.00133783
0.00133845
0.00133885
0.00133938
0.00133978
0.00133974
0.00133949
0.0013401
0.00134067
0.00134087
0.00134105
0.00134093
0.00134082
0.00134021
0.0013403
0.00134067
0.00134064
0.00134042
0.00133961
0.00133947
0.00134067
0.0013411
0.00134055
0.00134069
0.00134121
0.00134105
0.00134084
0.00134023
0.00133987
0.00133981
0.00133936
0.00133943
0.0013398
0.00133963
0.00133955
0.0013394
0.00133931
0.00133875
0.00133894
0.00133933
0.00133892
0.00133911
0.00133918
0.00133892
0.00133886
0.00133877
0.00133845
0.00133799
0.00133781
0.00133739
0.00133755
0.00133804
0.00133771
0.00133798
0.00133814
0.00133795
0.00133727
0.00118146
0.00122321
0.00126602
0.00129987
0.00132236
0.00133404
0.00133763
0.00133841
0.00133816
0.00133744
0.00133735
0.00133719
0.00133625
0.00133588
0.00133624
0.00133618
0.00133558
0.00133517
0.00133476
0.00133404
0.00133398
0.00133427
0.00133395
0.00133379
0.00133364
0.00133372
0.00133375
0.00133364
0.00133427
0.00133527
0.00133592
0.00133667
0.00133723
0.00133803
0.00133887
0.00133965
0.00134026
0.00134072
0.00134091
0.00134059
0.0013405
0.00134066
0.0013407
0.00134073
0.00134074
0.00134054
0.00133975
0.00133952
0.00134007
0.00134022
0.00133997
0.00133932
0.00133919
0.00134058
0.00134105
0.00134087
0.00134057
0.00134052
0.00134115
0.00134108
0.0013408
0.00134007
0.00133988
0.00134026
0.00134026
0.00134009
0.00134002
0.00133984
0.00133963
0.0013389
0.00133881
0.00133943
0.00133942
0.00133927
0.00133908
0.00133884
0.00133866
0.0013382
0.00133837
0.00133899
0.00133895
0.00133891
0.00133864
0.00133857
0.00133844
0.00133824
0.0013378
0.00133784
0.00133788
0.0013373
0.0011815
0.0012232
0.00126574
0.00130036
0.00132262
0.00133328
0.00133607
0.00133607
0.00133555
0.00133531
0.0013359
0.00133601
0.00133556
0.00133523
0.00133482
0.00133398
0.00133381
0.00133411
0.00133343
0.00133297
0.00133314
0.00133413
0.00133388
0.00133366
0.00133335
0.00133359
0.00133392
0.00133371
0.00133438
0.00133516
0.00133578
0.0013365
0.0013371
0.00133787
0.00133857
0.0013392
0.0013393
0.00133976
0.00134003
0.00133964
0.00133987
0.00134028
0.0013404
0.0013405
0.00134074
0.00134089
0.00134044
0.00134059
0.00134067
0.00134008
0.00134018
0.00134055
0.00134039
0.00134015
0.00133983
0.00133962
0.0013394
0.00133916
0.00133821
0.00133806
0.00133889
0.00133897
0.0013387
0.00133818
0.00133796
0.00133863
0.00133892
0.00133872
0.00133864
0.00133855
0.00133819
0.00133801
0.00133791
0.00133834
0.00133889
0.00133827