/*--------------------------------*- C++ -*----------------------------------*\
  =========                 |
  \\      /  F ield         | OpenFOAM: The Open Source CFD Toolbox
   \\    /   O peration     | Website:  https://openfoam.org
    \\  /    A nd           | Version:  11
     \\/     M anipulation  |
\*---------------------------------------------------------------------------*/
FoamFile
{
    format      ascii;
    class       volScalarField;
    location    "0.07";
    object      omega;
}
// * * * * * * * * * * * * * * * * * * * * * * * * * * * * * * * * * * * * * //

dimensions      [0 0 -1 0 0 0 0];

internalField   nonuniform List<scalar> 
287084
(
54.9898
55.9606
56.9133
57.6487
58.0929
58.2829
58.3179
58.3168
58.3109
58.3089
58.3167
58.3137
58.3214
58.3275
58.3274
58.3274
58.3227
58.3218
58.31
58.311
58.3254
58.3204
58.3273
58.3374
58.3354
58.333
58.3201
58.3223
58.3327
58.3311
58.3336
58.3348
58.3324
58.3288
58.3278
58.3233
58.3086
58.3076
58.3076
58.3048
58.2947
58.2952
58.2968
58.2942
58.2941
58.2913
58.2881
58.2788
58.2792
58.2747
58.2778
58.2931
58.2975
58.296
58.2944
58.2843
58.281
58.2817
58.2736
58.2807
58.2883
58.2863
58.2798
58.279
58.2981
58.3018
58.2986
58.2895
58.2874
58.2958
58.2975
58.2951
58.2856
58.2876
58.2976
58.3029
58.3018
58.298
58.2958
58.2909
58.2908
58.2893
58.2987
58.3063
58.3066
58.3065
58.2946
58.2905
58.2874
58.2777
54.9933
55.9567
56.8981
57.6364
58.0877
58.2871
58.326
58.3171
58.3181
58.3358
58.3414
58.3399
58.3411
58.3388
58.3347
58.3255
58.318
58.3215
58.3269
58.325
58.3197
58.3281
58.3535
58.3546
58.3555
58.3536
58.3519
58.3498
58.3371
58.3307
58.3315
58.327
58.3334
58.3361
58.3304
58.3318
58.3294
58.3257
58.3137
58.3189
58.3265
58.3256
58.3249
58.3102
58.3121
58.3201
58.3126
58.3175
58.32
58.3192
58.3185
58.3045
58.3006
58.2977
58.2936
58.295
58.2952
58.296
58.2887
58.2861
58.2845
58.2944
58.3067
58.3069
58.3069
58.2944
58.2992
58.3115
58.3116
58.3115
58.3022
58.3101
58.3209
58.3178
58.3185
58.3158
58.3087
58.3022
58.3016
58.3004
58.3055
58.307
58.3051
58.3002
58.3054
58.3126
58.3079
58.3089
58.3056
58.2911
54.9936
55.9557
56.8973
57.6363
58.0793
58.2878
58.3407
58.3416
58.3392
58.3358
58.3365
58.3307
58.3337
58.3352
58.3333
58.3286
58.3324
58.3465
58.3452
58.3428
58.3308
58.3316
58.3399
58.35
58.3563
58.3532
58.3532
58.3519
58.3474
58.3458
58.3464
58.3437
58.3439
58.3433
58.3436
58.3389
58.3309
58.3272
58.3171
58.3211
58.3263
58.3135
58.3182
58.3215
58.3208
58.3204
58.3068
58.3113
58.3196
58.3201
58.3201
58.3166
58.316
58.3106
58.296
58.2973
58.3024
58.2943
58.2917
58.2929
58.2927
58.2997
58.302
58.3003
58.2953
58.2984
58.3188
58.3193
58.3169
58.3136
58.3103
58.308
58.3074
58.2964
58.2975
58.3009
58.296
58.2936
58.2955
58.2963
58.2864
58.2885
58.3019
58.3031
58.3033
58.3059
58.3071
58.3057
58.3045
58.2886
54.9916
55.9575
56.8987
57.6298
58.0763
58.2898
58.3458
58.347
58.3446
58.3384
58.3446
58.3498
58.3482
58.3475
58.3351
58.3396
58.3493
58.3414
58.3453
58.3478
58.344
58.3454
58.3445
58.333
58.3354
58.3377
58.333
58.3324
58.3256
58.3354
58.3515
58.3508
58.3512
58.3465
58.3433
58.3432
58.3436
58.3384
58.3225
58.3189
58.3204
58.3204
58.3175
58.3114
58.3115
58.3111
58.3157
58.3167
58.3132
58.3011
58.3031
58.3065
58.3065
58.3065
58.3027
58.3025
58.2995
58.291
58.2948
58.3115
58.3122
58.3123
58.3066
58.3038
58.2934
58.2985
58.3123
58.2996
58.3031
58.3145
58.3138
58.3118
58.3084
58.3053
58.2952
58.2968
58.3137
58.3226
58.3189
58.3199
58.3195
58.3127
58.3067
58.3114
58.3144
58.3113
58.3011
58.3036
58.3072
58.2926
54.9913
55.9582
56.8975
57.6267
58.0831
58.2831
58.3239
58.3331
58.34
58.3381
58.332
58.335
58.3421
58.3397
58.3356
58.3305
58.3305
58.3255
58.33
58.3323
58.3303
58.3248
58.3263
58.342
58.3428
58.3391
58.34
58.3354
58.3349
58.34
58.3419
58.3398
58.3374
58.335
58.3333
58.3267
58.3187
58.3307
58.3418
58.342
58.3419
58.3348
58.334
58.3305
58.33
58.3274
58.324
58.3213
58.3174
58.3096
58.2974
58.2983
58.2999
58.2948
58.2949
58.2943
58.2947
58.2878
58.2934
58.299
58.294
58.2945
58.2925
58.2934
58.2895
58.2879
58.2847
58.2926
58.2988
58.2975
58.2939
58.2935
58.3143
58.3214
58.3206
58.3217
58.3193
58.314
58.3122
58.3104
58.3089
58.3074
58.3032
58.2928
58.2899
58.3019
58.3074
58.3062
58.3051
58.2932
54.9913
55.9565
56.8975
57.6342
58.0799
58.2629
58.3025
58.3095
58.3322
58.3379
58.3344
58.3343
58.3335
58.3292
58.3166
58.32
58.3276
58.3327
58.3358
58.3332
58.334
58.3335
58.325
58.3287
58.3368
58.3231
58.3215
58.339
58.3467
58.3453
58.3449
58.3423
58.3383
58.3347
58.3227
58.3263
58.3312
58.321
58.325
58.3294
58.3258
58.326
58.3258
58.3229
58.3188
58.3101
58.3006
58.3043
58.3097
58.3091
58.3089
58.3027
58.2979
58.3041
58.3102
58.309
58.3088
58.3011
58.2988
58.3051
58.3102
58.3087
58.3084
58.3047
58.2915
58.292
58.3114
58.3173
58.3157
58.3139
58.3126
58.3093
58.2972
58.2959
58.3067
58.3048
58.3098
58.3155
58.3146
58.3152
58.3113
58.3008
58.2951
58.3048
58.3136
58.3113
58.3063
58.3056
58.3027
58.293
54.9896
55.9571
56.8982
57.6332
58.0809
58.2618
58.3249
58.3281
58.3279
58.3277
58.3179
58.312
58.3286
58.353
58.3442
58.3479
58.3697
58.3716
58.3689
58.364
58.3623
58.3597
58.3573
58.3511
58.3572
58.3628
58.3596
58.348
58.3477
58.3514
58.3456
58.3443
58.3424
58.3359
58.3391
58.341
58.3369
58.3264
58.322
58.3325
58.3356
58.3319
58.3188
58.3205
58.3256
58.3237
58.322
58.3132
58.3134
58.3179
58.3153
58.303
58.3056
58.3081
58.3068
58.3078
58.3034
58.3049
58.3019
58.3066
58.3082
58.3047
58.2961
58.2934
58.2991
58.2956
58.3002
58.3036
58.3008
58.2917
58.2947
58.302
58.3001
58.2955
58.2973
58.3097
58.3062
58.306
58.3061
58.3049
58.2983
58.3022
58.3086
58.3082
58.308
58.2965
58.2987
58.3105
58.3097
58.3011
54.9908
55.9567
56.903
57.6227
58.0679
58.294
58.3666
58.382
58.3786
58.379
58.3747
58.3781
58.3801
58.3784
58.378
58.3757
58.3759
58.3752
58.3732
58.3622
58.3667
58.3727
58.37
58.3708
58.3688
58.3673
58.3631
58.3606
58.3597
58.3618
58.3614
58.3618
58.3584
58.3494
58.3438
58.3406
58.3371
58.3265
58.3308
58.3449
58.343
58.3403
58.3262
58.326
58.3313
58.3279
58.3277
58.3277
58.3261
58.3205
58.3175
58.3102
58.3171
58.3277
58.3237
58.3232
58.3149
58.3203
58.3236
58.3229
58.3229
58.3188
58.3082
58.3041
58.3019
58.2997
58.2941
58.2976
58.3082
58.3006
58.3051
58.3121
58.3115
58.311
58.2981
58.2992
58.3191
58.321
58.3171
58.317
58.3147
58.3019
58.2969
58.3108
58.3167
58.3134
58.3018
58.3032
58.3091
58.2939
54.9905
55.9563
56.8991
57.6325
58.0734
58.2767
58.3272
58.3282
58.3258
58.3227
58.3165
58.3254
58.3567
58.3579
58.354
58.3559
58.3556
58.3526
58.3623
58.3747
58.3694
58.37
58.37
58.3612
58.366
58.3715
58.3704
58.3711
58.3694
58.3679
58.3637
58.3627
58.3572
58.3437
58.3364
58.3338
58.3318
58.3327
58.3315
58.3212
58.3239
58.3344
58.3203
58.3205
58.3311
58.3317
58.3288
58.3311
58.3321
58.3306
58.3297
58.3181
58.3149
58.3129
58.3083
58.293
58.2923
58.3067
58.3085
58.3059
58.293
58.2947
58.3108
58.3116
58.3095
58.3087
58.3046
58.293
58.2899
58.3085
58.3175
58.3167
58.3165
58.3101
58.3082
58.2965
58.2956
58.3182
58.3259
58.323
58.3239
58.3244
58.3222
58.3052
58.3038
58.3104
58.3041
58.304
58.3035
58.2931
54.9923
55.9498
56.9059
57.6316
58.0722
58.2728
58.3146
58.3147
58.312
58.3156
58.3372
58.3394
58.3362
58.3245
58.3265
58.3401
58.3362
58.3405
58.345
58.3421
58.3316
58.3355
58.3436
58.3394
58.3416
58.339
58.3355
58.3331
58.3436
58.3517
58.3462
58.3459
58.3451
58.3329
58.3347
58.3397
58.3352
58.3362
58.3359
58.3361
58.3357
58.3328
58.3301
58.3273
58.3131
58.2978
58.297
58.3024
58.3008
58.2961
58.2885
58.2935
58.2974
58.2941
58.2827
58.2844
58.2906
58.2838
58.2795
58.2913
58.3045
58.3044
58.3042
58.2974
58.295
58.2858
58.2814
58.29
58.294
58.2982
58.2992
58.2962
58.2874
58.2898
58.2985
58.2923
58.2881
58.2987
58.309
58.3092
58.3091
58.2958
58.2981
58.3169
58.3187
58.3166
58.3142
58.3121
58.3078
58.2936
54.9918
55.9547
56.8998
57.6293
58.0776
58.2793
58.3204
58.3205
58.3178
58.3227
58.3305
58.3284
58.3251
58.3296
58.338
58.3266
58.3308
58.3483
58.3425
58.3508
58.3599
58.3603
58.3604
58.3463
58.3511
58.357
58.3419
58.3461
58.3512
58.3475
58.347
58.3402
58.3468
58.3536
58.3522
58.3527
58.3502
58.3473
58.3441
58.341
58.3382
58.3343
58.3191
58.3122
58.307
58.2912
58.2909
58.3061
58.3111
58.3089
58.3003
58.3058
58.3086
58.3055
58.2956
58.2971
58.2995
58.2948
58.2893
58.2936
58.3038
58.3028
58.3021
58.2915
58.2972
58.3031
58.3009
58.2977
58.289
58.2942
58.3027
58.3009
58.2949
58.3002
58.3047
58.3026
58.3023
58.2918
58.2953
58.3098
58.3063
58.3026
58.309
58.3177
58.3149
58.3042
58.3061
58.3102
58.3071
58.2972
54.9897
55.9578
56.898
57.6307
58.0758
58.2768
58.338
58.3419
58.3406
58.3403
58.3297
58.3309
58.3494
58.3676
58.368
58.3579
58.3575
58.3574
58.3497
58.3515
58.3624
58.3618
58.3638
58.3626
58.3562
58.363
58.3718
58.3709
58.3728
58.3691
58.3668
58.3654
58.3658
58.3637
58.3625
58.3583
58.3553
58.3489
58.3379
58.3287
58.3214
58.3156
58.3107
58.2962
58.2983
58.3037
58.3025
58.3024
58.2946
58.296
58.2933
58.3006
58.3146
58.3123
58.3125
58.311
58.3031
58.2988
58.2966
58.2933
58.2909
58.289
58.2843
58.2896
58.3103
58.3106
58.3097
58.3034
58.2959
58.3055
58.3141
58.3119
58.3083
58.2998
58.3052
58.3108
58.3079
58.3026
58.2935
58.3018
58.3091
58.3069
58.2998
58.3026
58.3117
58.3127
58.3128
58.3068
58.3051
58.2909
54.991
55.956
56.9045
57.6196
58.0706
58.2946
58.3557
58.3573
58.3501
58.3553
58.3672
58.3536
58.3529
58.3613
58.3537
58.359
58.3741
58.3758
58.3734
58.3596
58.3643
58.3769
58.3697
58.3653
58.3738
58.3806
58.3723
58.3768
58.3783
58.3757
58.3726
58.3697
58.3639
58.3585
58.3457
58.3404
58.3426
58.3427
58.3411
58.3283
58.3252
58.3272
58.328
58.3255
58.3119
58.314
58.3221
58.3187
58.322
58.3226
58.3213
58.3224
58.3195
58.3119
58.3017
58.3036
58.3105
58.3072
58.2974
58.2933
58.3061
58.3146
58.3137
58.3152
58.3133
58.3092
58.2966
58.2979
58.3056
58.2984
58.3033
58.3089
58.3082
58.308
58.2966
58.2998
58.3166
58.3171
58.3144
58.3017
58.3042
58.3142
58.3139
58.3145
58.3108
58.3027
58.3045
58.3081
58.3052
58.296
54.9915
55.9539
56.8983
57.6365
58.0782
58.2607
58.3183
58.3208
58.3077
58.3135
58.3211
58.3105
58.3165
58.3213
58.3095
58.3115
58.3268
58.3231
58.3318
58.3437
58.3376
58.3336
58.3393
58.3439
58.3505
58.3669
58.3559
58.3616
58.3661
58.3628
58.3552
58.3547
58.3517
58.3483
58.3422
58.3388
58.3388
58.3281
58.3315
58.3355
58.3314
58.3326
58.3323
58.3303
58.3286
58.3282
58.3167
58.3198
58.3231
58.3227
58.3226
58.3138
58.3062
58.3025
58.305
58.3053
58.3032
58.2947
58.3007
58.3071
58.306
58.3056
58.2936
58.2973
58.3023
58.3004
58.295
58.2936
58.3016
58.2994
58.3064
58.31
58.3088
58.3083
58.2972
58.2956
58.2916
58.2968
58.3137
58.3041
58.308
58.3219
58.3234
58.3239
58.3207
58.3097
58.3122
58.3215
58.3192
58.3077
54.9909
55.9567
56.9027
57.6232
58.0659
58.2956
58.3669
58.3699
58.3619
58.3669
58.3769
58.3635
58.3681
58.3763
58.3669
58.3659
58.3659
58.3588
58.3609
58.3701
58.3634
58.3683
58.3819
58.3815
58.3779
58.3797
58.3799
58.3786
58.3798
58.3774
58.3743
58.3714
58.3688
58.366
58.3635
58.3634
58.3595
58.3532
58.3403
58.3324
58.3258
58.3117
58.3001
58.3072
58.3148
58.3124
58.3124
58.3089
58.2963
58.2932
58.2977
58.2931
58.2902
58.3017
58.3098
58.3056
58.3054
58.3061
58.3058
58.2971
58.2937
58.3074
58.3175
58.3151
58.3058
58.3095
58.3188
58.3184
58.3177
58.3011
58.3028
58.31
58.3078
58.3054
58.293
58.2985
58.3155
58.316
58.3151
58.3013
58.3042
58.3143
58.3075
58.3099
58.3105
58.308
58.2983
58.3011
58.3051
58.2921
54.9921
55.9593
56.8945
57.6281
58.0803
58.2694
58.3382
58.3425
58.3345
58.3279
58.3316
58.3403
58.3377
58.3279
58.3264
58.3445
58.3514
58.3487
58.3392
58.3425
58.3489
58.3375
58.34
58.3518
58.3517
58.3488
58.3549
58.3615
58.3467
58.3466
58.3522
58.3463
58.3416
58.3462
58.348
58.3458
58.3453
58.3431
58.3421
58.3407
58.3386
58.3365
58.3323
58.3297
58.3275
58.3223
58.309
58.2941
58.291
58.2848
58.2917
58.3016
58.302
58.3021
58.2914
58.2997
58.3123
58.3099
58.3271
58.3373
58.3363
58.3357
58.325
58.3268
58.3285
58.321
58.3274
58.331
58.3299
58.3299
58.326
58.3189
58.3075
58.3104
58.3137
58.3109
58.3023
58.3044
58.3061
58.2957
58.2934
58.3073
58.3178
58.3175
58.3173
58.3051
58.3068
58.3087
58.3056
58.2958
54.9908
55.958
56.902
57.6241
58.0615
58.2913
58.3786
58.3856
58.3829
58.3825
58.3753
58.3813
58.3865
58.3835
58.3834
58.3842
58.383
58.3694
58.3634
58.3679
58.3711
58.3724
58.3707
58.363
58.3684
58.3799
58.3771
58.3769
58.3758
58.3757
58.3685
58.3656
58.3649
58.3625
58.3591
58.3548
58.3518
58.3483
58.3448
58.3417
58.3362
58.3255
58.3035
58.299
58.2991
58.2994
58.2992
58.2917
58.2896
58.2792
58.2831
58.2966
58.2966
58.2974
58.2902
58.297
58.3205
58.3198
58.3101
58.3062
58.3085
58.3023
58.3063
58.3163
58.3113
58.3118
58.3102
58.308
58.306
58.3051
58.2966
58.2931
58.3046
58.313
58.3124
58.3118
58.298
58.298
58.3078
58.3048
58.31
58.3127
58.3098
58.3049
58.2971
58.2965
58.294
58.2935
58.2975
58.292
54.9908
55.9572
56.9013
57.6268
58.0603
58.2964
58.3795
58.3849
58.377
58.3823
58.3857
58.3843
58.3841
58.37
58.3742
58.381
58.3662
58.3692
58.3797
58.3713
58.3688
58.3774
58.3827
58.3759
58.3816
58.3863
58.3862
58.3861
58.3816
58.3813
58.3787
58.3773
58.3732
58.3703
58.3663
58.3625
58.3581
58.3494
58.3381
58.3294
58.3246
58.3162
58.3076
58.304
58.2995
58.2956
58.2837
58.2847
58.3032
58.3058
58.3042
58.3038
58.2964
58.2915
58.2972
58.3116
58.3162
58.3047
58.3107
58.3208
58.3104
58.3165
58.3219
58.3209
58.3205
58.3066
58.3065
58.3076
58.3002
58.2986
58.3132
58.3217
58.3218
58.3218
58.3196
58.319
58.3123
58.3107
58.3099
58.31
58.3072
58.2977
58.3027
58.3155
58.3153
58.3141
58.2991
58.3015
58.3074
58.293
54.9909
55.9576
56.9032
57.6213
58.0655
58.2926
58.3659
58.3801
58.3778
58.3674
58.3711
58.3774
58.3758
58.374
58.3689
58.3686
58.3635
58.3607
58.366
58.3735
58.3736
58.3712
58.3643
58.37
58.3769
58.371
58.3727
58.369
58.3681
58.367
58.367
58.3637
58.3564
58.3489
58.3436
58.3285
58.3298
58.339
58.3369
58.3343
58.3317
58.3313
58.3285
58.3273
58.3213
58.3141
58.3088
58.2992
58.2808
58.285
58.3007
58.3006
58.2972
58.2882
58.2838
58.2945
58.3206
58.3194
58.3094
58.3139
58.3231
58.312
58.3179
58.324
58.3227
58.3221
58.311
58.3134
58.3156
58.3052
58.3095
58.3155
58.3023
58.3075
58.3146
58.3136
58.3134
58.3025
58.3074
58.3147
58.3147
58.3147
58.3114
58.3064
58.2946
58.2968
58.3016
58.3003
58.2998
58.2877
54.9889
55.963
56.8959
57.6249
58.0722
58.2891
58.3474
58.3519
58.3493
58.3403
58.3452
58.3503
58.3476
58.3384
58.3371
58.3466
58.3406
58.3483
58.358
58.3546
58.355
58.3524
58.3643
58.3731
58.3807
58.3836
58.3834
58.3833
58.3794
58.3788
58.3762
58.3762
58.3724
58.3698
58.3646
58.3599
58.3531
58.347
58.3424
58.336
58.327
58.3218
58.313
58.3036
58.299
58.2858
58.287
58.289
58.2876
58.2874
58.2781
58.2949
58.3319
58.3319
58.3298
58.3339
58.3443
58.3438
58.3436
58.3368
58.3302
58.3308
58.3315
58.3264
58.3304
58.3324
58.33
58.3229
58.3234
58.3291
58.3274
58.3287
58.3292
58.3282
58.3129
58.3148
58.3186
58.3115
58.3118
58.3067
58.3045
58.3054
58.3053
58.2966
58.2968
58.2995
58.2954
58.2956
58.2953
58.2861
54.9916
55.956
56.8984
57.6306
58.0785
58.2722
58.31
58.3036
58.3056
58.3244
58.3286
58.3275
58.3274
58.3152
58.3201
58.3374
58.3348
58.3348
58.3311
58.3367
58.3734
58.3874
58.3797
58.3854
58.3879
58.386
58.3869
58.3836
58.3794
58.3769
58.3738
58.3708
58.3676
58.3631
58.3564
58.3383
58.3278
58.3281
58.3282
58.3258
58.3196
58.3174
58.3171
58.3146
58.3024
58.2918
58.2964
58.3013
58.2963
58.2981
58.3009
58.2995
58.2969
58.2916
58.2888
58.2795
58.2833
58.2894
58.2837
58.2836
58.2824
58.285
58.2862
58.284
58.2753
58.2788
58.2911
58.2907
58.2852
58.2857
58.3012
58.2995
58.3071
58.3146
58.3148
58.3147
58.3007
58.3021
58.3127
58.308
58.3121
58.3134
58.3103
58.3004
58.3016
58.3038
58.2906
58.2948
58.3041
58.2901
54.9911
55.9558
56.905
57.6187
58.0716
58.2953
58.3591
58.3621
58.3609
58.3605
58.3508
58.3542
58.3666
58.3657
58.3671
58.3641
58.3631
58.3622
58.3626
58.3571
58.3639
58.3826
58.3779
58.3805
58.3873
58.3863
58.3871
58.3869
58.3833
58.3818
58.3755
58.3599
58.3544
58.3497
58.3477
58.3444
58.3384
58.3369
58.3341
58.3325
58.3276
58.3237
58.3193
58.3165
58.3124
58.3044
58.2867
58.2826
58.2899
58.2952
58.2931
58.2801
58.2831
58.3189
58.3332
58.3317
58.3254
58.3316
58.3443
58.3375
58.3381
58.3377
58.33
58.335
58.3413
58.3326
58.332
58.3283
58.3154
58.3142
58.3223
58.3159
58.3207
58.3328
58.3273
58.3335
58.3375
58.3296
58.335
58.3374
58.3362
58.3354
58.3224
58.3102
58.3113
58.3134
58.3097
58.3098
58.3075
58.2918
54.9908
55.9568
56.9023
57.6245
58.0637
58.2982
58.3651
58.361
58.3682
58.3794
58.3695
58.3719
58.3733
58.3707
58.3628
58.3674
58.3799
58.3709
58.3677
58.3774
58.3863
58.3845
58.3821
58.3912
58.4004
58.3918
58.395
58.3955
58.3935
58.3943
58.3916
58.3871
58.3802
58.3744
58.3675
58.3524
58.3455
58.3383
58.3223
58.3102
58.3157
58.3189
58.3166
58.3141
58.3097
58.3055
58.2924
58.2962
58.305
58.3052
58.3052
58.2901
58.2892
58.3172
58.3306
58.3386
58.3476
58.3421
58.3469
58.3482
58.3449
58.3343
58.3383
58.3458
58.3343
58.3308
58.3305
58.3216
58.3238
58.3334
58.3281
58.3348
58.339
58.3295
58.3358
58.3402
58.3391
58.3388
58.3246
58.328
58.3306
58.3221
58.3261
58.3279
58.3248
58.3199
58.3072
58.3091
58.3112
58.2982
54.9924
55.9539
56.8982
57.6369
58.0696
58.2758
58.323
58.3243
58.3245
58.3161
58.3218
58.3256
58.3192
58.3153
58.3289
58.3499
58.3441
58.356
58.3837
58.3808
58.381
58.3807
58.3808
58.3806
58.3809
58.3808
58.3741
58.3779
58.3806
58.3736
58.374
58.3731
58.3735
58.3707
58.3661
58.3625
58.3567
58.3469
58.3239
58.3127
58.309
58.3004
58.306
58.3093
58.303
58.3044
58.3016
58.2953
58.2922
58.2919
58.2903
58.2861
58.2874
58.2938
58.2915
58.2818
58.2855
58.2978
58.291
58.2943
58.2952
58.2927
58.2905
58.3027
58.3202
58.3188
58.3165
58.3127
58.312
58.3018
58.3074
58.3149
58.3129
58.3094
58.3073
58.3088
58.3024
58.2991
58.3037
58.306
58.3086
58.3082
58.3054
58.297
58.3021
58.3133
58.3123
58.3126
58.3093
58.296
54.9896
55.9601
56.8987
57.6233
58.0768
58.2855
58.3505
58.3528
58.3512
58.3477
58.3509
58.3584
58.3578
58.3556
58.3548
58.3538
58.3549
58.3498
58.3553
58.3636
58.3621
58.3571
58.3572
58.3698
58.3666
58.3648
58.3754
58.3832
58.3826
58.3823
58.3768
58.3643
58.3529
58.3505
58.3472
58.344
58.3414
58.3384
58.3372
58.3326
58.3223
58.3171
58.3128
58.3065
58.2925
58.2812
58.28
58.2833
58.2815
58.2697
58.269
58.2898
58.296
58.2927
58.2853
58.2785
58.2789
58.2719
58.2727
58.2834
58.282
58.2892
58.2966
58.2891
58.294
58.2994
58.299
58.2986
58.2849
58.2823
58.2947
58.2978
58.2907
58.2964
58.3031
58.2879
58.2898
58.3021
58.3048
58.3022
58.2908
58.2978
58.3119
58.3087
58.3093
58.3124
58.3125
58.3107
58.3087
58.2886
54.9909
55.9563
56.904
57.6206
58.0699
58.2959
58.3564
58.358
58.3532
58.36
58.3726
58.3601
58.3649
58.3768
58.3775
58.3771
58.3787
58.3815
58.3743
58.3774
58.3783
58.3708
58.3773
58.3912
58.388
58.39
58.3937
58.3915
58.388
58.3879
58.383
58.3803
58.3744
58.369
58.3615
58.3444
58.3361
58.332
58.3254
58.3218
58.3189
58.3163
58.3151
58.3133
58.3108
58.3067
58.2983
58.2789
58.2796
58.2885
58.2894
58.2896
58.2803
58.2851
58.2919
58.2918
58.2918
58.2788
58.2827
58.2912
58.2897
58.2854
58.2879
58.3024
58.2962
58.3021
58.3051
58.3027
58.2992
58.2934
58.2906
58.2857
58.2822
58.2966
58.3106
58.3086
58.3086
58.3032
58.3077
58.3095
58.307
58.3048
58.2906
58.2964
58.307
58.3049
58.3005
58.2953
58.2971
58.2897
54.9908
55.9571
56.9013
57.6269
58.0604
58.297
58.379
58.3885
58.3853
58.3726
58.375
58.382
58.3693
58.3749
58.383
58.3689
58.3722
58.3836
58.3756
58.3723
58.3805
58.3851
58.3774
58.3842
58.3967
58.3896
58.389
58.3907
58.3906
58.3882
58.3868
58.3868
58.3862
58.3845
58.3774
58.3594
58.3483
58.3414
58.3377
58.3343
58.3313
58.3282
58.3242
58.3213
58.3159
58.3022
58.2989
58.2953
58.297
58.2975
58.2903
58.2836
58.2958
58.3354
58.3305
58.3379
58.3489
58.3478
58.3477
58.3418
58.3432
58.3394
58.3419
58.3429
58.3388
58.3388
58.3367
58.3218
58.3198
58.3286
58.3249
58.326
58.3255
58.3269
58.3241
58.313
58.3152
58.3218
58.3197
58.3202
58.3214
58.3207
58.308
58.3049
58.3169
58.3207
58.3175
58.3172
58.3134
58.2957
54.9908
55.9569
56.9023
57.6245
58.0636
58.2983
58.3652
58.3612
58.3684
58.3797
58.3681
58.3724
58.378
58.3755
58.3673
58.3679
58.3773
58.3706
58.3677
58.3701
58.3689
58.3791
58.3923
58.3814
58.388
58.394
58.3942
58.3941
58.3909
58.3906
58.3875
58.3844
58.372
58.3647
58.3598
58.3508
58.3461
58.3392
58.3241
58.3105
58.3164
58.3206
58.3182
58.3159
58.31
58.306
58.2944
58.298
58.3044
58.3047
58.3047
58.2902
58.2917
58.3226
58.3315
58.3231
58.3294
58.3433
58.3428
58.3392
58.3256
58.3226
58.3265
58.3177
58.3215
58.3311
58.3277
58.3277
58.3258
58.3249
58.3155
58.3213
58.3304
58.3233
58.3278
58.3295
58.3265
58.3266
58.3231
58.3133
58.3033
58.3019
58.2953
58.3
58.311
58.3045
58.3103
58.3131
58.3092
58.2951
54.9911
55.9558
56.9051
57.6186
58.0721
58.2947
58.3557
58.372
58.3701
58.3588
58.3628
58.3653
58.3526
58.3535
58.3698
58.3751
58.3723
58.3724
58.3719
58.3633
58.3696
58.3815
58.3813
58.3815
58.3764
58.3749
58.3708
58.3638
58.37
58.3792
58.3786
58.3784
58.3752
58.3757
58.3734
58.3702
58.3669
58.3616
58.3514
58.3329
58.3224
58.3185
58.3134
58.31
58.3074
58.3018
58.2828
58.2812
58.2969
58.2999
58.2965
58.2843
58.2866
58.322
58.3314
58.3302
58.3264
58.3296
58.3446
58.3452
58.3417
58.3278
58.3282
58.3375
58.3384
58.3362
58.3357
58.3329
58.328
58.316
58.3181
58.3318
58.332
58.329
58.3233
58.3189
58.3165
58.3097
58.3158
58.3298
58.329
58.3265
58.3197
58.3182
58.3173
58.3124
58.3046
58.3066
58.3076
58.297
54.9919
55.9552
56.8995
57.6303
58.0758
58.2748
58.3188
58.3189
58.3127
58.3133
58.3323
58.339
58.3378
58.3385
58.3355
58.3248
58.3312
58.3459
58.3368
58.3355
58.3501
58.3769
58.376
58.3711
58.3668
58.3722
58.3749
58.3649
58.3702
58.3749
58.3741
58.3738
58.3697
58.3694
58.3666
58.3622
58.3475
58.3426
58.336
58.3153
58.3143
58.3189
58.3121
58.3103
58.3132
58.3144
58.3049
58.3079
58.31
58.2994
58.3037
58.3109
58.3117
58.3091
58.3025
58.3021
58.2998
58.2968
58.2799
58.2817
58.3023
58.3043
58.3008
58.2885
58.2881
58.3074
58.3134
58.3122
58.3123
58.3087
58.3022
58.3022
58.3012
58.3115
58.3232
58.3105
58.3155
58.3221
58.3097
58.3148
58.3196
58.3186
58.3183
58.3045
58.3056
58.3182
58.3191
58.3204
58.3189
58.3006
54.9926
55.9584
56.8948
57.629
58.08
58.2682
58.337
58.3418
58.3406
58.3404
58.3389
58.3382
58.329
58.3234
58.3364
58.351
58.3465
58.3474
58.3479
58.3468
58.3402
58.352
58.379
58.3781
58.3753
58.3624
58.3611
58.3657
58.3637
58.365
58.3651
58.3628
58.3498
58.3461
58.3435
58.3413
58.3333
58.3303
58.3271
58.3224
58.3176
58.3151
58.3148
58.3151
58.3151
58.3113
58.3085
58.3098
58.3104
58.3075
58.3041
58.2856
58.2838
58.2898
58.29
58.2856
58.2867
58.2997
58.3081
58.3158
58.3154
58.3154
58.3082
58.3129
58.3155
58.3126
58.3039
58.3068
58.314
58.3002
58.3025
58.3163
58.3167
58.3161
58.3079
58.3028
58.3128
58.3192
58.3144
58.3143
58.3129
58.2996
58.2978
58.3085
58.3099
58.3067
58.2946
58.2975
58.302
58.2883
54.9921
55.9592
56.8945
57.6282
58.0804
58.2695
58.338
58.3422
58.3259
58.3288
58.3348
58.3326
58.3325
58.3232
58.3326
58.3548
58.3556
58.3524
58.3405
58.3467
58.3652
58.3623
58.3631
58.3608
58.3682
58.3714
58.3702
58.3707
58.3683
58.3658
58.3583
58.3412
58.3435
58.3507
58.3439
58.3432
58.3431
58.3425
58.3366
58.3335
58.3295
58.3268
58.3228
58.315
58.2968
58.2905
58.2905
58.2908
58.2905
58.2804
58.2887
58.3004
58.2952
58.3101
58.3295
58.3296
58.3285
58.3132
58.3115
58.3197
58.3178
58.3213
58.3221
58.3201
58.3201
58.3183
58.3048
58.3056
58.3165
58.3162
58.3169
58.3182
58.3178
58.3066
58.3016
58.3085
58.3156
58.3142
58.3135
58.3111
58.3069
58.3072
58.3039
58.3024
58.301
58.2925
58.2894
58.2997
58.3025
58.2921
54.9908
55.957
56.902
57.6251
58.0628
58.2969
58.3727
58.3801
58.3773
58.3674
58.3717
58.3812
58.3707
58.377
58.3833
58.3806
58.3742
58.3705
58.3737
58.3675
58.3664
58.3717
58.3683
58.3762
58.3842
58.3732
58.3791
58.3825
58.3804
58.3804
58.3772
58.371
58.3509
58.3439
58.3405
58.3369
58.3357
58.3291
58.3267
58.324
58.3217
58.3186
58.3131
58.3106
58.3001
58.3043
58.3164
58.3031
58.3051
58.3197
58.323
58.321
58.319
58.3169
58.3057
58.2971
58.3008
58.3015
58.3051
58.3116
58.3112
58.3097
58.3112
58.3085
58.2997
58.2982
58.3062
58.3113
58.3098
58.3048
58.3141
58.3217
58.3218
58.3218
58.3171
58.3114
58.3105
58.3153
58.3143
58.3143
58.3123
58.3008
58.2966
58.3117
58.317
58.3137
58.3016
58.303
58.3091
58.2941
54.9908
55.9582
56.9014
57.6255
58.0583
58.2964
58.3703
58.3708
58.3787
58.3818
58.3704
58.3757
58.3825
58.3817
58.3802
58.3801
58.3848
58.3825
58.3861
58.3875
58.3894
58.3896
58.3874
58.3781
58.3831
58.3877
58.3812
58.3818
58.3794
58.3757
58.3759
58.376
58.3734
58.3707
58.3573
58.3511
58.3465
58.3437
58.3394
58.3297
58.3279
58.3256
58.3221
58.3088
58.3075
58.3101
58.3091
58.3048
58.3024
58.3089
58.3057
58.3107
58.3153
58.3125
58.3032
58.3064
58.3188
58.3188
58.3193
58.3145
58.3114
58.3007
58.3025
58.3171
58.311
58.3154
58.3277
58.3221
58.3272
58.3291
58.3271
58.3262
58.3181
58.322
58.3287
58.3278
58.3276
58.322
58.3142
58.3131
58.3164
58.3163
58.317
58.3134
58.3
58.296
58.302
58.3038
58.3006
58.2885
54.9892
55.9619
56.8983
57.6214
58.0743
58.2908
58.3405
58.3394
58.3409
58.3408
58.3372
58.3303
58.3317
58.3321
58.328
58.3349
58.3457
58.3438
58.337
58.3382
58.3534
58.3519
58.3585
58.3651
58.3608
58.3609
58.3611
58.3595
58.3457
58.3484
58.3554
58.3538
58.3528
58.3388
58.3409
58.3427
58.335
58.3348
58.3343
58.3343
58.3319
58.328
58.3201
58.2976
58.2927
58.2941
58.2954
58.2955
58.2847
58.2934
58.3025
58.303
58.3031
58.2974
58.2966
58.2906
58.2885
58.3077
58.3257
58.3177
58.322
58.3237
58.3222
58.3233
58.3201
58.309
58.3134
58.3212
58.3132
58.3135
58.3128
58.3037
58.3074
58.3155
58.3007
58.3025
58.3121
58.3125
58.3126
58.304
58.3115
58.317
58.3118
58.3137
58.3111
58.3058
58.3022
58.306
58.3077
58.2972
54.9908
55.9568
56.9025
57.6234
58.0662
58.293
58.3723
58.3826
58.3777
58.3776
58.3724
58.378
58.3818
58.3663
58.3691
58.3767
58.3643
58.37
58.3817
58.3679
58.3713
58.3816
58.3734
58.3799
58.3844
58.3838
58.3834
58.3746
58.3701
58.3671
58.3579
58.3617
58.3633
58.3596
58.3589
58.3563
58.3546
58.3463
58.3387
58.3333
58.3264
58.3216
58.3127
58.3
58.2955
58.2933
58.2867
58.2841
58.2815
58.2863
58.3089
58.3146
58.3138
58.3131
58.3021
58.2996
58.3065
58.3074
58.2997
58.3002
58.3061
58.298
58.2956
58.3016
58.3028
58.2972
58.3004
58.3035
58.2948
58.2975
58.3162
58.3191
58.3189
58.3189
58.3155
58.3093
58.3104
58.3127
58.3097
58.3004
58.3007
58.3105
58.3118
58.3119
58.3097
58.3091
58.2976
58.3007
58.3046
58.2917
54.9909
55.955
56.8995
57.6336
58.0763
58.2709
58.3091
58.3075
58.3056
58.3166
58.3325
58.3311
58.3287
58.3154
58.3175
58.3429
58.3469
58.3407
58.3431
58.3598
58.362
58.3562
58.3639
58.3812
58.3728
58.3801
58.3852
58.3849
58.3845
58.3746
58.3733
58.3687
58.3666
58.3603
58.3395
58.3392
58.3413
58.3368
58.3366
58.3357
58.335
58.3322
58.3294
58.3267
58.3227
58.3079
58.3103
58.3193
58.3201
58.3174
58.3139
58.3131
58.3059
58.2916
58.2949
58.3031
58.3027
58.3025
58.2912
58.2953
58.3026
58.3001
58.2916
58.2938
58.3066
58.307
58.3035
58.2904
58.2896
58.2977
58.2929
58.2993
58.3084
58.3095
58.3068
58.2926
58.2966
58.3035
58.2972
58.2916
58.2993
58.3132
58.3071
58.3121
58.3142
58.3094
58.3121
58.3128
58.3091
58.2917
54.9909
55.9563
56.9039
57.6203
58.0703
58.2941
58.3556
58.3747
58.378
58.377
58.3767
58.3616
58.3645
58.3718
58.3594
58.3644
58.3713
58.3622
58.3677
58.3705
58.3574
58.3584
58.3661
58.3623
58.368
58.3736
58.3695
58.3717
58.3689
58.3636
58.353
58.3551
58.3586
58.3562
58.3556
58.3491
58.3441
58.3287
58.3299
58.3363
58.3351
58.3348
58.3293
58.3285
58.3248
58.318
58.309
58.3173
58.3254
58.3223
58.3224
58.3213
58.3215
58.3196
58.3168
58.3147
58.3096
58.2958
58.2917
58.2975
58.2998
58.2983
58.2993
58.2964
58.2942
58.2872
58.2913
58.3056
58.3055
58.2999
58.304
58.3166
58.3151
58.3127
58.2995
58.3022
58.3152
58.3161
58.3153
58.3013
58.3046
58.3148
58.3077
58.3101
58.3106
58.3081
58.2984
58.3012
58.3052
58.2922
54.9897
55.9578
56.898
57.6307
58.0758
58.2768
58.3379
58.3418
58.3405
58.3402
58.3298
58.3305
58.3483
58.3579
58.3752
58.3752
58.373
58.3721
58.3643
58.3612
58.3518
58.3507
58.3573
58.3575
58.3664
58.3712
58.3605
58.3661
58.3709
58.3707
58.3706
58.367
58.3664
58.362
58.361
58.3573
58.3515
58.3379
58.3317
58.3149
58.3127
58.3214
58.3215
58.3143
58.316
58.3252
58.327
58.3243
58.3205
58.3134
58.3087
58.3064
58.3014
58.3012
58.3017
58.3021
58.2994
58.2967
58.2934
58.2837
58.2847
58.2959
58.2958
58.29
58.2934
58.2997
58.2988
58.2987
58.2906
58.3001
58.3111
58.309
58.3048
58.2976
58.3047
58.3094
58.3075
58.3064
58.2947
58.3033
58.319
58.3203
58.3177
58.3128
58.3118
58.3045
58.2967
58.3044
58.31
58.2989
54.9916
55.9533
56.8999
57.634
58.0791
58.2673
58.3001
58.2945
58.3036
58.335
58.3297
58.3357
58.3502
58.3389
58.3443
58.3535
58.3401
58.3452
58.3554
58.3414
58.3449
58.3556
58.3442
58.3499
58.3552
58.3518
58.3516
58.344
58.3505
58.3564
58.3513
58.3522
58.3535
58.3526
58.3501
58.3509
58.3517
58.3494
58.3474
58.3435
58.3406
58.3378
58.3323
58.3212
58.302
58.2977
58.2965
58.2871
58.2925
58.3002
58.2945
58.2896
58.2978
58.3118
58.3103
58.3079
58.2952
58.295
58.3079
58.3111
58.3072
58.307
58.3055
58.2922
58.294
58.2971
58.2852
58.2841
58.302
58.3137
58.3098
58.3098
58.3098
58.3075
58.2972
58.295
58.2909
58.293
58.3175
58.3251
58.3205
58.3223
58.3227
58.3205
58.3179
58.3167
58.312
58.3099
58.3054
58.2907
54.9907
55.9578
56.8982
57.6296
58.0778
58.2666
58.3283
58.3304
58.328
58.3248
58.3194
58.3311
58.3404
58.3397
58.3414
58.3389
58.3302
58.3354
58.3564
58.3559
58.3522
58.3398
58.342
58.3552
58.3515
58.3551
58.3566
58.3533
58.3405
58.3412
58.3463
58.3465
58.3463
58.34
58.3392
58.3346
58.3325
58.3284
58.3158
58.3165
58.3166
58.313
58.3021
58.3017
58.3024
58.2885
58.2874
58.3103
58.3186
58.3105
58.3138
58.318
58.317
58.3156
58.3033
58.2957
58.2997
58.3017
58.2992
58.292
58.299
58.309
58.3081
58.308
58.3016
58.2978
58.3119
58.3273
58.3269
58.3238
58.3256
58.3271
58.3248
58.3246
58.3221
58.3199
58.3047
58.3103
58.322
58.3199
58.3156
58.3101
58.3154
58.3175
58.3154
58.3131
58.3095
58.307
58.3034
58.2922
54.9923
55.955
56.8999
57.6305
58.0709
58.2787
58.3353
58.3368
58.3348
58.334
58.323
58.3263
58.3491
58.3646
58.3661
58.3514
58.354
58.365
58.3541
58.3579
58.3757
58.3762
58.3724
58.3589
58.3606