/*--------------------------------*- C++ -*----------------------------------*\
  =========                 |
  \\      /  F ield         | OpenFOAM: The Open Source CFD Toolbox
   \\    /   O peration     | Website:  https://openfoam.org
    \\  /    A nd           | Version:  11
     \\/     M anipulation  |
\*---------------------------------------------------------------------------*/
FoamFile
{
    format      ascii;
    class       volScalarField;
    location    "0.07";
    object      p;
}
// * * * * * * * * * * * * * * * * * * * * * * * * * * * * * * * * * * * * * //

dimensions      [0 2 -2 0 0 0 0];

internalField   nonuniform List<scalar> 
287084
(
1.69438
1.40749
1.34937
1.28094
1.21119
1.15866
1.10876
1.06261
1.01827
0.974731
0.930971
0.887726
0.845141
0.801297
0.756225
0.710854
0.665206
0.619355
0.573479
0.527855
0.482627
0.438233
0.394676
0.352622
0.311496
0.272362
0.238257
0.207964
0.180723
0.158235
0.136281
0.116794
0.09953
0.0846682
0.0743181
0.0669874
0.0624093
0.0602938
0.0603086
0.0621496
0.0655247
0.0701527
0.0757421
0.0820584
0.0888641
0.0959472
0.10316
0.110226
0.117193
0.123617
0.129416
0.135724
0.142023
0.14688
0.151362
0.154621
0.157156
0.159499
0.161248
0.162257
0.162538
0.162342
0.161544
0.160268
0.158393
0.155986
0.153103
0.149688
0.145949
0.141374
0.136889
0.132542
0.127136
0.121185
0.115263
0.108954
0.102524
0.095694
0.0886192
0.0814962
0.0739166
0.0661879
0.0582808
0.0501935
0.0420749
0.0334129
0.0225309
0.0128131
0.00547374
0.00186395
1.55849
1.36655
1.31839
1.26042
1.19956
1.15064
1.10324
1.05857
1.01515
0.97217
0.928977
0.88603
0.842838
0.798629
0.753663
0.708243
0.662469
0.616439
0.570356
0.524493
0.47905
0.43445
0.390734
0.348666
0.307648
0.269074
0.235624
0.20613
0.177647
0.151375
0.128658
0.108923
0.0925932
0.0793412
0.0695005
0.0626024
0.0583836
0.0565891
0.0569067
0.0590429
0.0626981
0.0675943
0.0734389
0.0799956
0.0870249
0.0943224
0.101715
0.109033
0.116157
0.122993
0.129392
0.135423
0.141072
0.145955
0.150203
0.153872
0.156697
0.159105
0.160897
0.161912
0.162293
0.162115
0.161398
0.16011
0.158265
0.155906
0.152993
0.149684
0.145867
0.141668
0.137033
0.132097
0.126893
0.121181
0.11511
0.108817
0.102531
0.0957575
0.0886156
0.0814372
0.0738814
0.0661836
0.0584308
0.0503846
0.0417631
0.0330847
0.0244021
0.0160978
0.00782737
0.00226213
1.53216
1.3602
1.31055
1.25465
1.19608
1.14763
1.10059
1.05596
1.01232
0.969139
0.925749
0.882444
0.838938
0.794444
0.749206
0.703418
0.657213
0.610718
0.564149
0.517774
0.471839
0.426744
0.382724
0.340256
0.299645
0.261471
0.226348
0.194284
0.165545
0.140001
0.117746
0.0987282
0.0828608
0.0700815
0.0606016
0.054139
0.0504253
0.0491588
0.0500306
0.0527246
0.056927
0.0623473
0.0687026
0.0757382
0.0832152
0.0909327
0.0987
0.106364
0.113789
0.120844
0.127432
0.133659
0.13952
0.144673
0.149144
0.152901
0.155905
0.158424
0.160245
0.161373
0.161868
0.161769
0.161043
0.159806
0.157973
0.155625
0.152812
0.149504
0.145731
0.141519
0.13694
0.132077
0.126774
0.121028
0.115082
0.108882
0.102382
0.0955837
0.088595
0.0813727
0.0739503
0.0663565
0.0585458
0.0505905
0.0423444
0.0334862
0.0245763
0.015993
0.00762722
0.00245247
1.48464
1.32568
1.2817
1.231
1.17816
1.13344
1.08936
1.04679
1.00457
0.962278
0.919585
0.876375
0.832538
0.787761
0.742226
0.695993
0.649226
0.6021
0.554835
0.507716
0.461046
0.415188
0.370484
0.327399
0.286269
0.247515
0.211983
0.179736
0.150501
0.124559
0.102058
0.0830807
0.0676442
0.0556315
0.0469189
0.0412866
0.0384137
0.0380123
0.039748
0.0433017
0.0483403
0.0545631
0.0616772
0.0694283
0.077572
0.0859048
0.0942431
0.102427
0.110341
0.117872
0.124953
0.131518
0.137526
0.142806
0.147397
0.151412
0.154686
0.157283
0.159234
0.160517
0.161124
0.161107
0.160516
0.159324
0.157586
0.15533
0.152505
0.149244
0.145523
0.14137
0.13683
0.131902
0.126638
0.12099
0.115045
0.108797
0.102313
0.0955497
0.088495
0.0812661
0.0738396
0.0661901
0.0584157
0.0504348
0.0422006
0.0338182
0.0252386
0.0166381
0.00826689
0.00297445
1.46167
1.31115
1.26968
1.22104
1.17032
1.12646
1.08297
1.04058
0.998337
0.955873
0.91293
0.869312
0.824909
0.779589
0.73341
0.68643
0.638842
0.590788
0.542559
0.494425
0.446714
0.399848
0.354166
0.310171
0.268254
0.228877
0.192497
0.159392
0.129779
0.103757
0.0815063
0.0630184
0.0482198
0.0369888
0.0291657
0.024498
0.0226795
0.0233742
0.026225
0.0308855
0.0370125
0.0442855
0.052404
0.0610968
0.0701194
0.079263
0.0883428
0.0972117
0.105728
0.113802
0.121345
0.128298
0.134652
0.14032
0.145272
0.149546
0.153045
0.155861
0.157986
0.159411
0.160174
0.160299
0.159786
0.158698
0.157031
0.154814
0.152113
0.148908
0.145231
0.14113
0.136613
0.131709
0.126465
0.120846
0.114915
0.108712
0.102238
0.0954858
0.0885132
0.0813127
0.0739076
0.066338
0.0585522
0.0505955
0.0424391
0.0339876
0.0255239
0.016918
0.00828228
0.00284884
1.43731
1.28851
1.24875
1.20235
1.15412
1.11232
1.07061
1.02958
0.988257
0.946361
0.90365
0.859927
0.815172
0.769284
0.722393
0.674554
0.625947
0.576798
0.527358
0.477959
0.42897
0.380788
0.33388
0.288686
0.245715
0.205385
0.168231
0.134528
0.104527
0.0784159
0.0563125
0.0382417
0.0241269
0.0138368
0.00712051
0.00370069
0.00320967
0.0052915
0.00954946
0.0156094
0.0230997
0.031682
0.0410412
0.0508997
0.061004
0.0711451
0.0811393
0.0908332
0.100104
0.108851
0.117005
0.124504
0.13132
0.137388
0.142691
0.147259
0.15107
0.15414
0.156482
0.158109
0.159038
0.159298
0.15893
0.157948
0.156385
0.154279
0.151627
0.148473
0.144857
0.14079
0.136318
0.131451
0.126227
0.120652
0.114759
0.108576
0.102112
0.0953928
0.0884285
0.0812497
0.0738819
0.0663183
0.0585843
0.0506947
0.042582
0.0342375
0.0258041
0.0171018
0.00841833
0.00299363
1.41928
1.27309
1.23506
1.19005
1.14323
1.10227
1.06114
1.02035
0.97906
0.936989
0.893929
0.849702
0.804253
0.757539
0.709665
0.66069
0.610849
0.560304
0.509409
0.458477
0.407911
0.358186
0.309735
0.263133
0.218845
0.177402
0.139285
0.104863
0.0744764
0.048284
0.0264595
0.00898078
-0.00424688
-0.0134123
-0.0188062
-0.0207591
-0.0196757
-0.0159563
-0.0100363
-0.00233098
0.00676477
0.016889
0.0277125
0.0389455
0.0503236
0.0616333
0.0726957
0.0833632
0.0935068
0.10304
0.111888
0.120005
0.127358
0.13391
0.139652
0.144604
0.148746
0.152102
0.154696
0.156547
0.157681
0.158123
0.157904
0.157058
0.155612
0.15359
0.15104
0.147976
0.144432
0.140437
0.13602
0.131197
0.126006
0.120465
0.1146
0.108437
0.102001
0.0953024
0.0883664
0.0812102
0.0738558
0.0663257
0.0586101
0.0507392
0.0426784
0.0343959
0.025949
0.0171792
0.00845416
0.00299312
1.40249
1.25663
1.21921
1.17525
1.12942
1.08939
1.04904
1.00882
0.967846
0.925826
0.882557
0.837847
0.791707
0.744076
0.6951
0.644852
0.593548
0.541444
0.488841
0.436135
0.383759
0.332192
0.281991
0.233692
0.187903
0.145143
0.105969
0.0707991
0.0399858
0.0137654
-0.00774214
-0.0245375
-0.0367575
-0.0446267
-0.0484807
-0.0487173
-0.0457934
-0.0401697
-0.0323254
-0.0227139
-0.0117661
0.000130235
0.0126298
0.0254275
0.0382546
0.0508979
0.0631745
0.0749376
0.0860716
0.0964924
0.106136
0.114954
0.122928
0.130028
0.136256
0.141624
0.146145
0.149838
0.152724
0.154826
0.15618
0.156813
0.156762
0.156065
0.154747
0.152843
0.150389
0.147407
0.143935
0.140001
0.135638
0.130866
0.125719
0.12022
0.114393
0.108268
0.10186
0.09519
0.0882803
0.0811524
0.0738238
0.0663167
0.0586323
0.050794
0.0427645
0.0345157
0.0260676
0.0172107
0.00846183
0.003018
1.38783
1.2427
1.20604
1.16273
1.1176
1.07803
1.03799
0.997843
0.956751
0.914406
0.870614
0.825195
0.778116
0.729371
0.679074
0.627319
0.574367
0.520428
0.465896
0.411158
0.35669
0.303066
0.250822
0.200646
0.153122
0.108891
0.0685402
0.0325234
0.00129565
-0.0249542
-0.0460373
-0.0620207
-0.0730477
-0.0794087
-0.0815055
-0.0797887
-0.0747888
-0.0670195
-0.057015
-0.0452697
-0.0322478
-0.0183736
-0.00401198
0.0105278
0.0249631
0.0390769
0.0526945
0.0656699
0.0778944
0.0892903
0.0997999
0.109392
0.118044
0.12575
0.132513
0.138356
0.143291
0.147342
0.150542
0.152923
0.154524
0.155375
0.155514
0.154974
0.153799
0.152017
0.14967
0.146784
0.143402
0.139544
0.135242
0.130527
0.125425
0.119968
0.114177
0.108083
0.10171
0.0950681
0.088184
0.0810797
0.073775
0.0662913
0.0586238
0.0508042
0.0428167
0.0346258
0.0262378
0.0173609
0.00844839
0.00296809
1.37435
1.22937
1.19299
1.15007
1.10531
1.06606
1.02621
0.986112
0.944859
0.902146
0.857769
0.811522
0.763419
0.713414
0.661655
0.608239
0.553416
0.497475
0.440776
0.383789
0.327024
0.271076
0.216613
0.164302
0.114886
0.0690182
0.027372
-0.00951207
-0.0412047
-0.0674132
-0.0880151
-0.103054
-0.112736
-0.117409
-0.117526
-0.113637
-0.10632
-0.0961704
-0.0837728
-0.0696753
-0.0543857
-0.0383482
-0.0219518
-0.00552605
0.0106525
0.0263656
0.0414316
0.0557171
0.0691175
0.0815667
0.0930193
0.10344
0.112827
0.121179
0.128515
0.134857
0.140231
0.144671
0.148215
0.150896
0.152755
0.153832
0.154167
0.153805
0.15278
0.151133
0.148903
0.14612
0.14282
0.139036
0.134801
0.130146
0.125099
0.119692
0.113943
0.107883
0.10154
0.0949304
0.0880746
0.0809983
0.0737166
0.0662558
0.0586115
0.0508167
0.0428245
0.0346195
0.0261907
0.0172971
0.00847909
0.00301151
1.36199
1.21717
1.18103
1.13837
1.09381
1.05465
1.01479
0.974489
0.932884
0.889615
0.844462
0.797259
0.747952
0.696547
0.643146
0.587885
0.531036
0.472862
0.413811
0.354349
0.295049
0.236593
0.179655
0.125066
0.0735638
0.025941
-0.0170802
-0.054918
-0.0870337
-0.113188
-0.133184
-0.14715
-0.155311
-0.158097
-0.156044
-0.149763
-0.139927
-0.127192
-0.112212
-0.0955863
-0.0778563
-0.0595028
-0.040934
-0.0224876
-0.0044499
0.0129559
0.0295629
0.0452311
0.0598719
0.0734281
0.0858644
0.0971652
0.107325
0.116363
0.124303
0.131179
0.137019
0.141865
0.145766
0.148761
0.150895
0.15221
0.152758
0.152577
0.151713
0.150203
0.148094
0.145416
0.142211
0.138512
0.134347
0.129753
0.12476
0.119399
0.113693
0.107673
0.101362
0.0947806
0.087956
0.0809035
0.0736428
0.0662064
0.0585786
0.0507948
0.0428238
0.0346451
0.0262126
0.0173098
0.0084981
0.00303665
1.35053
1.20575
1.16969
1.12712
1.08257
1.04339
1.00337
0.962779
0.920709
0.876769
0.830766
0.782467
0.731864
0.67891
0.623748
0.566503
0.507445
0.446906
0.385306
0.323207
0.261197
0.200023
0.140484
0.0834102
0.0297126
-0.0197877
-0.0642665
-0.103057
-0.135622
-0.161626
-0.180955
-0.193717
-0.200216
-0.200954
-0.196538
-0.187687
-0.175139
-0.159643
-0.14191
-0.122597
-0.102291
-0.0814952
-0.0606431
-0.0400874
-0.0201116
-0.000935895
0.0172656
0.0343748
0.05031
0.0650203
0.0784826
0.0906904
0.101655
0.111399
0.119961
0.127378
0.133697
0.138967
0.143236
0.146555
0.148973
0.150537
0.151301
0.151314
0.150613
0.149245
0.147258
0.14469
0.141582
0.137965
0.133874
0.129343
0.124406
0.119095
0.113433
0.107452
0.101172
0.0946237
0.087828
0.0808025
0.0735672
0.0661435
0.0585339
0.0507709
0.0428101
0.0346475
0.0262707
0.0173504
0.00845946
0.00299373
1.33989
1.19511
1.15905
1.11651
1.0719
1.03254
0.992257
0.951247
0.908596
0.863897
0.816897
0.767424
0.715395
0.660806
0.603755
0.544403
0.483024
0.419947
0.355677
0.290753
0.225889
0.161866
0.0995404
0.0399035
-0.0161234
-0.0675672
-0.113541
-0.153311
-0.186254
-0.212082
-0.230617
-0.242061
-0.246751
-0.245279
-0.238351
-0.226769
-0.211373
-0.192984
-0.172384
-0.150281
-0.1273
-0.103984
-0.0807771
-0.0580479
-0.0360795
-0.0150933
0.00474712
0.0233276
0.0405786
0.0564625
0.0709666
0.0840976
0.0958767
0.106344
0.115542
0.123521
0.130331
0.136027
0.140672
0.144319
0.147026
0.14884
0.149821
0.15002
0.149487
0.148267
0.14641
0.143954
0.140939
0.137407
0.133393
0.12893
0.12405
0.118786
0.113169
0.107228
0.100986
0.0944651
0.0876915
0.0806912
0.0734786
0.066079
0.0584823
0.0507282
0.0427763
0.0345949
0.0261567
0.0172822
0.00851949
0.00307598
1.33
1.1852
1.14909
1.10648
1.06168
1.02209
0.981443
0.939928
0.896634
0.851083
0.803048
0.752297
0.698785
0.642458
0.583451
0.521899
0.458091
0.392409
0.325335
0.257525
0.18967
0.122693
0.0575179
-0.00480863
-0.0632058
-0.116647
-0.164132
-0.204849
-0.238165
-0.263716
-0.281392
-0.291402
-0.294172
-0.290382
-0.280825
-0.266411
-0.248062
-0.226693
-0.203143
-0.178182
-0.152481
-0.1266
-0.10101
-0.0760792
-0.052102
-0.0292922
-0.00780405
0.0122617
0.0308388
0.0479032
0.0634537
0.0775099
0.0901108
0.1013
0.111132
0.119665
0.126963
0.133092
0.138111
0.142083
0.145073
0.147137
0.14834
0.148734
0.148367
0.147293
0.145561
0.143216
0.1403
0.136852
0.132912
0.128511
0.123689
0.118475
0.112901
0.106999
0.100789
0.0943033
0.0875585
0.080579
0.0733901
0.0660045
0.0584216
0.0506837
0.0427325
0.0345819
0.026143
0.01725
0.00850247
0.00306627
1.32086
1.17601
1.1398
1.09708
1.05208
1.01217
0.971102
0.929013
0.884998
0.838541
0.789398
0.737339
0.682277
0.624181
0.563145
0.49934
0.433055
0.364681
0.294775
0.223968
0.153104
0.0831045
0.015016
-0.0500042
-0.110813
-0.166232
-0.215206
-0.256841
-0.290442
-0.315663
-0.332379
-0.340875
-0.341639
-0.335445
-0.32319
-0.305884
-0.284545
-0.260168
-0.233657
-0.205833
-0.177407
-0.14897
-0.120998
-0.0938804
-0.0679061
-0.043287
-0.0201686
0.00135742
0.021241
0.0394729
0.0560562
0.0710257
0.0844322
0.0963339
0.106789
0.115872
0.123651
0.130198
0.135585
0.139881
0.14316
0.145473
0.146889
0.147465
0.147262
0.146334
0.144727
0.14249
0.139665
0.136302
0.132436
0.128102
0.123336
0.11817
0.112641
0.106776
0.1006
0.0941404
0.0874192
0.0804668
0.0732955
0.0659326
0.0583644
0.0506419
0.0427068
0.0345628
0.026144
0.0172452
0.00849727
0.00306815
1.31242
1.16753
1.13121
1.08833
1.04304
1.0028
0.961251
0.918574
0.873805
0.826425
0.776153
0.722754
0.66613
0.606238
0.543183
0.477109
0.408336
0.337282
0.264502
0.190745
0.116825
0.0438298
-0.0271604
-0.0948716
-0.158047
-0.215414
-0.26582
-0.308311
-0.342144
-0.36695
-0.382656
-0.389577
-0.38829
-0.379669
-0.364707
-0.344515
-0.320201
-0.29284
-0.263401
-0.232758
-0.201655
-0.170712
-0.140421
-0.111169
-0.0832493
-0.0568673
-0.0321613
-0.00920899
0.0119467
0.0313074
0.0488972
0.0647521
0.078941
0.0915278
0.10259
0.112207
0.120451
0.127406
0.13315
0.137756
0.141299
0.143849
0.145476
0.146238
0.146194
0.145404
0.143919
0.141789
0.139058
0.135775
0.131975
0.1277
0.122991
0.117875
0.112385
0.106554
0.100408
0.0939784
0.0872843
0.080352
0.0732025
0.0658535
0.0583005
0.050583
0.0426598
0.0344973
0.0260913
0.017235
0.00850216
0.00308835
1.30474
1.15979
1.12334
1.08027
1.03474
0.994098
0.952084
0.908726
0.863238
0.814926
0.763512
0.70878
0.650613
0.588949
0.523882
0.455582
0.384354
0.310649
0.235075
0.158374
0.0815043
0.00554375
-0.0682701
-0.138589
-0.204049
-0.263264
-0.315025
-0.35827
-0.392259
-0.416591
-0.431234
-0.436558
-0.433225
-0.422196
-0.404575
-0.381562
-0.354358
-0.324106
-0.291841
-0.258482
-0.224809
-0.19146
-0.15894
-0.127643
-0.097861
-0.0697942
-0.0435731
-0.0192634
0.00310313
0.0235401
0.0420823
0.0587823
0.0737092
0.0869527
0.0985926
0.108715
0.117402
0.124741
0.130823
0.13573
0.139536
0.142316
0.144143
0.145074
0.14518
0.144519
0.143149
0.141119
0.138477
0.135268
0.131538
0.127327
0.122667
0.117594
0.112144
0.106346
0.100232
0.0938295
0.0871584
0.0802502
0.0731134
0.0657845
0.058244
0.0505481
0.0426404
0.0345125
0.0261275
0.0172282
0.00846352
0.00305015
1.29781
1.1528
1.11621
1.07297
1.02712
0.986134
0.943602
0.899666
0.853405
0.804148
0.751648
0.695639
0.63597
0.572602
0.505614
0.435158
0.361583
0.28534
0.207054
0.127564
0.0478232
-0.0309322
-0.107463
-0.180246
-0.247861
-0.308813
-0.361797
-0.405718
-0.439775
-0.463593
-0.477157
-0.480905
-0.47558
-0.462236
-0.44207
-0.416368
-0.38642
-0.353432
-0.318495
-0.282574
-0.246478
-0.210864
-0.176253
-0.14304
-0.111513
-0.0818703
-0.0542278
-0.028645
-0.00514485
0.0162947
0.0357269
0.0532147
0.0688421
0.0826952
0.0948698
0.105461
0.114558
0.122262
0.128664
0.133844
0.137889
0.14088
0.142888
0.143983
0.144229
0.143694
0.142431
0.140495
0.137935
0.134802
0.131135
0.126972
0.12236
0.117329
0.111915
0.106149
0.100062
0.0936823
0.0870328
0.0801422
0.073022
0.0657075
0.0581848
0.0505004
0.0426008
0.0345039
0.0261455
0.01726
0.0084375
0.00300703
1.29167
1.14659
1.10985
1.06645
1.02033
0.978963
0.935967
0.89137
0.844436
0.794359
0.740801
0.683562
0.622492
0.557508
0.488701
0.416233
0.340435
0.261807
0.181001
0.0988712
0.016486
-0.0649201
-0.143938
-0.219012
-0.2886
-0.351106
-0.40519
-0.449648
-0.48372
-0.506979
-0.519487
-0.521722
-0.514515
-0.498995
-0.476452
-0.448255
-0.415764
-0.380255
-0.342863
-0.304591
-0.266275
-0.228591
-0.192066
-0.157101
-0.123981
-0.0928939
-0.063957
-0.0372182
-0.0126833
0.00968008
0.0299234
0.0481311
0.0643865
0.0787981
0.0914681
0.102493
0.111969
0.119998
0.126688
0.132123
0.13639
0.139573
0.141753
0.142993
0.143369
0.142943
0.141779
0.139926
0.137441
0.134371
0.130761
0.12665
0.122081
0.11709
0.11171
0.105973
0.0999112
0.0935558
0.0869295
0.0800568
0.0729498
0.0656509
0.0581354
0.0504645
0.0425842
0.0344874
0.0261261
0.0172104
0.00842888
0.00303837
1.28632
1.14121
1.10436
1.06075
1.01437
0.97267
0.929221
0.884108
0.836487
0.785566
0.731089
0.67275
0.61039
0.543946
0.473492
0.399181
0.321386
0.24058
0.157471
0.0729679
-0.0118524
-0.0956052
-0.176904
-0.254007
-0.325356
-0.389239
-0.444244
-0.48916
-0.523166
-0.54588
-0.557385
-0.558219
-0.549288
-0.531796
-0.507113
-0.476677
-0.441919
-0.404153
-0.364566
-0.324192
-0.283893
-0.244358
-0.206127
-0.169599
-0.135057
-0.102687
-0.072592
-0.0448203
-0.019367
0.00380985
0.0247826
0.0436329
0.0604552
0.0753562
0.0884529
0.0998556
0.109666
0.117991
0.124935
0.130592
0.135055
0.13841
0.140736
0.14211
0.142599
0.142275
0.141194
0.139419
0.137003
0.133991
0.13043
0.126362
0.121832
0.116872
0.111522
0.105814
0.0997729
0.0934341
0.0868225
0.0799644
0.0728729
0.065583
0.0580806
0.0504174
0.0425398
0.0344559
0.0260844
0.0171828
0.00842963
0.00304831
1.28185
1.13665
1.09965
1.05596
1.00931
0.967325
0.923472
0.877857
0.829669
0.778076
0.722746
0.663414
0.599928
0.532188
0.460281
0.384364
0.30479
0.222083
0.136966
0.0503736
-0.0365332
-0.122377
-0.205622
-0.284489
-0.357349
-0.422374
-0.47815
-0.523387
-0.557311
-0.579496
-0.590091
-0.589681
-0.579234
-0.56002
-0.533477
-0.501101
-0.464375
-0.424667
-0.383192
-0.341016
-0.299015
-0.257896
-0.218199
-0.180331
-0.144571
-0.111095
-0.0800122
-0.0513555
-0.0251143
-0.00123523
0.0203514
0.0397457
0.0570516
0.0723844
0.0858559
0.0975875
0.107689
0.116266
0.123433
0.129282
0.133914
0.137414
0.13987
0.141355
0.141943
0.141706
0.140701
0.138987
0.136627
0.133667
0.130149
0.126121
0.121624
0.116694
0.111366
0.105676
0.0996578
0.0933404
0.0867452
0.0798997
0.0728194
0.0655423
0.0580458
0.0503958
0.0425271
0.0344466
0.0260952
0.0171911
0.00842565
0.00303857
1.2782
1.13298
1.09589
1.05205
1.00522
0.962966
0.918802
0.872775
0.824108
0.771892
0.715861
0.655717
0.591282
0.522474
0.449358
0.372089
0.291059
0.20676
0.119966
0.031642
-0.0570346
-0.144563
-0.229454
-0.309751
-0.383848
-0.449815
-0.506141
-0.551628
-0.58544
-0.607167
-0.616993
-0.615532
-0.60382
-0.583181
-0.555103
-0.521133
-0.482801
-0.441496
-0.398474
-0.354814
-0.311414
-0.268992
-0.228092
-0.189122
-0.15236
-0.117988
-0.0860896
-0.0567034
-0.0298141
-0.0053623
0.0167364
0.0365821
0.0542907
0.0699678
0.0837409
0.0957361
0.106071
0.114858
0.122202
0.128208
0.132977
0.136598
0.139158
0.140738
0.141404
0.141232
0.140287
0.13863
0.136315
0.133394
0.129913
0.125914
0.121447
0.11654
0.111236
0.105566
0.0995605
0.0932542
0.0866693
0.0798347
0.0727631
0.065489
0.058004
0.0503535
0.0424956
0.0344049
0.0260525
0.0171802
0.00842263
0.00304749
1.27545
1.13021
1.09303
1.04909
1.0021
0.959671
0.915236
0.868925
0.819863
0.767181
0.710597
0.649811
0.584647
0.514997
0.440938
0.362634
0.28045
0.194926
0.106841
0.0171763
-0.0728413
-0.161694
-0.247827
-0.329211
-0.40431
-0.470895
-0.527646
-0.573281
-0.607018
-0.628366
-0.637576
-0.635305
-0.622615
-0.600878
-0.57162
-0.536429
-0.496861
-0.454342
-0.410137
-0.365347
-0.320881
-0.277466
-0.235649
-0.19584
-0.158314
-0.123248
-0.0907334
-0.0607926
-0.0334109
-0.0085194
0.0139668
0.0341547
0.0521645
0.0681123
0.0821202
0.0943241
0.104836
0.113775
0.12126
0.127386
0.132261
0.135973
0.138616
0.140261
0.14099
0.140875
0.139979
0.13836
0.136082
0.133192
0.129737
0.125765
0.121313
0.116424
0.111136
0.105479
0.0994882
0.0931905
0.0866175
0.0797938
0.07273
0.0654676
0.0579861
0.050345
0.0424804
0.0343963
0.0260215
0.0171365
0.00843579
0.0030674
1.27361
1.12834
1.09111
1.0471
0.999999
0.957424
0.912833
0.866285
0.817023
0.764012
0.707028
0.645812
0.580141
0.509936
0.43524
0.356217
0.273266
0.186906
0.0979282
0.00735346
-0.0836068
-0.173329
-0.26035
-0.342455
-0.418314
-0.485305
-0.542139
-0.587862
-0.621596
-0.642689
-0.651488
-0.648656
-0.635304
-0.612823
-0.582771
-0.546755
-0.506358
-0.463017
-0.418014
-0.37246
-0.327274
-0.283185
-0.240746
-0.200371
-0.16233
-0.1268
-0.0938662
-0.0635535
-0.0358349
-0.0106487
0.0120992
0.0325195
0.050732
0.0668552
0.0810225
0.0933618
0.104
0.113048
0.120626
0.126835
0.13178
0.135556
0.138254
0.139951
0.140719
0.140636
0.139767
0.138177
0.135918
0.133048
0.129614
0.125655
0.121221
0.116347
0.111069
0.105422
0.0994357
0.0931499
0.0865814
0.0797596
0.0727003
0.0654376
0.0579647
0.0503237
0.0424744
0.0344038
0.0260748
0.0172007
0.0084073
0.00302901
1.27269
1.12742
1.09015
1.04611
0.998953
0.956302
0.911634
0.864861
0.815612
0.762513
0.705243
0.643796
0.577876
0.507369
0.43234
0.352963
0.269609
0.182828
0.0934088
0.00237346
-0.0890381
-0.179227
-0.266659
-0.349156
-0.42542
-0.492629
-0.549347
-0.595229
-0.628952
-0.649905
-0.658493
-0.655382
-0.64169
-0.618834
-0.588378
-0.551946
-0.511128
-0.467374
-0.421971
-0.376037
-0.330491
-0.286065
-0.243318
-0.202656
-0.164354
-0.128587
-0.0954429
-0.0649411
-0.0370578
-0.0117202
0.0111651
0.0317037
0.0500154
0.0662281
0.0804739
0.0928852
0.10358
0.11268
0.120307
0.126557
0.131538
0.135344
0.138065
0.139781
0.140574
0.140512
0.139661
0.138083
0.13584
0.132983
0.129554
0.125604
0.121174
0.116307
0.111032
0.10539
0.099416
0.0931289
0.0865638
0.0797444
0.0726888
0.0654359
0.0579604
0.050323
0.0424684
0.0343881
0.0260373
0.017145
0.00840877
0.00305223
1.2727
1.12741
1.09015
1.04611
0.998955
0.956298
0.911634
0.864845
0.815624
0.762528
0.705237
0.643803
0.577879
0.507381
0.432356
0.352976
0.269631
0.182842
0.0934233
0.00238906
-0.0890303
-0.179211
-0.266651
-0.349145
-0.425408
-0.492616
-0.549323
-0.595222
-0.628933
-0.649887
-0.658473
-0.65536
-0.641672
-0.618815
-0.588362
-0.551931
-0.511113
-0.467359
-0.421955
-0.376022
-0.330475
-0.286051
-0.243303
-0.202644
-0.164344
-0.128581
-0.0954402
-0.0649388
-0.0370517
-0.0117158
0.0111635
0.0316967
0.0500097
0.066224
0.0804724
0.0928823
0.103579
0.112681
0.120307
0.126556
0.131537
0.135347
0.13807
0.139788
0.14058
0.140518
0.139662
0.138085
0.135838
0.132976
0.129552
0.125603
0.121177
0.116309
0.111034
0.105393
0.0994128
0.093128
0.0865617
0.0797418
0.0726858
0.0654246
0.0579551
0.0503189
0.0424634
0.0343886
0.0260328
0.0171542
0.00841876
0.00305024
1.27362
1.12835
1.09112
1.04711
1.00002
0.957436
0.912858
0.866223
0.817056
0.764094
0.707053
0.645827
0.580161
0.509949
0.435243
0.356233
0.273274
0.186921
0.0979434
0.00738098
-0.0835664
-0.173293
-0.260299
-0.342399
-0.418271
-0.485212
-0.542051
-0.587846
-0.621544
-0.64263
-0.651426
-0.648596
-0.635246
-0.61277
-0.582721
-0.54671
-0.506313
-0.462974
-0.417975
-0.372426
-0.327246
-0.28316
-0.240724
-0.200349
-0.162311
-0.126783
-0.0938499
-0.0635376
-0.0358223
-0.0106357
0.0121127
0.0325349
0.0507512
0.066873
0.0810358
0.0933753
0.104008
0.113052
0.120627
0.126835
0.13178
0.135556
0.138251
0.139943
0.140715
0.140631
0.139765
0.138174
0.13592
0.13305
0.129611
0.125655
0.121217
0.116343
0.111064
0.105418
0.09944
0.0931505
0.0865811
0.0797576
0.0726974
0.0654389
0.0579619
0.0503294
0.0424689
0.0343943
0.0260322
0.0171348
0.00840871
0.00305271
1.27546
1.13022
1.09305
1.04909
1.00211
0.959673
0.91525
0.868928
0.819889
0.767215
0.710611
0.649839
0.584671
0.515031
0.440975
0.362669
0.2805
0.194972
0.106889
0.0172326
-0.0727906
-0.161622
-0.247765
-0.329134
-0.404236
-0.470773
-0.527544
-0.573224
-0.606926
-0.628275
-0.637477
-0.635208
-0.622518
-0.600785
-0.571533
-0.536347
-0.496787
-0.454273
-0.410074
-0.365289
-0.320827
-0.277417
-0.235604
-0.195799
-0.158276
-0.123215
-0.0907051
-0.060768
-0.0333888
-0.00850103
0.0139821
0.0341667
0.0521753
0.0681181
0.0821231
0.0943233
0.104839
0.11378
0.121264
0.12739
0.132263
0.135981
0.13862
0.140267
0.141001
0.140883
0.139981
0.138363
0.136081
0.133186
0.129734
0.125761
0.121311
0.116423
0.111134
0.105477
0.0994855
0.0931894
0.0866122
0.0797827
0.0727223
0.0654554
0.0579802
0.0503385
0.042479
0.0343946
0.0260458
0.0171735
0.00843158
0.00306494
1.27821
1.133
1.09591
1.05206
1.00524
0.962985
0.918825
0.872757
0.824146
0.771958
0.715902
0.655752
0.591319
0.52252
0.449396
0.372144
0.291099
0.206815
0.120025
0.0317065
-0.056947
-0.144485
-0.229346
-0.309655
-0.383731
-0.449688
-0.50602
-0.551503
-0.585304
-0.607028
-0.616852
-0.615396
-0.60369
-0.583058
-0.554985
-0.521024
-0.482697
-0.441403
-0.398392
-0.35474
-0.311347
-0.268928
-0.228034
-0.189067
-0.152309
-0.117942
-0.0860511
-0.0566691
-0.0297856
-0.00533761
0.0167559
0.0365997
0.0543083
0.069985
0.0837562
0.09575
0.106083
0.114866
0.12221
0.128215
0.132981
0.1366
0.139162
0.140737
0.141407
0.141234
0.140291
0.138633
0.136314
0.133393
0.129912
0.125914
0.121441
0.116533
0.111229
0.105562
0.0995616
0.0932542
0.0866709
0.0798344
0.072759
0.0654885
0.0580023
0.0503612
0.0424869
0.0344116
0.0260488
0.0171472
0.00842034
0.00305178
1.28185
1.13667
1.0997
1.05596
1.00934
0.967333
0.923497
0.877871
0.829707
0.778127
0.72278
0.66346
0.599974
0.532243
0.46034
0.384422
0.30487
0.222159
0.137048
0.0504723
-0.0364391
-0.122255
-0.205508
-0.284359
-0.357206
-0.422227
-0.477983
-0.523235
-0.557136
-0.579331
-0.589921
-0.589515
-0.579069
-0.559863
-0.533328
-0.500963
-0.46425
-0.424553
-0.38309
-0.340923
-0.298924
-0.257812
-0.218121
-0.180257
-0.144502
-0.111037
-0.0799621
-0.0513106
-0.0250756
-0.00120206
0.0203834
0.0397724
0.0570757
0.0724022
0.0858686
0.0975964
0.107694
0.116271
0.123437
0.12929
0.133922
0.137424
0.139876
0.14136
0.141953
0.141715
0.140705
0.138993
0.136629
0.133661
0.130145
0.126117
0.121619
0.11669
0.111363
0.105674
0.0996566
0.0933322
0.0867343
0.0798902
0.0728097
0.065528
0.0580357
0.0503812
0.0425141
0.0344357
0.0260764
0.0171816
0.00842358
0.00304803
1.28634
1.14124
1.10438
1.06077
1.01439
0.972696
0.929255
0.884118
0.836519
0.78564
0.731147
0.672802
0.610448
0.544016
0.47356
0.399264
0.321464
0.240665
0.157573
0.0730653
-0.0117163
-0.0954864
-0.176746
-0.253865
-0.325185
-0.389069
-0.44406
-0.488966
-0.52297
-0.54568
-0.55719
-0.558026
-0.549101
-0.531615
-0.506938
-0.476513
-0.441764
-0.404009
-0.364437
-0.324072
-0.283782
-0.244257
-0.206034
-0.169513
-0.134979
-0.102618
-0.0725323
-0.0447693
-0.0193249
0.00384463
0.024804
0.0436468
0.0604688
0.0753721
0.0884675
0.0998678
0.109681
0.118007
0.124951
0.130606
0.135066
0.138416
0.140744
0.142116
0.142607
0.142279
0.141201
0.139427
0.137004
0.133991
0.130432
0.126365
0.12183
0.11687
0.111517
0.105812
0.0997759
0.0934354
0.086821
0.0799618
0.0728651
0.0655772
0.0580763
0.0504171
0.0425272
0.0344409
0.026052
0.0171476
0.00843648
0.00305058
1.29169
1.14662
1.10989
1.06647
1.02035
0.978984
0.935997
0.891442
0.844493
0.79437
0.740834
0.683619
0.622553
0.557581
0.488789
0.416322
0.340543
0.261915
0.181115
0.0990114
0.0166237
-0.0647544
-0.143774
-0.218833
-0.288405
-0.350912
-0.404971
-0.44944
-0.483493
-0.50676
-0.519266
-0.521504
-0.514299
-0.498787
-0.476254
-0.448069
-0.415594
-0.3801
-0.342719
-0.304461
-0.266152
-0.228478
-0.191965
-0.15701
-0.123895
-0.0928135
-0.0638833
-0.0371519
-0.0126268
0.00972743
0.0299664
0.0481669
0.0644227
0.0788295
0.0914857
0.102502
0.111975
0.120008
0.126698
0.132132
0.136399
0.139583
0.141758
0.142999
0.143377
0.142954
0.141787
0.139937
0.137448
0.134374
0.130762
0.126649
0.122076
0.117083
0.111707
0.105971
0.0999087
0.0935482
0.0869178
0.080043
0.0729355
0.0656331
0.0581185
0.0504469
0.0425485
0.0344485
0.0260403
0.0171452
0.00845721
0.00306985
1.29785
1.15283
1.11621
1.07302
1.02716
0.986153
0.943661
0.899635
0.853453
0.804259
0.751716
0.695709
0.636051
0.57269
0.505704
0.435259
0.361695
0.285448
0.207194
0.127688
0.0479956
-0.0307826
-0.107267
-0.18006
-0.24765
-0.308596
-0.361566
-0.405474
-0.439534
-0.463344
-0.476917
-0.480667
-0.475355
-0.462013
-0.441852
-0.416163
-0.386225
-0.353249
-0.318327
-0.282419
-0.246337
-0.210735
-0.176139
-0.142936
-0.111419
-0.0817811
-0.054148
-0.0285806
-0.0050864
0.0163472
0.035768
0.0532478
0.068867
0.0827149
0.0948839
0.105474
0.114576
0.12228
0.128681
0.133858
0.137903
0.140889
0.142898
0.14399
0.14424
0.143704
0.142442
0.140504
0.137941
0.134806
0.131138
0.126975
0.122359
0.117327
0.111911
0.106149
0.100062
0.0936811
0.0870284
0.0801371
0.0730128
0.0656969
0.0581746
0.0504909
0.0425871
0.0344664
0.0260978
0.0172177
0.00845916
0.00305701
1.30476
1.15982
1.12338
1.08031
1.03476
0.994142
0.952111
0.908816
0.863286
0.814981
0.763562
0.708854
0.65069
0.589034
0.523986
0.45569
0.384482
0.310791
0.235219
0.158543
0.0816756
0.00573303
-0.0680639
-0.138379
-0.203815
-0.263034
-0.314772
-0.358019
-0.391999
-0.416329
-0.430975
-0.4363
-0.432976
-0.421958
-0.404349
-0.381346
-0.354154
-0.323919
-0.291665
-0.258321
-0.224656
-0.191321
-0.158817
-0.127535
-0.0977603
-0.0697009
-0.0434873
-0.0191867
0.00317193
0.0236003
0.0421313
0.0588266
0.0737498
0.086983
0.0986135
0.108732
0.117416
0.124757
0.130839
0.135743
0.139547
0.142323
0.144153
0.145086
0.145191
0.144534
0.143163
0.141131
0.138488
0.135277
0.131542
0.127327
0.122664
0.117592
0.11214
0.106341
0.100226
0.0938193
0.0871472
0.080236
0.0730964
0.0657657
0.0582252
0.0505254
0.0426133
0.0344769
0.0260841
0.0171776
0.0084597
0.00307775
1.31248
1.16756
1.13121
1.08838
1.04309
1.00284
0.961298
0.918612
0.873865
0.826491
0.776223
0.722834
0.666217
0.606339
0.543293
0.477229
0.408476
0.33741
0.264674
0.190893
0.117026
0.0440109
-0.0269438
-0.0946509
-0.157807
-0.215165
-0.26556
-0.308039
-0.341873
-0.366673
-0.382384
-0.389303
-0.388034
-0.379414
-0.364463
-0.344282
-0.319983
-0.292636
-0.263213
-0.232585
-0.201499
-0.170569
-0.140296
-0.111055
-0.083143
-0.0567665
-0.0320659
-0.00912778
0.0120211
0.0313718
0.0489467
0.0647947
0.0789742
0.0915564
0.102614
0.112226
0.120473
0.127428
0.133168