/*--------------------------------*- C++ -*----------------------------------*\
  =========                 |
  \\      /  F ield         | OpenFOAM: The Open Source CFD Toolbox
   \\    /   O peration     | Website:  https://openfoam.org
    \\  /    A nd           | Version:  11
     \\/     M anipulation  |
\*---------------------------------------------------------------------------*/
FoamFile
{
    format      ascii;
    class       volScalarField;
    location    "0.078";
    object      k;
}
// * * * * * * * * * * * * * * * * * * * * * * * * * * * * * * * * * * * * * //

dimensions      [0 2 -2 0 0 0 0];

internalField   nonuniform List<scalar> 
287084
(
0.381371
0.394189
0.407767
0.419912
0.428658
0.433543
0.43525
0.435409
0.435388
0.435364
0.43534
0.435276
0.435385
0.435556
0.435544
0.435555
0.435538
0.435521
0.435445
0.435366
0.435361
0.435353
0.43548
0.435741
0.435725
0.435692
0.435591
0.435509
0.435555
0.435579
0.435655
0.435708
0.435607
0.435645
0.43565
0.435602
0.435508
0.435457
0.435412
0.435353
0.435222
0.435173
0.435076
0.43504
0.435006
0.43501
0.435007
0.434898
0.434872
0.434766
0.434688
0.434846
0.43505
0.43504
0.43505
0.434953
0.434922
0.434892
0.434702
0.434722
0.434864
0.434865
0.434866
0.434751
0.434908
0.435083
0.435088
0.435088
0.434919
0.434982
0.435054
0.435031
0.435028
0.434898
0.434979
0.43512
0.435046
0.435101
0.435119
0.435104
0.435098
0.434927
0.434969
0.435194
0.435211
0.435222
0.435171
0.435132
0.435064
0.434836
0.381402
0.39417
0.407564
0.41968
0.428511
0.433575
0.435397
0.435539
0.435474
0.435659
0.435864
0.435755
0.43583
0.435865
0.435847
0.435837
0.435677
0.43559
0.435634
0.435653
0.435541
0.435542
0.435895
0.43611
0.436063
0.436094
0.436106
0.436073
0.43604
0.435975
0.435907
0.435696
0.435729
0.435805
0.435641
0.43569
0.435706
0.435648
0.435505
0.435459
0.435574
0.435604
0.435565
0.435462
0.435364
0.435328
0.435266
0.435374
0.43551
0.435492
0.435479
0.435358
0.435352
0.435306
0.435194
0.435105
0.435086
0.43513
0.435129
0.435122
0.434968
0.434977
0.435258
0.435292
0.435256
0.435131
0.435092
0.435286
0.435365
0.435328
0.435207
0.435246
0.435438
0.435406
0.435419
0.435395
0.435361
0.435341
0.435338
0.435205
0.435263
0.435322
0.435297
0.435224
0.435224
0.435332
0.43526
0.435262
0.435254
0.435088
0.381407
0.394159
0.407538
0.419701
0.42841
0.433465
0.435576
0.435896
0.43585
0.435853
0.435846
0.435715
0.435755
0.435806
0.435784
0.435798
0.435703
0.43585
0.435952
0.43593
0.435923
0.435779
0.435762
0.436052
0.436125
0.436054
0.436046
0.436057
0.436064
0.436023
0.436043
0.436003
0.435976
0.435962
0.435975
0.435937
0.435904
0.435829
0.435622
0.435538
0.435524
0.435375
0.435439
0.435521
0.4355
0.435493
0.435314
0.435275
0.435461
0.435527
0.435483
0.435474
0.435445
0.435433
0.435325
0.435255
0.435193
0.435114
0.43513
0.435135
0.435036
0.435122
0.435217
0.435174
0.435178
0.435107
0.435309
0.435462
0.435409
0.435429
0.435428
0.435443
0.435398
0.435287
0.435212
0.435148
0.435119
0.435074
0.435139
0.435172
0.435066
0.435014
0.435133
0.435283
0.435183
0.435272
0.435327
0.435326
0.435323
0.435064
0.381384
0.39416
0.40758
0.419635
0.42833
0.433439
0.43561
0.435957
0.435942
0.435854
0.435888
0.436028
0.436008
0.435974
0.435773
0.435756
0.435872
0.435797
0.435895
0.43599
0.435872
0.435872
0.435868
0.435741
0.435796
0.435863
0.435842
0.435835
0.435639
0.435677
0.435955
0.435983
0.435945
0.435962
0.435969
0.435951
0.435949
0.435902
0.43583
0.435734
0.43569
0.435647
0.435608
0.435553
0.4355
0.43534
0.435385
0.43544
0.435396
0.435311
0.435215
0.435285
0.435331
0.435278
0.435276
0.43528
0.435279
0.435198
0.435086
0.435229
0.435385
0.435329
0.435325
0.435312
0.435189
0.435119
0.435184
0.435108
0.435109
0.435324
0.435424
0.43536
0.435361
0.435358
0.435308
0.435177
0.435263
0.435487
0.435401
0.435433
0.435488
0.435454
0.435304
0.435348
0.43542
0.435378
0.43528
0.435243
0.435255
0.435081
0.381378
0.394167
0.407586
0.419556
0.428403
0.433469
0.435332
0.435882
0.435895
0.435864
0.435848
0.435762
0.435846
0.435881
0.435859
0.435876
0.435825
0.435644
0.435695
0.435774
0.435738
0.435734
0.435641
0.435802
0.435929
0.435846
0.435846
0.435856
0.435806
0.435855
0.435917
0.435853
0.435856
0.43586
0.435877
0.435814
0.435589
0.435579
0.435765
0.435793
0.435792
0.435768
0.435764
0.435726
0.435721
0.435684
0.435654
0.435619
0.435614
0.435571
0.435398
0.435322
0.435278
0.435187
0.435145
0.435102
0.435089
0.434954
0.43502
0.435154
0.435125
0.435121
0.435017
0.435012
0.435
0.435005
0.434919
0.435009
0.435159
0.435088
0.435086
0.435041
0.435225
0.435466
0.435377
0.435459
0.435496
0.435394
0.435417
0.435469
0.435456
0.435467
0.435459
0.435379
0.435146
0.435166
0.435292
0.435298
0.435297
0.435093
0.381383
0.394153
0.407544
0.419641
0.428466
0.433282
0.435076
0.435471
0.435822
0.435849
0.435773
0.43578
0.435793
0.435776
0.435622
0.435538
0.435639
0.435825
0.435808
0.435793
0.435799
0.435759
0.43562
0.43566
0.4358
0.435768
0.435683
0.435757
0.435957
0.435937
0.435924
0.435934
0.435943
0.435882
0.435739
0.435651
0.43563
0.435499
0.435565
0.435658
0.435562
0.435582
0.435627
0.43559
0.43556
0.435526
0.435346
0.435235
0.435289
0.435363
0.435344
0.435339
0.435219
0.435197
0.435308
0.435364
0.435337
0.435325
0.435211
0.4352
0.435287
0.435275
0.435278
0.435248
0.435228
0.435093
0.435201
0.435407
0.435327
0.435394
0.435422
0.435395
0.435376
0.435232
0.435203
0.435155
0.435256
0.435409
0.435327
0.435368
0.435379
0.435342
0.435177
0.435191
0.435337
0.435303
0.435349
0.435364
0.435317
0.435136
0.381366
0.39415
0.407559
0.419623
0.428495
0.433185
0.435281
0.435698
0.435665
0.435663
0.435653
0.435508
0.43552
0.435845
0.435817
0.435821
0.436119
0.43631
0.436235
0.436237
0.436316
0.436328
0.436273
0.436089
0.436091
0.436189
0.436172
0.436174
0.436141
0.436139
0.436059
0.436032
0.435976
0.4358
0.435836
0.435879
0.435854
0.435839
0.435611
0.435655
0.43574
0.435703
0.435646
0.435501
0.435515
0.435548
0.43552
0.435508
0.43546
0.435435
0.43538
0.435195
0.435235
0.435297
0.435258
0.435254
0.435193
0.435182
0.435095
0.435206
0.4353
0.435292
0.43529
0.435203
0.435188
0.435058
0.435133
0.435239
0.435212
0.43517
0.435091
0.435148
0.435221
0.435195
0.435123
0.435212
0.435331
0.435293
0.435303
0.43529
0.435143
0.435161
0.435337
0.435345
0.435312
0.435236
0.435168
0.435251
0.435299
0.435153
0.381384
0.394121
0.407645
0.419596
0.428183
0.433369
0.435729
0.436389
0.436457
0.436424
0.43627
0.436353
0.436434
0.43639
0.436372
0.436359
0.436385
0.436393
0.436388
0.436186
0.436221
0.436341
0.436226
0.436276
0.43634
0.436325
0.436311
0.436287
0.436268
0.436275
0.436222
0.436199
0.436198
0.436202
0.436174
0.436129
0.436041
0.435838
0.435681
0.435791
0.435858
0.435828
0.435805
0.435742
0.435701
0.435574
0.435589
0.435628
0.435575
0.435577
0.435552
0.435346
0.435317
0.435506
0.435539
0.435497
0.435347
0.435413
0.43551
0.435465
0.435492
0.435501
0.435514
0.435488
0.435457
0.435389
0.435228
0.435113
0.435133
0.435091
0.435184
0.435379
0.435383
0.435383
0.435294
0.435198
0.435331
0.43549
0.435489
0.43549
0.435461
0.435443
0.43522
0.435276
0.435427
0.435416
0.43542
0.435361
0.435299
0.435099
0.381378
0.39414
0.40756
0.419662
0.428335
0.433319
0.435371
0.435722
0.435706
0.435671
0.435503
0.435483
0.435871
0.436098
0.435973
0.436046
0.436085
0.43596
0.436069
0.436331
0.43622
0.436305
0.436352
0.436162
0.436227
0.436355
0.436241
0.436297
0.436363
0.436325
0.436337
0.436346
0.436335
0.436228
0.436099
0.436034
0.435946
0.435902
0.435824
0.435642
0.435523
0.435534
0.435543
0.435491
0.43557
0.435648
0.435506
0.435587
0.435644
0.435641
0.43564
0.435548
0.435546
0.435522
0.435485
0.435348
0.435134
0.43519
0.435293
0.435272
0.435264
0.435117
0.435229
0.435347
0.435301
0.435293
0.435263
0.435253
0.435091
0.435163
0.435482
0.435495
0.43547
0.435485
0.435443
0.435351
0.435198
0.4353
0.435533
0.435429
0.435518
0.43557
0.435541
0.435524
0.435404
0.435365
0.435286
0.435253
0.435211
0.435071
0.381423
0.394037
0.407618
0.419679
0.428329
0.433311
0.435248
0.435505
0.435379
0.435366
0.435653
0.435838
0.435819
0.435795
0.435659
0.435696
0.435709
0.435816
0.435952
0.435917
0.43583
0.435785
0.435842
0.435795
0.43589
0.435933
0.435906
0.435832
0.43589
0.436061
0.43597
0.435973
0.43596
0.435883
0.435833
0.43581
0.435722
0.435694
0.435711
0.435726
0.435664
0.435678
0.435681
0.435674
0.435641
0.435481
0.435263
0.435197
0.435165
0.435149
0.435023
0.435046
0.435126
0.435102
0.435075
0.43494
0.434949
0.434959
0.43485
0.434905
0.435239
0.435294
0.435245
0.435241
0.435241
0.435211
0.434994
0.434956
0.435167
0.435219
0.435213
0.435212
0.435112
0.43504
0.435077
0.435097
0.434993
0.435059
0.435347
0.435357
0.435317
0.435244
0.435153
0.435309
0.435465
0.435421
0.435424
0.435435
0.435418
0.435162
0.381396
0.394119
0.407579
0.419609
0.428356
0.43339
0.435332
0.435587
0.435461
0.435545
0.435705
0.43569
0.435643
0.43562
0.43572
0.435617
0.435608
0.435775
0.435788
0.435904
0.436255
0.436259
0.436217
0.436026
0.436034
0.436137
0.435943
0.435989
0.436091
0.436082
0.436076
0.435873
0.435927
0.436059
0.435957
0.436006
0.436014
0.435964
0.43597
0.435981
0.435983
0.435923
0.435752
0.43565
0.435559
0.435375
0.435125
0.43517
0.435312
0.435281
0.435169
0.435213
0.43529
0.435249
0.435155
0.435101
0.435094
0.435095
0.435091
0.435038
0.435171
0.435232
0.435189
0.435047
0.435084
0.435247
0.435231
0.435198
0.435018
0.435028
0.435148
0.435148
0.435084
0.435151
0.435299
0.435272
0.435238
0.43512
0.435075
0.435216
0.435285
0.435175
0.435258
0.435435
0.435408
0.435354
0.435279
0.435251
0.435247
0.435147
0.381366
0.394158
0.407562
0.419625
0.428363
0.433291
0.435452
0.435889
0.43589
0.43589
0.43583
0.435737
0.435798
0.436164
0.436178
0.436126
0.43613
0.436134
0.436115
0.436045
0.436119
0.436249
0.436284
0.436246
0.436112
0.436189
0.436376
0.436304
0.436298
0.436316
0.436342
0.436276
0.436253
0.436242
0.43621
0.436178
0.436172
0.436149
0.436083
0.435942
0.435811
0.435708
0.435601
0.435356
0.435171
0.43517
0.435242
0.435213
0.435123
0.435098
0.434998
0.435046
0.435276
0.435239
0.435309
0.435331
0.435284
0.4353
0.435315
0.435316
0.43529
0.435225
0.435071
0.434968
0.435186
0.435332
0.435334
0.435333
0.435135
0.435179
0.435379
0.435393
0.435382
0.435189
0.43523
0.435344
0.435351
0.43535
0.435125
0.435163
0.435304
0.435309
0.435314
0.435214
0.435324
0.435431
0.435398
0.435395
0.435344
0.435114
0.381389
0.394104
0.407674
0.419553
0.428194
0.433411
0.435691
0.43608
0.435942
0.435978
0.436143
0.436138
0.436159
0.436123
0.435998
0.436001
0.436317
0.436415
0.436375
0.436292
0.436222
0.436339
0.436388
0.436284
0.436366
0.436521
0.436357
0.436438
0.436504
0.436428
0.436441
0.436442
0.436443
0.436387
0.436268
0.436036
0.435952
0.435921
0.435884
0.435834
0.435701
0.43565
0.435618
0.435573
0.435485
0.435359
0.435323
0.435294
0.435419
0.435491
0.435417
0.435416
0.435424
0.435426
0.435353
0.435238
0.435256
0.43527
0.43523
0.43511
0.43516
0.43534
0.435254
0.435338
0.435384
0.435352
0.435325
0.435219
0.435189
0.435089
0.435157
0.435369
0.435355
0.435334
0.435216
0.435131
0.435313
0.435445
0.435418
0.435377
0.435254
0.435291
0.435389
0.43537
0.435328
0.435213
0.435223
0.435275
0.435248
0.435143
0.381395
0.39412
0.40753
0.41967
0.428473
0.433181
0.435225
0.43557
0.435382
0.435428
0.435565
0.435393
0.43547
0.435597
0.4355
0.435448
0.43554
0.435595
0.43569
0.435925
0.435915
0.43586
0.435845
0.436031
0.43625
0.436323
0.436142
0.436215
0.436323
0.436282
0.436307
0.436292
0.436258
0.436223
0.436162
0.436065
0.435967
0.435719
0.435661
0.435672
0.435559
0.435581
0.435658
0.435643
0.43565
0.435624
0.435411
0.435379
0.435518
0.435541
0.435514
0.435508
0.435448
0.43523
0.435239
0.435254
0.435214
0.435097
0.435097
0.435271
0.435281
0.435244
0.435062
0.435097
0.435199
0.435155
0.435151
0.435056
0.435042
0.435032
0.435177
0.435395
0.435388
0.435351
0.435293
0.435251
0.435101
0.43506
0.435183
0.435153
0.435176
0.435439
0.435576
0.435581
0.435581
0.435459
0.43537
0.43541
0.435427
0.435274
0.381384
0.394122
0.407636
0.41961
0.428154
0.433367
0.435783
0.436243
0.436113
0.436161
0.436319
0.436154
0.43619
0.43633
0.436242
0.436251
0.436251
0.436207
0.436158
0.43618
0.436149
0.436227
0.436439
0.436437
0.436411
0.436514
0.436563
0.436422
0.436486
0.436504
0.436413
0.436442
0.436443
0.436419
0.436425
0.436388
0.436328
0.436251
0.436089
0.435959
0.435864
0.435719
0.435388
0.435258
0.435272
0.435271
0.435268
0.435237
0.435235
0.435211
0.435164
0.435126
0.43501
0.435078
0.435263
0.435184
0.43523
0.435296
0.435283
0.435275
0.435128
0.435164
0.435363
0.435359
0.435326
0.43527
0.435403
0.435462
0.435419
0.435339
0.435217
0.435278
0.435324
0.435279
0.435188
0.435114
0.43532
0.435436
0.435397
0.435314
0.435219
0.435237
0.435198
0.435308
0.435371
0.435331
0.435199
0.435182
0.435238
0.435066
0.381379
0.394196
0.407545
0.419552
0.428437
0.433217
0.43543
0.435859
0.435865
0.435865
0.435743
0.435782
0.435849
0.435814
0.435704
0.435818
0.436032
0.436009
0.435906
0.435896
0.435988
0.435932
0.435911
0.43606
0.436138
0.436012
0.436113
0.436267
0.436184
0.436172
0.436119
0.436099
0.43594
0.435962
0.43599
0.435943
0.435948
0.435917
0.43589
0.435845
0.43581
0.435779
0.435782
0.435779
0.435785
0.435726
0.435602
0.435379
0.435281
0.435082
0.434986
0.435154
0.435229
0.435185
0.435032
0.435039
0.435227
0.435179
0.435345
0.435734
0.435741
0.43569
0.435511
0.435542
0.435592
0.435418
0.435504
0.435619
0.435609
0.435615
0.435588
0.435568
0.435407
0.435338
0.435306
0.435302
0.43521
0.435257
0.435304
0.435252
0.435161
0.435181
0.435441
0.435457
0.435443
0.435265
0.435296
0.435346
0.435304
0.435173
0.381379
0.394142
0.407626
0.419633
0.428132
0.433258
0.435841
0.436503
0.436513
0.436469
0.436322
0.436389
0.43652
0.436441
0.436455
0.436513
0.436508
0.436486
0.436375
0.436301
0.436398
0.436481
0.436445
0.436296
0.436297
0.436438
0.436414
0.436418
0.436426
0.436432
0.436454
0.436445
0.436371
0.436346
0.436342
0.436309
0.436243
0.436175
0.436104
0.436045
0.43598
0.435858
0.43557
0.435392
0.435292
0.435243
0.435201
0.435172
0.435109
0.434936
0.434849
0.434977
0.435056
0.435028
0.434943
0.434943
0.435298
0.435412
0.435378
0.435376
0.435329
0.435182
0.435163
0.435321
0.435345
0.435305
0.435311
0.435327
0.435344
0.435347
0.435298
0.435156
0.435156
0.435367
0.435437
0.435404
0.435323
0.435261
0.435225
0.435166
0.435272
0.435385
0.435386
0.435386
0.435315
0.435326
0.4353
0.435277
0.435227
0.435064
0.38138
0.394138
0.407601
0.419672
0.428107
0.433313
0.435884
0.436437
0.436324
0.436415
0.436516
0.436496
0.436493
0.436286
0.436313
0.436436
0.436321
0.436284
0.43638
0.436437
0.436356
0.436446
0.436593
0.436441
0.436523
0.436688
0.43666
0.436659
0.436633
0.43662
0.43657
0.436566
0.436496
0.436457
0.436427
0.436412
0.43635
0.43624
0.436073
0.435905
0.435809
0.435696
0.43555
0.435465
0.435398
0.435319
0.435151
0.434946
0.435044
0.43527
0.435264
0.435232
0.435223
0.435164
0.435053
0.435223
0.435372
0.435182
0.435217
0.435385
0.43525
0.435324
0.435496
0.435498
0.435498
0.435411
0.435409
0.435388
0.435345
0.435191
0.435241
0.435519
0.435568
0.435581
0.435553
0.435521
0.435491
0.435465
0.435381
0.435356
0.435334
0.43521
0.435161
0.435335
0.435402
0.435355
0.435225
0.435174
0.435197
0.435065
0.381382
0.39413
0.407654
0.41959
0.428153
0.433341
0.435721
0.436339
0.43634
0.436232
0.436246
0.436341
0.436316
0.436323
0.436314
0.43631
0.43628
0.436247
0.436237
0.436402
0.436508
0.436474
0.436344
0.436381
0.43651
0.436398
0.436384
0.436401
0.436381
0.43635
0.436345
0.436342
0.436334
0.436255
0.436179
0.435952
0.435707
0.435717
0.435774
0.435749
0.435747
0.435713
0.435712
0.435678
0.435631
0.435589
0.435532
0.435415
0.435115
0.434916
0.435031
0.435119
0.435111
0.435108
0.43493
0.43491
0.435249
0.435375
0.435226
0.435271
0.435422
0.435278
0.435346
0.435558
0.435562
0.435514
0.435316
0.435354
0.435415
0.435219
0.435273
0.435399
0.435197
0.435223
0.435417
0.43542
0.435383
0.435209
0.435201
0.435415
0.435486
0.435463
0.43547
0.435421
0.43529
0.435175
0.435201
0.435234
0.435185
0.435021
0.381339
0.394221
0.40758
0.419577
0.428248
0.433389
0.435589
0.435999
0.435984
0.435872
0.435899
0.435997
0.435946
0.435942
0.435911
0.435911
0.435818
0.435934
0.436169
0.436094
0.436092
0.436056
0.436189
0.43657
0.436669
0.436604
0.43665
0.436659
0.436586
0.436589
0.43653
0.436491
0.436494
0.436488
0.436412
0.436359
0.436262
0.436162
0.436072
0.435984
0.43584
0.435747
0.435632
0.435485
0.435377
0.435141
0.435006
0.434947
0.434954
0.434944
0.434788
0.434822
0.435386
0.435583
0.435465
0.435502
0.435771
0.435824
0.43581
0.435808
0.435724
0.435693
0.435646
0.435495
0.435558
0.43564
0.43563
0.435629
0.435523
0.435516
0.435471
0.435562
0.43562
0.43557
0.435433
0.435377
0.435387
0.435368
0.43539
0.435343
0.435326
0.435351
0.435354
0.435276
0.435284
0.435245
0.435158
0.435146
0.435105
0.434965
0.381389
0.39414
0.407564
0.419612
0.428392
0.433374
0.435121
0.435283
0.435274
0.435486
0.435752
0.435738
0.435715
0.435562
0.435513
0.435721
0.43586
0.435838
0.435755
0.435748
0.436144
0.436595
0.436493
0.436604
0.43671
0.436673
0.436641
0.436623
0.436632
0.436593
0.436585
0.436568
0.43656
0.43649
0.436385
0.436166
0.435906
0.435822
0.435766
0.435713
0.435671
0.435634
0.435594
0.435545
0.435443
0.435188
0.435068
0.435053
0.434973
0.435056
0.435141
0.4351
0.435121
0.435101
0.43506
0.434893
0.434859
0.434926
0.434996
0.434967
0.434827
0.434911
0.434981
0.434954
0.43492
0.434824
0.434942
0.435003
0.434994
0.434979
0.435061
0.435181
0.435272
0.435444
0.435439
0.435429
0.435317
0.435211
0.435195
0.435178
0.435312
0.435403
0.435362
0.435269
0.435208
0.435196
0.435038
0.435039
0.435152
0.435021
0.381391
0.394099
0.407685
0.419541
0.428203
0.433416
0.435719
0.436179
0.436179
0.436164
0.436028
0.435981
0.436118
0.436202
0.436253
0.436284
0.436251
0.436222
0.436223
0.436153
0.43619
0.436437
0.436426
0.43653
0.436675
0.436595
0.436603
0.4366
0.436612
0.436613
0.436601
0.436492
0.436399
0.43629
0.43622
0.436162
0.436048
0.435985
0.435923
0.435874
0.435795
0.435737
0.435663
0.43561
0.435564
0.435472
0.435275
0.435006
0.434946
0.434994
0.434999
0.434969
0.43486
0.435086
0.435516
0.435511
0.435449
0.435484
0.435664
0.435611
0.435645
0.435651
0.435529
0.435601
0.435742
0.435708
0.435707
0.435673
0.43565
0.435522
0.435485
0.435356
0.43538
0.43556
0.435481
0.435595
0.435724
0.43556
0.435643
0.435772
0.435788
0.435751
0.435679
0.435599
0.435533
0.435483
0.435375
0.435351
0.435303
0.435099
0.381383
0.394128
0.407624
0.419638
0.428118
0.433413
0.435753
0.436156
0.436294
0.436408
0.436234
0.436299
0.436363
0.43633
0.436271
0.436219
0.436368
0.43643
0.436341
0.436418
0.436611
0.436607
0.436584
0.43667
0.436861
0.436702
0.436779
0.436821
0.436751
0.436772
0.436728
0.436691
0.436658
0.436642
0.436546
0.436329
0.436177
0.436066
0.435892
0.435535
0.435391
0.435349
0.435308
0.435325
0.435334
0.435302
0.43516
0.435054
0.435156
0.435239
0.435216
0.435199
0.435027
0.435133
0.43558
0.435826
0.435826
0.435669
0.435761
0.435843
0.435802
0.435703
0.435652
0.435703
0.435667
0.435677
0.435669
0.435605
0.435506
0.435493
0.43546
0.435594
0.435735
0.435561
0.435636
0.435796
0.435786
0.435768
0.435544
0.43558
0.435647
0.435466
0.435538
0.435612
0.435605
0.435599
0.435409
0.435379
0.435333
0.43515
0.381402
0.394126
0.407517
0.419726
0.428309
0.433315
0.435322
0.435666
0.435644
0.435518
0.435569
0.435669
0.435646
0.435576
0.435585
0.435874
0.435865
0.435966
0.436398
0.436461
0.436524
0.436617
0.436608
0.436577
0.436547
0.436539
0.436437
0.436511
0.436586
0.436491
0.436443
0.436438
0.436432
0.436359
0.436351
0.436341
0.436311
0.436189
0.435902
0.435667
0.435546
0.435266
0.435203
0.435213
0.43514
0.435136
0.435072
0.435105
0.435124
0.435075
0.43507
0.435062
0.434969
0.434984
0.434997
0.434866
0.434845
0.434931
0.434903
0.43502
0.435098
0.435087
0.435051
0.435065
0.435314
0.435324
0.43537
0.435403
0.435368
0.435198
0.435222
0.435349
0.435337
0.43534
0.435356
0.435369
0.435332
0.435263
0.435206
0.435319
0.435356
0.435344
0.435334
0.435155
0.435128
0.435303
0.435402
0.435383
0.435361
0.435171
0.381357
0.394174
0.407613
0.419542
0.428318
0.433353
0.435614
0.436018
0.436029
0.436059
0.435992
0.436001
0.436
0.436109
0.436171
0.436102
0.436098
0.436005
0.436098
0.436295
0.436257
0.436275
0.436218
0.436349
0.43643
0.436311
0.43642
0.436642
0.43664
0.436637
0.436602
0.436559
0.436388
0.436299
0.436219
0.436141
0.436076
0.436006
0.435948
0.435883
0.43575
0.435649
0.435577
0.435498
0.435334
0.435161
0.435018
0.434963
0.434924
0.434876
0.43473
0.434828
0.435072
0.4351
0.435064
0.434974
0.434958
0.434865
0.43474
0.434799
0.434891
0.434985
0.435096
0.434943
0.435012
0.43518
0.435191
0.435194
0.435127
0.434994
0.435043
0.435153
0.434993
0.43507
0.435222
0.435106
0.435029
0.435137
0.435265
0.435227
0.435086
0.435056
0.435216
0.435202
0.435216
0.435359
0.435415
0.435402
0.435383
0.435097
0.381387
0.39411
0.407665
0.419568
0.428184
0.433426
0.435707
0.436098
0.43598
0.436047
0.436261
0.43611
0.436104
0.436352
0.43642
0.436325
0.436428
0.436538
0.436383
0.436475
0.436562
0.436395
0.436442
0.436655
0.436598
0.436699
0.436795
0.436728
0.436743
0.436758
0.436766
0.436727
0.436644
0.436573
0.436465
0.43623
0.436044
0.435943
0.435825
0.435737
0.435671
0.435611
0.435577
0.435546
0.435513
0.435464
0.43536
0.435109
0.434865
0.434897
0.435004
0.434968
0.434837
0.434826
0.435047
0.435082
0.43503
0.434846
0.434814
0.434943
0.435019
0.435013
0.434934
0.434989
0.434981
0.43512
0.435245
0.435219
0.435217
0.435202
0.435204
0.435153
0.434989
0.435006
0.435324
0.435381
0.435339
0.435203
0.435268
0.435345
0.435343
0.43534
0.435122
0.435086
0.435263
0.435304
0.435281
0.435297
0.435241
0.435041
0.38138
0.394138
0.4076
0.419675
0.428106
0.433327
0.435869
0.436472
0.436474
0.436443
0.436361
0.436327
0.436225
0.436308
0.436487
0.436329
0.436298
0.436438
0.436502
0.436417
0.436514
0.436655
0.436494
0.436553
0.436766
0.436698
0.43674
0.43675
0.436722
0.436725
0.436685
0.436624
0.436598
0.436566
0.43651
0.436384
0.436235
0.436084
0.435985
0.43591
0.435846
0.435793
0.435724
0.435681
0.435603
0.435422
0.435346
0.435182
0.435133
0.435109
0.435067
0.434962
0.434927
0.43533
0.435559
0.43566
0.435835
0.435855
0.43582
0.435757
0.435749
0.435629
0.435717
0.435786
0.435692
0.435719
0.435685
0.435647
0.435594
0.435559
0.435497
0.435482
0.435438
0.435473
0.435486
0.435398
0.435364
0.43536
0.435343
0.43545
0.435515
0.435498
0.435491
0.435313
0.435377
0.435496
0.435495
0.435496
0.43543
0.435202
0.381382
0.394128
0.407624
0.419638
0.428117
0.433413
0.435754
0.436159
0.436298
0.436412
0.436225
0.436283
0.43641
0.436377
0.436379
0.436284
0.436351
0.436439
0.436399
0.436417
0.436356
0.436439
0.436695
0.436559
0.436632
0.436848
0.43687
0.43683
0.436767
0.436761
0.436766
0.436744
0.436604
0.436512
0.436429
0.436278
0.436169
0.43607
0.435911
0.435545
0.435394
0.435385
0.435447
0.43542
0.435372
0.435349
0.435152
0.435053
0.435168
0.435237
0.435206
0.43517
0.435024
0.435204
0.435523
0.435394
0.43543
0.435719
0.435753
0.435727
0.435722
0.43566
0.435597
0.4354
0.435382
0.435507
0.435497
0.435543
0.435568
0.435531
0.435376
0.43541
0.435565
0.435447
0.435541
0.435623
0.435508
0.435551
0.435563
0.435532
0.435503
0.435437
0.43526
0.435172
0.435216
0.435167
0.435285
0.435395
0.435348
0.435173
0.381392
0.394097
0.407688
0.419538
0.428207
0.433432
0.435642
0.436228
0.436226
0.436111
0.436166
0.436239
0.436151
0.436085
0.436191
0.436385
0.436329
0.436332
0.436335
0.436254
0.436307
0.436551
0.436608
0.436578
0.436531
0.436532
0.436492
0.436392
0.436362
0.436483
0.4365
0.436464
0.436443
0.436461
0.436422
0.436377
0.436366
0.436318
0.436219
0.435998
0.435785
0.435679
0.435588
0.435519
0.435474
0.435386
0.435191
0.43493
0.434985
0.43511
0.435094
0.435088
0.434948
0.435163
0.435514
0.435527
0.435547
0.435488
0.435673
0.435796
0.435774
0.435757
0.435585
0.435642
0.435722
0.435667
0.435667
0.43568
0.435677
0.435576
0.435463
0.435562
0.435653
0.435648
0.435648
0.435612
0.435595
0.435403
0.435342
0.435516
0.435645
0.435627
0.43561
0.435576
0.435546
0.435501
0.435368
0.435362
0.435314
0.43513
0.381395
0.394128
0.407572
0.419626
0.428358
0.433335
0.4353
0.435568
0.435538
0.435495
0.435607
0.435824
0.435793
0.435809
0.435774
0.435653
0.435674
0.435908
0.435927
0.435881
0.43594
0.436377
0.436536
0.436507
0.436395
0.43645
0.436521
0.436318
0.436376
0.436471
0.43647
0.436467
0.436417
0.4364
0.436363
0.436327
0.436154
0.436095
0.435983
0.435721
0.435556
0.435499
0.435449
0.435301
0.435314
0.435341
0.435146
0.435202
0.43527
0.435074
0.435084
0.435222
0.435214
0.435216
0.435209
0.435248
0.435257
0.43521
0.435074
0.434917
0.435048
0.43521
0.435206
0.435204
0.435037
0.435145
0.435341
0.435265
0.43533
0.435347
0.435316
0.435312
0.435172
0.435238
0.435462
0.435302
0.435362
0.435498
0.435305
0.435356
0.435504
0.4355
0.435494
0.435399
0.435299
0.435379
0.435512
0.43549
0.435482
0.435243
0.381388
0.394186
0.407541
0.419565
0.428442
0.433209
0.435411
0.435884
0.435882
0.435845
0.43588
0.435889
0.435843
0.435712
0.435713
0.435942
0.435898
0.436005
0.436076
0.436052
0.435979
0.435988
0.436418
0.436553
0.436538
0.436542
0.436478
0.436441
0.43629
0.436321
0.436333
0.436293
0.436283
0.436225
0.436163
0.4361
0.43597
0.435901
0.435841
0.435767
0.435676
0.435618
0.435559
0.435515
0.435475
0.435425
0.435269
0.435276
0.435291
0.435277
0.435272
0.435144
0.434972
0.434983
0.435016
0.434952
0.43492
0.434995
0.435341
0.435448
0.435443
0.435438
0.435258
0.435311
0.435395
0.435368
0.43533
0.435246
0.435248
0.435223
0.435191
0.435327
0.435435
0.435432
0.43543
0.435249
0.435311
0.435457
0.435452
0.435452
0.435422
0.435409
0.435223
0.435277
0.435355
0.435309
0.435192
0.435147
0.435167
0.43501
0.381379
0.394195
0.407545
0.419554
0.428439
0.433221
0.435431
0.435857
0.435695
0.435668
0.435756
0.435826
0.435784
0.435605
0.435614
0.436012
0.436144
0.436107
0.436009
0.435955
0.43616
0.436228
0.436217
0.436197
0.43632
0.436454
0.436416
0.436405
0.436404
0.436402
0.436334
0.43619
0.436076
0.436024
0.435879
0.435833
0.435854
0.435848
0.435819
0.43581
0.435789
0.435751
0.435707
0.435638
0.435423
0.435244
0.435174
0.43514
0.435073
0.434852
0.434868
0.435063
0.434975
0.43508
0.435488
0.435574
0.435547
0.435485
0.435445
0.435419
0.435334
0.435415
0.43549
0.435457
0.435454
0.435452
0.435441
0.435282
0.435325
0.4355
0.435491
0.435444
0.435445
0.435427
0.435259
0.435244
0.435345
0.435306
0.435357
0.435369
0.435304
0.435301
0.435291
0.435299
0.435306
0.435295
0.435109
0.435154
0.435244
0.435055
0.381382
0.394131
0.407618
0.419644
0.428123
0.433355
0.435822
0.436366
0.43636
0.436283
0.436245
0.436309
0.436228
0.436326
0.436486
0.436477
0.436479
0.436425
0.436439
0.436388
0.436395
0.436397
0.436315
0.436413
0.436608
0.436428
0.436504
0.436597
0.436481
0.436522
0.436525
0.436464
0.436332
0.436224
0.436135
0.436054
0.435996
0.435883
0.435831
0.435778
0.435729
0.435686
0.435609
0.435515
0.435288
0.435156
0.435189
0.435193
0.435169
0.435298
0.43545
0.435382
0.435403
0.435409
0.43539
0.435243
0.435162
0.435213
0.435345
0.435331
0.435286
0.435299
0.435359
0.435334
0.435294
0.435184
0.435214
0.435325
0.435312
0.435246
0.435277
0.435486
0.435482
0.435544
0.435559
0.435529
0.435521
0.435388
0.435388
0.435398
0.435378
0.435371
0.43519
0.435274
0.435432
0.435419
0.435418
0.435356
0.435295
0.435098
0.381376
0.39415
0.407611
0.419667
0.428069
0.433335
0.435802
0.436371
0.436486
0.436446
0.43627
0.436312
0.436451
0.436375
0.436371
0.436357
0.436371
0.436369
0.436492
0.436711
0.436692
0.436714
0.436704
0.43653
0.436574
0.436673
0.436592
0.436576
0.436541
0.436541
0.436544
0.436497
0.436478
0.436427
0.436316
0.436266
0.436175
0.436109
0.436038
0.435885
0.435823
0.435783
0.435709
0.435542
0.435466
0.435418
0.43534
0.435295
0.435206
0.435184
0.43512
0.435215
0.435351
0.435334
0.435331
0.435224
0.435303
0.435429
0.435421
0.43544
0.435402
0.435315
0.435218
0.435213
0.435196
0.435282
0.43548
0.435393
0.435507
0.435604
0.435607
0.435608
0.435413
0.435432
0.435642
0.435658
0.435631
0.435642
0.435605
0.435529
0.435493
0.435452
0.43545
0.435417
0.435366
0.435202
0.435222
0.435275
0.435228
0.435072
0.381347
0.394195
0.40762
0.419536
0.428244
0.433447
0.435522
0.435902
0.43589
0.435877
0.43586
0.435719
0.435754
0.435784
0.43563
0.435713
0.435971
0.436008
0.435978
0.435867
0.43599
0.43613
0.436247
0.436333
0.436196
0.436273
0.436308
0.436257
0.436159
0.436046
0.436108
0.43614
0.436081
0.435873
0.43588
0.435897
0.435806
0.435828
0.435789
0.435747
0.435746
0.435706
0.435628
0.435451
0.435273
0.435125
0.435082
0.435038
0.434887
0.434929
0.43515
0.435148
0.435209
0.435229
0.435205
0.435198
0.435031
0.435088
0.435403
0.435325
0.435426
0.43551
0.435414
0.435423
0.435412
0.435277
0.435301
0.435424
0.435353
0.435377
0.43534
0.4352
0.435218
0.435336
0.435269
0.435211
0.435303
0.435418
0.435382
0.435253
0.435304
0.435436
0.435294
0.435359
0.435388
0.435355
0.435259
0.435286
0.43533
0.435132
0.381383
0.394124
0.407634
0.419608
0.428173
0.433324
0.435789
0.436413
0.43648
0.436446
0.436265
0.436343
0.436455
0.436298
0.436252
0.436268
0.43617
0.436226
0.436416
0.436274
0.436267
0.436383
0.436332
0.43645
0.436637
0.436602
0.436602
0.436584
0.436581
0.436504
0.436245
0.436215
0.436227
0.436159
0.436144
0.436113
0.436106
0.43607
0.43604
0.435962
0.43585
0.435769
0.435672
0.435482
0.435364
0.435311
0.435218
0.435164
0.435061
0.43493
0.435101
0.435359
0.435339
0.435343
0.435329
0.435203
0.435226
0.435276
0.435179
0.43517
0.435163
0.435182
0.435108
0.435166
0.435227
0.435068
0.435143
0.435236
0.435125
0.435081
0.435255
0.435508
0.435486
0.43549
0.43549
0.435454
0.435431
0.435403
0.435368
0.435346
0.435226
0.435284
0.435407
0.435354
0.435384
0.435344
0.435159
0.435195
0.435274
0.435066
0.381387
0.394123
0.407558
0.41966
0.428385
0.433336
0.435172
0.435407
0.435306
0.435389
0.435728
0.435735
0.4357
0.435653
0.435564
0.435734
0.435962
0.435865
0.435843
0.436059
0.436235
0.436093
0.436149
0.436406
0.436338
0.43645
0.436632
0.436635
0.436634
0.436566
0.436555
0.436498
0.436471
0.436379
0.436159
0.436055
0.436
0.435931
0.435815
0.435761
0.435726
0.435724
0.435728
0.435702
0.435666
0.435463
0.435302
0.435384
0.435452
0.435356
0.435392
0.435402
0.43535
0.435216
0.435085
0.435149
0.435242
0.435197
0.43503