/*--------------------------------*- C++ -*----------------------------------*\
  =========                 |
  \\      /  F ield         | OpenFOAM: The Open Source CFD Toolbox
   \\    /   O peration     | Website:  https://openfoam.org
    \\  /    A nd           | Version:  11
     \\/     M anipulation  |
\*---------------------------------------------------------------------------*/
FoamFile
{
    format      ascii;
    class       volScalarField;
    location    "0.078";
    object      nut;
}
// * * * * * * * * * * * * * * * * * * * * * * * * * * * * * * * * * * * * * //

dimensions      [0 2 -1 0 0 0 0];

internalField   nonuniform List<scalar> 
287084
(
0.000836081
0.000864946
0.000896145
0.000924647
0.00094568
0.000957981
0.000962814
0.000963842
0.000964197
0.000964361
0.000964391
0.000964255
0.000964476
0.000964827
0.000964763
0.00096473
0.000964624
0.000964508
0.000964263
0.000964014
0.000963935
0.000963862
0.000964101
0.000964642
0.0009646
0.000964524
0.000964311
0.000964145
0.000964273
0.000964372
0.000964626
0.000964875
0.000964868
0.000965201
0.000965447
0.000965559
0.000965562
0.000965655
0.000965755
0.000965818
0.000965712
0.000965778
0.000965726
0.000965796
0.000965855
0.000965988
0.00096609
0.00096594
0.000965961
0.000965792
0.000965681
0.000966054
0.000966517
0.000966502
0.000966521
0.000966302
0.000966215
0.000966131
0.000965685
0.000965709
0.00096601
0.000965993
0.00096597
0.000965696
0.000966012
0.000966376
0.000966364
0.000966324
0.000965909
0.00096602
0.000966166
0.000966076
0.000966029
0.000965721
0.000965883
0.000966186
0.000966002
0.000966103
0.000966131
0.000966079
0.000966047
0.000965657
0.000965731
0.000966213
0.000966239
0.000966237
0.000966095
0.000965984
0.000965822
0.000965267
0.00118182
0.00122138
0.00126331
0.00130134
0.00132931
0.00134557
0.00135162
0.00135232
0.00135228
0.00135294
0.0013536
0.00135324
0.00135342
0.00135346
0.00135332
0.00135317
0.00135256
0.00135218
0.0013522
0.00135215
0.00135171
0.00135163
0.00135267
0.00135329
0.00135315
0.00135324
0.0013533
0.00135327
0.0013533
0.00135324
0.00135319
0.00135274
0.00135307
0.00135355
0.0013533
0.00135372
0.00135405
0.00135415
0.00135398
0.00135411
0.00135473
0.00135507
0.00135518
0.00135507
0.00135496
0.00135501
0.00135497
0.00135544
0.00135598
0.00135602
0.00135605
0.00135574
0.00135576
0.00135566
0.00135534
0.00135507
0.00135501
0.00135513
0.0013551
0.00135505
0.00135455
0.00135455
0.00135539
0.00135547
0.00135533
0.00135489
0.00135473
0.0013553
0.00135551
0.00135536
0.00135495
0.00135505
0.00135562
0.00135549
0.00135551
0.00135542
0.00135529
0.00135519
0.00135516
0.00135473
0.00135488
0.00135504
0.00135494
0.00135468
0.00135466
0.00135498
0.00135474
0.00135474
0.00135471
0.00135418
0.00118187
0.00122155
0.00126345
0.00130168
0.00132926
0.00134545
0.00135234
0.00135354
0.00135351
0.00135357
0.00135355
0.00135312
0.00135318
0.00135325
0.00135308
0.00135301
0.00135259
0.00135293
0.00135313
0.00135295
0.00135282
0.00135229
0.00135217
0.00135304
0.00135324
0.00135304
0.00135307
0.00135319
0.00135333
0.00135335
0.00135359
0.00135366
0.00135381
0.001354
0.00135431
0.00135446
0.00135464
0.0013547
0.00135434
0.00135435
0.00135457
0.00135436
0.00135479
0.00135526
0.00135538
0.00135554
0.00135513
0.00135514
0.00135583
0.00135613
0.00135607
0.0013561
0.00135606
0.00135605
0.00135573
0.00135553
0.00135535
0.0013551
0.00135513
0.00135512
0.00135478
0.00135502
0.00135529
0.00135512
0.00135511
0.00135485
0.00135544
0.00135588
0.00135569
0.00135572
0.00135569
0.00135571
0.00135555
0.00135517
0.00135491
0.00135469
0.00135457
0.00135441
0.00135458
0.00135467
0.00135431
0.00135413
0.00135448
0.00135493
0.0013546
0.00135487
0.00135503
0.00135502
0.001355
0.00135416
0.00118182
0.00122168
0.00126381
0.00130182
0.00132944
0.0013458
0.00135283
0.00135404
0.00135403
0.00135374
0.0013538
0.00135415
0.00135401
0.00135379
0.00135305
0.00135287
0.00135309
0.00135273
0.00135291
0.00135308
0.00135261
0.00135252
0.00135244
0.001352
0.00135215
0.00135238
0.00135237
0.00135243
0.00135194
0.00135221
0.00135326
0.00135356
0.00135368
0.00135399
0.00135428
0.00135452
0.00135481
0.00135496
0.00135502
0.00135501
0.00135514
0.00135526
0.00135538
0.00135542
0.00135545
0.00135512
0.00135542
0.00135572
0.00135569
0.00135551
0.00135529
0.00135556
0.00135575
0.00135562
0.00135563
0.00135565
0.00135565
0.00135539
0.00135502
0.00135545
0.00135591
0.00135571
0.00135567
0.00135559
0.00135518
0.00135493
0.0013551
0.00135482
0.00135479
0.00135543
0.00135571
0.00135547
0.00135544
0.00135541
0.00135522
0.00135478
0.00135502
0.0013557
0.0013554
0.00135548
0.00135564
0.00135551
0.00135502
0.00135514
0.00135536
0.00135521
0.0013549
0.00135477
0.0013548
0.00135421
0.00118182
0.00122179
0.00126396
0.00130173
0.00132985
0.00134607
0.00135212
0.00135393
0.00135398
0.00135384
0.00135372
0.00135336
0.00135352
0.0013535
0.0013533
0.00135321
0.00135291
0.00135221
0.00135223
0.00135235
0.00135212
0.00135201
0.00135165
0.0013521
0.00135247
0.00135223
0.00135228
0.0013524
0.00135237
0.00135269
0.00135307
0.0013531
0.00135337
0.00135365
0.001354
0.00135411
0.00135372
0.001354
0.00135488
0.00135526
0.00135554
0.00135572
0.00135595
0.00135605
0.00135623
0.00135628
0.00135634
0.00135636
0.00135645
0.0013564
0.00135593
0.00135575
0.00135565
0.00135539
0.00135527
0.00135514
0.0013551
0.00135466
0.00135485
0.00135525
0.00135513
0.00135509
0.00135473
0.00135468
0.00135461
0.00135459
0.00135428
0.00135453
0.00135496
0.0013547
0.00135466
0.00135449
0.00135503
0.00135575
0.00135544
0.00135567
0.00135575
0.00135541
0.00135546
0.0013556
0.00135554
0.00135555
0.00135551
0.00135524
0.0013545
0.00135455
0.00135494
0.00135494
0.00135493
0.00135425
0.00118184
0.00122177
0.00126387
0.00130209
0.00133017
0.00134565
0.00135149
0.0013528
0.00135388
0.00135389
0.00135356
0.00135346
0.00135336
0.00135317
0.00135254
0.00135212
0.00135228
0.0013527
0.0013525
0.00135232
0.00135221
0.00135198
0.00135147
0.00135154
0.00135195
0.00135187
0.00135166
0.00135198
0.00135273
0.00135285
0.00135302
0.00135329
0.00135359
0.0013537
0.00135357
0.00135362
0.00135388
0.0013538
0.00135432
0.00135492
0.00135491
0.00135524
0.00135563
0.00135573
0.00135584
0.0013559
0.00135549
0.00135526
0.00135553
0.00135585
0.00135585
0.00135588
0.00135554
0.00135549
0.00135585
0.00135602
0.00135593
0.00135587
0.00135549
0.00135543
0.00135567
0.0013556
0.00135557
0.00135544
0.00135534
0.00135488
0.00135518
0.00135578
0.0013555
0.00135567
0.00135572
0.0013556
0.00135551
0.00135503
0.0013549
0.00135473
0.00135501
0.00135546
0.00135518
0.00135529
0.0013553
0.00135516
0.00135463
0.00135466
0.0013551
0.00135498
0.00135512
0.00135515
0.001355
0.00135438
0.00118179
0.00122179
0.00126397
0.0013021
0.00133035
0.00134543
0.00135221
0.00135358
0.00135345
0.00135336
0.00135321
0.00135262
0.00135251
0.00135337
0.00135311
0.00135295
0.00135371
0.00135413
0.00135374
0.0013536
0.0013537
0.00135363
0.00135337
0.00135273
0.00135272
0.00135303
0.00135304
0.00135315
0.00135319
0.00135337
0.00135335
0.00135353
0.00135365
0.00135342
0.00135387
0.00135435
0.00135463
0.00135492
0.00135455
0.00135501
0.00135558
0.00135574
0.00135581
0.00135558
0.00135583
0.0013561
0.00135616
0.00135624
0.00135619
0.00135618
0.00135607
0.00135553
0.00135568
0.00135589
0.00135577
0.00135575
0.00135554
0.00135548
0.00135518
0.0013555
0.00135575
0.00135569
0.00135564
0.00135533
0.00135524
0.0013548
0.00135499
0.00135528
0.00135516
0.00135498
0.0013547
0.00135484
0.00135503
0.00135492
0.00135466
0.00135491
0.00135525
0.00135511
0.00135511
0.00135505
0.00135457
0.00135461
0.00135514
0.00135514
0.00135503
0.00135477
0.00135455
0.0013548
0.00135494
0.00135443
0.00118184
0.0012217
0.00126425
0.00130205
0.00132943
0.00134606
0.00135367
0.0013558
0.00135597
0.00135577
0.00135515
0.00135526
0.00135534
0.00135503
0.00135479
0.00135456
0.00135445
0.00135429
0.0013541
0.00135331
0.00135327
0.00135352
0.00135306
0.00135315
0.00135332
0.00135329
0.00135331
0.00135334
0.00135344
0.00135367
0.00135375
0.00135396
0.00135428
0.00135464
0.00135492
0.00135516
0.00135526
0.001355
0.00135487
0.00135555
0.00135607
0.00135627
0.00135645
0.00135649
0.00135655
0.00135633
0.00135652
0.00135675
0.00135668
0.00135675
0.00135673
0.00135611
0.00135604
0.00135664
0.00135673
0.00135658
0.00135609
0.00135627
0.00135654
0.00135636
0.0013564
0.00135638
0.00135638
0.00135625
0.00135611
0.00135586
0.00135531
0.0013549
0.00135493
0.00135475
0.00135501
0.00135557
0.00135555
0.00135552
0.00135521
0.00135487
0.00135526
0.00135573
0.0013557
0.00135568
0.00135556
0.00135549
0.00135478
0.00135493
0.00135539
0.00135534
0.00135534
0.00135514
0.00135494
0.00135427
0.00118183
0.00122177
0.001264
0.00130228
0.00132994
0.00134595
0.0013526
0.00135376
0.00135366
0.00135345
0.00135277
0.00135254
0.00135357
0.00135408
0.00135349
0.00135351
0.00135343
0.00135284
0.00135298
0.00135362
0.00135311
0.00135324
0.00135327
0.00135262
0.00135278
0.0013532
0.00135291
0.0013532
0.00135358
0.00135368
0.00135399
0.00135433
0.00135465
0.0013547
0.00135469
0.0013549
0.00135503
0.00135529
0.00135543
0.00135522
0.00135518
0.00135551
0.0013558
0.00135587
0.00135632
0.00135673
0.00135642
0.00135678
0.00135704
0.00135709
0.00135713
0.00135687
0.00135687
0.00135679
0.00135666
0.0013562
0.0013555
0.00135564
0.00135592
0.00135582
0.00135574
0.00135523
0.00135553
0.00135585
0.00135566
0.00135559
0.00135544
0.00135537
0.00135482
0.001355
0.00135595
0.00135595
0.00135583
0.00135584
0.00135568
0.00135536
0.00135485
0.00135514
0.00135584
0.0013555
0.00135575
0.00135589
0.00135578
0.00135571
0.00135532
0.00135518
0.00135493
0.00135481
0.00135467
0.00135418
0.00118196
0.00122146
0.00126419
0.00130235
0.00132994
0.00134595
0.00135224
0.00135311
0.00135266
0.00135249
0.00135323
0.00135362
0.00135337
0.00135309
0.00135244
0.00135234
0.00135216
0.00135227
0.00135248
0.00135218
0.00135172
0.00135144
0.00135149
0.00135127
0.00135153
0.00135168
0.00135167
0.00135156
0.00135193
0.00135271
0.00135272
0.00135308
0.00135342
0.0013536
0.00135388
0.00135424
0.00135441
0.00135475
0.0013552
0.00135562
0.00135578
0.00135613
0.00135641
0.00135663
0.00135672
0.00135639
0.00135584
0.00135574
0.00135571
0.00135571
0.00135535
0.00135544
0.00135568
0.0013556
0.00135548
0.00135503
0.00135502
0.001355
0.00135461
0.00135473
0.00135572
0.00135584
0.00135563
0.00135556
0.00135551
0.00135536
0.00135463
0.00135446
0.00135508
0.00135519
0.00135513
0.00135509
0.00135473
0.00135447
0.00135455
0.00135458
0.00135422
0.0013544
0.00135527
0.00135528
0.00135513
0.00135488
0.00135457
0.00135504
0.00135551
0.00135536
0.00135536
0.00135538
0.00135532
0.00135447
0.00118188
0.00122171
0.00126408
0.00130214
0.00133003
0.00134621
0.00135252
0.00135337
0.00135292
0.00135305
0.00135337
0.00135313
0.00135277
0.00135247
0.00135255
0.001352
0.00135172
0.00135201
0.00135182
0.00135196
0.00135286
0.0013527
0.00135244
0.00135176
0.00135175
0.00135208
0.00135156
0.00135184
0.00135237
0.00135261
0.00135291
0.00135266
0.00135326
0.00135412
0.00135428
0.00135491
0.0013554
0.0013557
0.00135615
0.00135659
0.00135695
0.00135709
0.00135684
0.00135675
0.00135667
0.00135626
0.0013556
0.00135584
0.00135635
0.00135629
0.00135596
0.0013561
0.00135633
0.00135617
0.00135584
0.00135563
0.00135556
0.00135551
0.00135544
0.00135521
0.00135557
0.0013557
0.0013555
0.001355
0.00135506
0.00135551
0.0013554
0.00135525
0.00135463
0.00135461
0.00135494
0.0013549
0.00135466
0.00135483
0.00135525
0.00135513
0.00135499
0.0013546
0.00135443
0.00135484
0.00135504
0.00135467
0.00135491
0.00135544
0.00135534
0.00135516
0.00135491
0.00135481
0.00135479
0.00135442
0.00118179
0.00122184
0.00126402
0.00130219
0.00133006
0.00134591
0.00135289
0.00135431
0.00135424
0.0013541
0.00135373
0.00135324
0.0013532
0.00135409
0.00135389
0.00135346
0.00135322
0.00135297
0.00135267
0.00135221
0.00135223
0.00135246
0.00135242
0.0013522
0.00135174
0.001352
0.00135267
0.0013526
0.00135281
0.00135316
0.0013536
0.00135381
0.00135421
0.00135467
0.00135508
0.0013555
0.00135599
0.00135641
0.00135666
0.00135664
0.00135661
0.00135663
0.00135658
0.00135606
0.00135567
0.00135583
0.00135617
0.00135617
0.00135594
0.00135589
0.00135559
0.00135573
0.00135642
0.00135627
0.00135644
0.00135645
0.00135625
0.00135623
0.00135621
0.00135615
0.001356
0.00135573
0.00135518
0.0013548
0.00135541
0.00135581
0.00135576
0.0013557
0.00135502
0.00135511
0.00135568
0.00135568
0.0013556
0.00135496
0.00135505
0.00135537
0.00135536
0.00135532
0.00135459
0.00135468
0.0013551
0.00135509
0.00135509
0.00135475
0.00135508
0.0013554
0.00135528
0.00135526
0.00135509
0.00135432
0.00118186
0.00122167
0.00126438
0.00130197
0.00132953
0.00134628
0.00135363
0.0013549
0.00135439
0.00135435
0.00135468
0.00135443
0.00135426
0.00135389
0.00135322
0.00135296
0.00135366
0.00135368
0.0013533
0.00135278
0.00135233
0.0013525
0.0013525
0.00135207
0.00135227
0.00135277
0.00135236
0.00135278
0.00135324
0.00135333
0.00135376
0.00135422
0.00135473
0.0013551
0.00135529
0.00135513
0.00135542
0.00135584
0.00135622
0.0013565
0.00135648
0.00135667
0.00135686
0.00135696
0.00135688
0.00135664
0.00135664
0.00135662
0.00135706
0.0013573
0.00135706
0.00135704
0.00135703
0.00135698
0.00135669
0.00135627
0.00135626
0.00135623
0.00135603
0.00135558
0.00135566
0.00135615
0.00135581
0.001356
0.00135607
0.00135591
0.00135576
0.00135537
0.00135522
0.00135485
0.00135501
0.00135562
0.00135554
0.00135543
0.00135502
0.00135472
0.00135525
0.00135563
0.00135551
0.00135536
0.00135495
0.00135504
0.00135532
0.00135525
0.0013551
0.00135472
0.00135474
0.00135489
0.0013548
0.00135441
0.00118188
0.00122172
0.00126393
0.00130233
0.0013304
0.00134556
0.00135217
0.00135329
0.00135262
0.00135261
0.00135283
0.00135206
0.00135204
0.00135216
0.00135157
0.00135112
0.0013511
0.00135098
0.00135098
0.00135144
0.00135116
0.00135077
0.00135056
0.00135102
0.00135164
0.00135189
0.00135144
0.00135185
0.00135246
0.00135269
0.0013532
0.00135366
0.0013541
0.00135458
0.001355
0.0013553
0.00135558
0.00135537
0.0013557
0.0013562
0.00135626
0.00135668
0.00135722
0.00135741
0.00135763
0.00135769
0.00135713
0.00135709
0.00135756
0.00135764
0.00135753
0.00135748
0.00135724
0.0013565
0.00135646
0.00135643
0.00135623
0.00135578
0.00135569
0.00135615
0.0013561
0.00135591
0.00135526
0.00135529
0.00135553
0.00135533
0.00135525
0.00135489
0.00135479
0.0013547
0.0013551
0.00135572
0.00135565
0.00135549
0.00135527
0.0013551
0.0013546
0.00135443
0.00135479
0.00135467
0.00135471
0.00135551
0.00135591
0.00135591
0.00135589
0.00135549
0.0013552
0.00135531
0.00135536
0.00135482
0.00118185
0.00122173
0.00126426
0.00130214
0.0013294
0.00134612
0.00135389
0.00135537
0.00135487
0.00135485
0.00135513
0.00135437
0.0013542
0.00135435
0.00135377
0.00135348
0.00135316
0.0013527
0.00135224
0.00135202
0.00135165
0.00135166
0.00135214
0.001352
0.00135187
0.00135221
0.00135248
0.00135225
0.00135275
0.00135319
0.00135338
0.00135402
0.00135462
0.00135518
0.00135586
0.00135639
0.00135683
0.00135718
0.00135722
0.0013573
0.00135743
0.00135734
0.00135661
0.00135645
0.00135668
0.00135682
0.0013569
0.00135686
0.00135687
0.00135679
0.00135661
0.00135644
0.00135602
0.00135616
0.00135665
0.00135632
0.00135637
0.00135649
0.00135635
0.00135624
0.00135569
0.00135571
0.00135625
0.00135615
0.00135597
0.00135572
0.00135607
0.00135618
0.00135598
0.00135567
0.00135524
0.00135538
0.00135547
0.00135528
0.00135495
0.00135468
0.00135529
0.00135562
0.00135546
0.00135517
0.00135485
0.00135488
0.00135474
0.00135506
0.00135524
0.00135509
0.00135467
0.0013546
0.00135477
0.00135418
0.00118183
0.00122196
0.00126397
0.00130196
0.00133027
0.00134565
0.00135277
0.00135415
0.00135406
0.00135389
0.00135328
0.00135314
0.00135307
0.00135265
0.00135198
0.001352
0.00135233
0.00135192
0.00135127
0.00135092
0.00135092
0.0013505
0.00135024
0.00135056
0.00135075
0.00135039
0.00135082
0.00135153
0.0013516
0.00135198
0.00135234
0.00135286
0.00135301
0.00135377
0.00135455
0.0013551
0.00135578
0.0013563
0.00135679
0.00135716
0.00135749
0.00135776
0.00135808
0.00135831
0.00135851
0.00135846
0.00135815
0.0013575
0.0013572
0.00135656
0.00135622
0.00135668
0.00135684
0.00135662
0.00135605
0.00135597
0.00135646
0.00135621
0.00135662
0.00135774
0.00135766
0.00135741
0.00135676
0.00135677
0.00135684
0.00135622
0.00135641
0.0013567
0.0013566
0.00135656
0.00135641
0.0013563
0.00135574
0.00135548
0.00135534
0.00135528
0.00135495
0.00135507
0.00135518
0.00135499
0.00135467
0.00135471
0.0013555
0.00135553
0.00135547
0.00135489
0.00135498
0.00135512
0.00135498
0.00135451
0.00118183
0.00122179
0.00126422
0.0013022
0.00132931
0.00134576
0.00135404
0.00135612
0.00135605
0.00135573
0.00135503
0.00135497
0.00135507
0.00135451
0.00135421
0.00135404
0.00135366
0.00135323
0.00135253
0.00135197
0.00135197
0.00135196
0.00135163
0.00135103
0.00135098
0.00135145
0.00135151
0.00135176
0.00135214
0.00135262
0.00135324
0.00135385
0.00135431
0.00135497
0.00135569
0.00135632
0.00135682
0.00135726
0.00135764
0.00135798
0.00135823
0.00135823
0.00135764
0.00135733
0.0013572
0.00135717
0.00135711
0.00135705
0.00135685
0.00135628
0.00135595
0.00135628
0.00135644
0.00135625
0.00135588
0.00135577
0.00135677
0.00135702
0.0013568
0.00135668
0.00135643
0.00135587
0.00135572
0.00135612
0.00135611
0.0013559
0.00135584
0.00135581
0.0013558
0.00135574
0.00135553
0.00135503
0.00135497
0.00135558
0.00135575
0.00135561
0.00135532
0.00135508
0.00135494
0.00135472
0.00135503
0.00135535
0.00135533
0.00135531
0.00135507
0.00135509
0.00135499
0.00135491
0.00135474
0.00135418
0.00118183
0.00122178
0.00126414
0.00130232
0.00132923
0.00134592
0.00135415
0.0013559
0.00135543
0.00135552
0.00135558
0.00135524
0.00135491
0.00135393
0.00135366
0.00135367
0.00135294
0.00135244
0.00135237
0.00135219
0.00135162
0.00135161
0.00135185
0.00135123
0.00135142
0.00135196
0.00135203
0.00135229
0.00135259
0.00135305
0.00135349
0.00135415
0.00135467
0.00135532
0.00135602
0.00135674
0.00135728
0.00135763
0.00135772
0.00135774
0.00135791
0.00135794
0.0013578
0.00135777
0.00135774
0.00135761
0.00135715
0.00135653
0.00135682
0.00135748
0.0013574
0.00135721
0.00135708
0.00135679
0.00135633
0.00135674
0.00135709
0.00135637
0.00135637
0.00135678
0.00135624
0.00135637
0.0013568
0.00135671
0.00135662
0.00135626
0.00135617
0.00135603
0.00135582
0.00135527
0.00135536
0.00135617
0.00135627
0.00135626
0.00135612
0.00135598
0.00135585
0.00135573
0.00135543
0.00135532
0.00135523
0.00135481
0.00135463
0.00135515
0.00135535
0.00135518
0.00135476
0.00135458
0.00135464
0.00135417
0.00118184
0.00122175
0.0012643
0.00130206
0.00132936
0.00134599
0.00135363
0.00135557
0.00135545
0.00135491
0.00135469
0.00135469
0.00135429
0.00135396
0.00135356
0.00135316
0.00135268
0.00135217
0.00135175
0.00135189
0.00135188
0.00135148
0.00135084
0.0013508
0.00135114
0.00135083
0.00135095
0.00135129
0.00135164
0.00135207
0.00135268
0.00135339
0.00135414
0.00135471
0.0013553
0.0013554
0.0013554
0.00135615
0.00135696
0.00135744
0.00135791
0.0013582
0.00135851
0.00135864
0.00135866
0.00135864
0.00135852
0.00135816
0.0013572
0.00135652
0.00135681
0.00135698
0.00135685
0.00135672
0.00135604
0.00135585
0.00135678
0.00135705
0.00135646
0.00135647
0.00135683
0.00135627
0.00135637
0.00135693
0.00135685
0.00135661
0.0013559
0.00135594
0.00135606
0.00135538
0.00135548
0.00135581
0.00135513
0.00135515
0.00135571
0.00135568
0.00135552
0.00135493
0.00135488
0.00135551
0.0013557
0.0013556
0.0013556
0.00135543
0.001355
0.00135462
0.00135469
0.00135478
0.00135462
0.00135405
0.0011817
0.00122203
0.00126407
0.00130201
0.00132965
0.00134614
0.0013532
0.00135449
0.00135431
0.00135375
0.00135357
0.00135357
0.00135307
0.0013527
0.00135221
0.00135181
0.00135111
0.00135106
0.00135138
0.00135077
0.0013504
0.00134998
0.00135015
0.00135118
0.00135142
0.00135127
0.00135159
0.00135191
0.00135212
0.00135268
0.00135317
0.0013538
0.00135462
0.00135546
0.00135608
0.00135675
0.00135724
0.00135766
0.00135804
0.00135834
0.00135837
0.00135848
0.00135844
0.00135821
0.00135804
0.00135741
0.00135703
0.00135686
0.00135684
0.00135675
0.00135617
0.00135617
0.00135781
0.0013583
0.0013578
0.00135778
0.00135848
0.00135851
0.00135834
0.0013582
0.00135782
0.0013576
0.00135735
0.00135677
0.00135687
0.00135703
0.00135691
0.00135682
0.00135641
0.00135632
0.00135611
0.00135633
0.00135646
0.00135624
0.00135577
0.00135555
0.00135554
0.00135544
0.00135547
0.00135529
0.00135521
0.00135526
0.00135524
0.00135498
0.00135498
0.00135484
0.00135455
0.0013545
0.00135437
0.00135387
0.00118186
0.00122178
0.00126402
0.00130212
0.00133009
0.00134608
0.00135173
0.00135224
0.00135207
0.00135252
0.00135307
0.00135271
0.0013523
0.00135144
0.0013509
0.00135113
0.00135114
0.00135064
0.00134996
0.00134954
0.0013504
0.00135148
0.00135092
0.00135109
0.00135135
0.0013513
0.00135138
0.00135164
0.00135213
0.00135259
0.00135326
0.00135399
0.00135481
0.00135548
0.00135604
0.00135623
0.00135623
0.00135672
0.00135722
0.00135764
0.001358
0.00135829
0.00135848
0.00135856
0.0013584
0.0013577
0.00135737
0.00135732
0.00135702
0.00135721
0.00135738
0.00135714
0.00135707
0.00135687
0.0013566
0.00135594
0.00135569
0.00135576
0.00135585
0.00135562
0.00135506
0.0013552
0.0013553
0.00135511
0.0013549
0.0013545
0.00135478
0.00135489
0.00135478
0.00135465
0.00135485
0.00135516
0.00135538
0.00135586
0.0013558
0.00135572
0.00135532
0.00135495
0.00135487
0.00135478
0.00135517
0.00135542
0.00135527
0.00135495
0.00135475
0.00135469
0.00135419
0.00135417
0.00135451
0.00135405
0.00118187
0.00122165
0.00126439
0.00130189
0.0013295
0.0013462
0.00135358
0.00135501
0.00135487
0.0013546
0.0013539
0.00135343
0.0013535
0.00135338
0.00135313
0.0013528
0.00135226
0.00135173
0.0013513
0.00135067
0.00135041
0.00135085
0.00135055
0.00135071
0.00135109
0.0013509
0.00135112
0.00135145
0.00135196
0.00135257
0.00135325
0.00135372
0.00135431
0.00135488
0.00135557
0.00135628
0.00135676
0.00135733
0.00135782
0.00135826
0.00135851
0.00135873
0.00135882
0.00135889
0.0013589
0.00135871
0.00135813
0.00135727
0.00135704
0.00135711
0.00135702
0.0013568
0.00135633
0.00135689
0.00135809
0.00135793
0.00135758
0.00135755
0.00135797
0.00135767
0.00135764
0.00135754
0.00135704
0.00135715
0.00135748
0.00135728
0.00135718
0.00135699
0.00135684
0.00135636
0.00135618
0.00135571
0.00135572
0.00135623
0.00135593
0.00135624
0.0013566
0.00135605
0.00135627
0.00135664
0.00135665
0.00135651
0.00135626
0.00135599
0.00135576
0.00135559
0.00135524
0.00135514
0.00135499
0.00135429
0.00118184
0.00122174
0.0012642
0.00130219
0.00132923
0.00134618
0.00135367
0.00135493
0.00135521
0.00135534
0.00135451
0.00135439
0.00135422
0.00135374
0.00135313
0.00135253
0.00135256
0.0013523
0.00135158
0.00135139
0.00135161
0.00135126
0.00135093
0.00135102
0.00135155
0.00135112
0.00135157
0.00135205
0.00135232
0.001353
0.0013536
0.00135432
0.00135511
0.00135599
0.00135662
0.00135685
0.00135722
0.00135766
0.00135781
0.00135729
0.00135735
0.00135762
0.00135781
0.0013581
0.00135828
0.00135827
0.00135785
0.00135751
0.00135777
0.00135795
0.00135777
0.00135758
0.00135691
0.00135709
0.00135834
0.00135895
0.0013588
0.00135816
0.0013583
0.00135842
0.00135816
0.00135772
0.00135744
0.00135749
0.00135727
0.0013572
0.00135708
0.00135679
0.0013564
0.00135628
0.00135611
0.00135646
0.00135684
0.00135624
0.00135642
0.00135687
0.00135679
0.0013567
0.00135596
0.00135604
0.00135622
0.00135563
0.00135582
0.00135603
0.00135599
0.00135595
0.00135534
0.00135523
0.00135508
0.00135445
0.0011819
0.00122174
0.00126387
0.00130246
0.00132982
0.00134587
0.00135233
0.00135339
0.00135318
0.00135256
0.00135242
0.00135241
0.00135197
0.00135135
0.00135096
0.00135142
0.00135094
0.0013508
0.00135169
0.00135146
0.00135127
0.00135121
0.00135093
0.00135065
0.00135049
0.00135054
0.00135043
0.00135101
0.00135174
0.00135208
0.00135268
0.00135351
0.0013544
0.00135512
0.00135604
0.00135692
0.00135768
0.00135809
0.0013579
0.00135777
0.00135789
0.00135743
0.00135755
0.00135781
0.00135774
0.00135781
0.00135764
0.00135772
0.00135772
0.00135748
0.00135736
0.0013572
0.00135676
0.00135666
0.00135655
0.00135598
0.00135576
0.00135588
0.00135564
0.00135587
0.00135597
0.00135581
0.00135558
0.0013555
0.00135617
0.0013561
0.00135615
0.00135616
0.00135597
0.00135537
0.00135537
0.0013557
0.0013556
0.00135555
0.00135555
0.00135554
0.00135538
0.00135512
0.00135491
0.00135523
0.00135531
0.00135524
0.00135519
0.00135461
0.0013545
0.00135503
0.00135532
0.00135525
0.00135517
0.00135451
0.00118176
0.00122189
0.00126417
0.00130189
0.00132985
0.00134599
0.00135323
0.00135448
0.00135437
0.00135423
0.00135373
0.00135343
0.00135306
0.001353
0.00135277
0.00135211
0.00135164
0.00135089
0.00135073
0.00135091
0.0013504
0.00135012
0.00134967
0.0013499
0.00135009
0.0013498
0.00135033
0.00135138
0.00135187
0.0013525
0.00135316
0.00135388
0.00135427
0.00135494
0.00135564
0.00135631
0.00135697
0.00135755
0.00135807
0.00135847
0.00135856
0.00135866
0.00135875
0.00135873
0.00135837
0.00135792
0.0013575
0.00135731
0.00135713
0.00135688
0.00135631
0.00135649
0.0013571
0.00135704
0.00135677
0.00135633
0.00135612
0.00135568
0.00135514
0.00135519
0.00135534
0.0013555
0.00135572
0.00135513
0.00135524
0.00135566
0.0013556
0.00135552
0.00135523
0.00135473
0.00135481
0.00135509
0.00135453
0.00135471
0.00135513
0.00135472
0.00135444
0.00135473
0.0013551
0.00135494
0.00135447
0.00135435
0.00135482
0.00135475
0.00135478
0.0013552
0.00135536
0.00135531
0.00135524
0.00135429
0.00118186
0.00122169
0.00126433
0.00130197
0.00132943
0.00134621
0.00135352
0.00135473
0.00135422
0.00135419
0.00135457
0.00135377
0.00135338
0.00135375
0.00135354
0.0013528
0.00135267
0.00135255
0.00135162
0.00135147
0.00135134
0.00135049
0.00135037
0.00135085
0.00135061
0.001351
0.00135149
0.00135164
0.00135219
0.00135288
0.00135367
0.0013544
0.00135506
0.00135579
0.00135641
0.00135659
0.00135687
0.00135735
0.00135769
0.00135802
0.00135832
0.00135854
0.00135875
0.00135888
0.00135893
0.00135887
0.00135857
0.00135776
0.00135694
0.00135695
0.00135717
0.00135693
0.00135637
0.00135619
0.00135672
0.00135667
0.00135635
0.00135562
0.00135537
0.00135564
0.00135574
0.00135559
0.00135522
0.00135527
0.00135514
0.00135547
0.00135577
0.0013556
0.0013555
0.00135538
0.00135532
0.00135509
0.00135452
0.00135451
0.00135545
0.00135558
0.0013554
0.00135494
0.0013551
0.00135531
0.00135527
0.00135523
0.00135453
0.00135439
0.00135492
0.00135503
0.00135495
0.00135498
0.00135479
0.00135412
0.00118183
0.00122177
0.00126413
0.0013023
0.00132919
0.00134591
0.00135403
0.0013559
0.00135576
0.00135543
0.00135489
0.00135446
0.00135376
0.00135363
0.00135376
0.00135283
0.00135228
0.00135226
0.00135202
0.00135133
0.00135124
0.00135133
0.00135057
0.00135058
0.00135117
0.00135103
0.00135137
0.00135175
0.00135216
0.0013528
0.00135343
0.00135409
0.00135492
0.00135576
0.00135653
0.00135705
0.00135744
0.00135776
0.00135816
0.00135853
0.00135883
0.00135907
0.00135917
0.00135927
0.00135918
0.0013587
0.0013585
0.00135796
0.00135775
0.00135759
0.00135735
0.00135688
0.00135663
0.00135774
0.0013583
0.00135846
0.00135885
0.00135876
0.00135851
0.00135817
0.00135801
0.0013575
0.00135765
0.00135776
0.00135736
0.00135734
0.00135713
0.00135693
0.00135668
0.00135649
0.00135623
0.00135612
0.00135592
0.00135597
0.00135596
0.00135563
0.00135548
0.00135543
0.00135534
0.00135564
0.00135581
0.00135572
0.00135568
0.0013551
0.00135528
0.00135563
0.00135561
0.0013556
0.00135538
0.00135462
0.00118184
0.00122174
0.0012642
0.00130219
0.00132922
0.00134618
0.00135368
0.00135494
0.00135522
0.00135535
0.00135449
0.00135434
0.00135437
0.00135388
0.00135347
0.00135274
0.0013525
0.00135233
0.00135176
0.00135139
0.00135082
0.00135074
0.00135127
0.00135068
0.00135084
0.00135157
0.00135184
0.00135206
0.00135236
0.00135297
0.00135372
0.00135448
0.00135494
0.00135558
0.00135626
0.00135669
0.0013572
0.00135767
0.00135787
0.00135732
0.00135736
0.00135774
0.00135825
0.00135839
0.0013584
0.00135841
0.00135783
0.00135751
0.00135781
0.00135794
0.00135774
0.00135749
0.00135689
0.00135731
0.00135816
0.0013576
0.00135756
0.00135832
0.00135828
0.00135806
0.00135791
0.00135758
0.00135727
0.00135654
0.00135638
0.00135666
0.00135654
0.0013566
0.00135659
0.0013564
0.00135584
0.00135589
0.00135631
0.00135588
0.00135612
0.00135633
0.00135593
0.00135602
0.00135602
0.00135589
0.00135577
0.00135553
0.00135496
0.00135466
0.00135477
0.0013546
0.00135496
0.00135528
0.00135513
0.00135452
0.00118187
0.00122165
0.0012644
0.00130188
0.00132951
0.00134625
0.00135334
0.00135516
0.00135502
0.00135443
0.00135433
0.00135423
0.0013536
0.00135302
0.00135293
0.00135311
0.0013525
0.00135207
0.00135165
0.00135099
0.00135077
0.0013512
0.00135112
0.00135086
0.00135065
0.00135071
0.00135078
0.00135081
0.00135118
0.00135216
0.00135294
0.00135363
0.00135445
0.00135541
0.0013562
0.00135695
0.00135775
0.00135837
0.00135874
0.00135865
0.00135848
0.00135855
0.00135858
0.0013586
0.00135862
0.00135844
0.00135786
0.00135704
0.00135716
0.00135747
0.00135732
0.00135718
0.0013566
0.00135713
0.00135809
0.00135798
0.00135789
0.00135756
0.001358
0.00135824
0.00135805
0.00135787
0.00135721
0.00135728
0.00135742
0.00135715
0.00135706
0.00135701
0.00135692
0.00135653
0.00135611
0.00135635
0.00135658
0.0013565
0.00135645
0.00135629
0.0013562
0.00135556
0.00135533
0.00135584
0.00135621
0.00135612
0.00135605
0.00135591
0.0013558
0.00135564
0.00135521
0.00135518
0.00135502
0.00135439
0.00118188
0.00122174
0.00126404
0.00130216
0.00132999
0.00134596
0.00135229
0.00135313
0.00135289
0.00135254
0.00135262
0.00135298
0.00135254
0.00135221
0.0013517
0.00135092
0.00135056
0.00135086
0.0013505
0.00134995
0.00134977
0.0013508
0.00135105
0.00135079
0.00135038
0.0013506
0.00135101
0.0013507
0.00135133
0.00135221
0.00135291
0.00135368
0.00135437
0.0013552
0.00135597
0.00135673
0.001357
0.00135757
0.0013579
0.00135766
0.00135764
0.00135787
0.00135802
0.0013578
0.001358
0.00135818
0.00135761
0.00135778
0.00135795
0.00135727
0.0013572
0.00135752
0.00135736
0.00135724
0.00135707
0.00135705
0.00135693
0.00135665
0.00135609
0.00135546
0.00135575
0.00135613
0.00135601
0.00135589
0.00135526
0.0013555
0.00135602
0.0013557
0.00135583
0.0013558
0.00135564
0.00135556
0.00135507
0.00135522
0.00135587
0.00135532