/*--------------------------------*- C++ -*----------------------------------*\
  =========                 |
  \\      /  F ield         | OpenFOAM: The Open Source CFD Toolbox
   \\    /   O peration     | Website:  https://openfoam.org
    \\  /    A nd           | Version:  11
     \\/     M anipulation  |
\*---------------------------------------------------------------------------*/
FoamFile
{
    format      ascii;
    class       volScalarField;
    location    "0.078";
    object      omega;
}
// * * * * * * * * * * * * * * * * * * * * * * * * * * * * * * * * * * * * * //

dimensions      [0 0 -1 0 0 0 0];

internalField   nonuniform List<scalar> 
287084
(
54.9969
55.9233
56.8818
57.706
58.2752
58.5773
58.6724
58.6785
58.6769
58.6729
58.6707
58.6691
58.6786
58.6892
58.6875
58.6872
58.6859
58.6857
58.6795
58.675
58.6773
58.6767
58.6852
58.6992
58.6995
58.6994
58.6891
58.6845
58.6885
58.6892
58.6951
58.6988
58.6934
58.6949
58.6951
58.6919
58.683
58.6793
58.6764
58.6724
58.6635
58.6615
58.6547
58.6545
58.6545
58.6528
58.6522
58.6439
58.6419
58.634
58.6307
58.6442
58.6567
58.655
58.6528
58.6487
58.6491
58.6452
58.6318
58.6348
58.6448
58.6431
58.643
58.6366
58.6481
58.6586
58.6582
58.658
58.6474
58.6517
58.6561
58.6539
58.6507
58.6444
58.6519
58.6608
58.6569
58.6594
58.6601
58.6589
58.6581
58.6476
58.6518
58.6677
58.6667
58.6645
58.6605
58.6601
58.6557
58.6402
54.9994
55.9215
56.8672
57.6907
58.2662
58.58
58.6815
58.6856
58.6827
58.6961
58.7085
58.7018
58.7062
58.708
58.7064
58.7052
58.6928
58.6886
58.6925
58.6933
58.6871
58.6881
58.7135
58.7252
58.7231
58.7235
58.724
58.7236
58.7185
58.7118
58.7078
58.6958
58.6992
58.7042
58.6938
58.6967
58.6975
58.6937
58.6812
58.6807
58.6901
58.6912
58.6901
58.6798
58.6746
58.6747
58.6704
58.6775
58.6858
58.6837
58.6813
58.6727
58.6717
58.6701
58.6616
58.6573
58.658
58.6613
58.6593
58.6564
58.6482
58.6511
58.6695
58.6705
58.6696
58.6577
58.6565
58.672
58.6755
58.6729
58.6646
58.6688
58.6821
58.6801
58.6813
58.6767
58.6746
58.6757
58.6755
58.6653
58.6688
58.6723
58.6706
58.6657
58.6671
58.6751
58.6696
58.6703
58.6691
58.6567
54.9997
55.9207
56.8656
57.6919
58.2588
58.5739
58.6959
58.7107
58.7085
58.7092
58.7081
58.6985
58.7009
58.704
58.7021
58.7002
58.6963
58.7085
58.7141
58.7118
58.7082
58.7011
58.7027
58.7226
58.7255
58.7223
58.7223
58.7208
58.7203
58.7173
58.7171
58.717
58.7177
58.7144
58.7127
58.71
58.7083
58.704
58.6887
58.686
58.6878
58.6766
58.6808
58.6859
58.684
58.6836
58.6698
58.6689
58.6838
58.6867
58.6829
58.6828
58.6831
58.6816
58.6708
58.6647
58.6604
58.658
58.6596
58.6597
58.6546
58.66
58.6657
58.6644
58.6651
58.6596
58.6739
58.6825
58.6802
58.6822
58.6795
58.6777
58.6758
58.6675
58.6614
58.66
58.6606
58.6573
58.6604
58.6621
58.6535
58.6509
58.6609
58.6701
58.6642
58.6697
58.6726
58.6723
58.672
58.6546
54.998
55.9211
56.8684
57.6869
58.2537
58.5729
58.6988
58.7152
58.7137
58.7075
58.7104
58.7172
58.7175
58.7174
58.7023
58.7026
58.7115
58.7049
58.7111
58.7165
58.7096
58.7105
58.7098
58.7001
58.7036
58.7077
58.7056
58.7051
58.6928
58.697
58.7145
58.7158
58.7154
58.7155
58.7159
58.7138
58.7134
58.7097
58.7026
58.6964
58.6937
58.6909
58.6883
58.6846
58.682
58.6734
58.6773
58.6806
58.6772
58.6686
58.6647
58.6708
58.6733
58.6715
58.6719
58.6697
58.6682
58.6618
58.6559
58.6681
58.6775
58.6749
58.6751
58.6731
58.6612
58.6582
58.666
58.6596
58.6602
58.6746
58.6797
58.6767
58.6774
58.6762
58.6694
58.6617
58.6699
58.6844
58.6792
58.6802
58.6809
58.6809
58.672
58.6746
58.6791
58.6762
58.6668
58.6665
58.6701
58.6566
54.9976
55.9217
56.8684
57.6818
58.2593
58.5733
58.6795
58.7085
58.7096
58.7071
58.7034
58.7004
58.7074
58.709
58.7073
58.706
58.7031
58.6926
58.6969
58.7018
58.6985
58.6984
58.6939
58.7052
58.7123
58.7079
58.7087
58.7073
58.7037
58.7075
58.7114
58.7088
58.7097
58.7076
58.7058
58.7023
58.6891
58.6908
58.705
58.7039
58.7037
58.7045
58.7045
58.6992
58.699
58.6961
58.6947
58.6947
58.6946
58.6888
58.6743
58.6693
58.6663
58.6601
58.66
58.6568
58.6549
58.6477
58.6531
58.6616
58.6588
58.6587
58.6532
58.6537
58.6529
58.6533
58.6466
58.6525
58.6619
58.6582
58.6586
58.6552
58.6684
58.6831
58.6777
58.6824
58.6841
58.6786
58.6798
58.6833
58.6831
58.6814
58.6804
58.6738
58.6592
58.6626
58.6713
58.6705
58.6702
58.657
54.9979
55.9205
56.866
57.6883
58.2623
58.5592
58.6611
58.6814
58.7037
58.7066
58.7034
58.7046
58.703
58.6999
58.6884
58.6851
58.6941
58.7058
58.7052
58.7017
58.7002
58.6995
58.6917
58.695
58.7045
58.7001
58.6946
58.7016
58.7145
58.7121
58.7115
58.7124
58.713
58.7089
58.6963
58.693
58.6944
58.6848
58.689
58.6949
58.6897
58.6899
58.6901
58.6902
58.688
58.6838
58.6707
58.666
58.671
58.6756
58.6738
58.6734
58.6642
58.664
58.6729
58.6757
58.6733
58.6695
58.6644
58.6657
58.6722
58.6692
58.6692
58.6686
58.6647
58.6563
58.666
58.6791
58.6744
58.6779
58.6792
58.6769
58.6741
58.6636
58.6611
58.6606
58.6693
58.6788
58.6743
58.6757
58.6761
58.6751
58.6629
58.6651
58.6757
58.6729
58.6744
58.675
58.6726
58.6596
54.9966
55.9204
56.867
57.6871
58.264
58.5534
58.6766
58.698
58.6962
58.6964
58.6948
58.6842
58.6868
58.7111
58.7068
58.7072
58.7284
58.7387
58.7346
58.7349
58.7383
58.739
58.7352
58.7224
58.7242
58.7312
58.7305
58.7308
58.7258
58.7229
58.7174
58.7157
58.7127
58.7031
58.7064
58.7091
58.7071
58.7058
58.6914
58.6951
58.7006
58.6974
58.6906
58.6836
58.6856
58.6878
58.6855
58.6822
58.6789
58.6772
58.6743
58.6638
58.6673
58.6712
58.6679
58.6675
58.6628
58.6625
58.6584
58.6661
58.6714
58.6703
58.6701
58.6633
58.6624
58.6553
58.6606
58.6672
58.6647
58.659
58.6562
58.6612
58.6657
58.6645
58.6595
58.666
58.6733
58.6723
58.6734
58.6707
58.6602
58.6629
58.673
58.6737
58.6734
58.665
58.6613
58.6682
58.6707
58.6617
54.9978
55.9187
56.873
57.6834
58.2436
58.5696
58.7095
58.7439
58.7454
58.7455
58.7365
58.7422
58.7469
58.7431
58.7422
58.7426
58.7446
58.7436
58.7424
58.7297
58.7329
58.7409
58.7334
58.7359
58.7398
58.7382
58.7374
58.7382
58.7345
58.7322
58.7313
58.7324
58.7301
58.7277
58.7258
58.7226
58.7167
58.7024
58.6952
58.7048
58.7085
58.706
58.7018
58.6976
58.6952
58.6893
58.6909
58.6935
58.6917
58.6924
58.689
58.6741
58.6744
58.6869
58.6876
58.6854
58.6747
58.6798
58.6858
58.6844
58.6868
58.6849
58.6829
58.6808
58.6788
58.6743
58.6625
58.6576
58.6622
58.6587
58.6647
58.6771
58.6764
58.6759
58.6687
58.6633
58.6747
58.6843
58.6835
58.6835
58.6812
58.6793
58.6653
58.6701
58.68
58.6783
58.6758
58.6715
58.6683
58.6567
54.9974
55.9197
56.8673
57.6891
58.2535
58.5637
58.6823
58.6967
58.6968
58.6967
58.6842
58.6842
58.7128
58.7247
58.7166
58.7208
58.7227
58.7154
58.7235
58.7405
58.733
58.7382
58.7405
58.7281
58.7328
58.7409
58.7341
58.7372
58.7412
58.7405
58.7419
58.74
58.7364
58.7286
58.72
58.7161
58.7103
58.7076
58.7026
58.6898
58.6849
58.689
58.6876
58.684
58.6902
58.6949
58.6862
58.6915
58.6947
58.6943
58.6941
58.6871
58.6866
58.6847
58.6818
58.6711
58.6588
58.6646
58.6711
58.669
58.6657
58.6582
58.6677
58.6747
58.6705
58.6704
58.6706
58.6695
58.6574
58.6639
58.6834
58.6841
58.6821
58.6806
58.6776
58.6707
58.663
58.6726
58.6875
58.681
58.6865
58.6892
58.6866
58.6829
58.6745
58.6718
58.6665
58.6644
58.664
58.656
55.0004
55.9124
56.872
57.6899
58.253
58.5627
58.6729
58.6842
58.676
58.6761
58.6968
58.7068
58.7045
58.6997
58.6931
58.6966
58.6969
58.7055
58.7139
58.7115
58.7026
58.7015
58.7085
58.7043
58.7097
58.7117
58.7098
58.7048
58.71
58.7213
58.7159
58.7171
58.714
58.7061
58.7025
58.701
58.698
58.699
58.6982
58.6978
58.6959
58.6989
58.6986
58.6954
58.692
58.6797
58.6645
58.6638
58.6641
58.6611
58.6524
58.6547
58.6601
58.6574
58.6525
58.6461
58.6474
58.6479
58.642
58.6467
58.6684
58.6709
58.6693
58.6694
58.6668
58.6617
58.6494
58.6495
58.6639
58.6655
58.6648
58.6646
58.6566
58.6527
58.656
58.6569
58.6513
58.6566
58.6742
58.6746
58.6722
58.6643
58.6602
58.6733
58.6825
58.6809
58.6815
58.6798
58.6775
58.661
54.9987
55.9182
56.8685
57.6854
58.2555
58.5683
58.6787
58.6898
58.6816
58.6874
58.6976
58.6966
58.6934
58.6934
58.7012
58.6924
58.6925
58.7053
58.7047
58.7127
58.7336
58.7338
58.7323
58.7183
58.72
58.7274
58.7129
58.7161
58.7227
58.7215
58.721
58.7083
58.7127
58.7213
58.7156
58.718
58.7184
58.7171
58.7183
58.7176
58.7156
58.7104
58.6979
58.6911
58.6849
58.6715
58.6579
58.6633
58.6726
58.6704
58.6627
58.6661
58.6709
58.6682
58.659
58.6574
58.6596
58.6593
58.6562
58.653
58.6638
58.6667
58.6637
58.6539
58.6575
58.6658
58.6661
58.6661
58.6525
58.6542
58.6629
58.6625
58.6576
58.6618
58.6685
58.6686
58.6686
58.6571
58.6551
58.6665
58.6699
58.6636
58.6693
58.6805
58.6782
58.6717
58.6687
58.6695
58.6693
58.6616
54.9965
55.921
56.8672
57.6866
58.2555
58.5621
58.6887
58.7112
58.7106
58.7082
58.7025
58.6987
58.7058
58.7316
58.7315
58.7273
58.7281
58.7256
58.7212
58.7191
58.7256
58.7311
58.7354
58.7339
58.7241
58.7302
58.7421
58.7383
58.7386
58.7377
58.7365
58.7348
58.7361
58.7329
58.7311
58.7315
58.7313
58.7271
58.7199
58.7101
58.7015
58.6949
58.6877
58.6704
58.6613
58.6632
58.6684
58.6658
58.6569
58.6556
58.6511
58.656
58.6721
58.6693
58.6726
58.6735
58.6722
58.6738
58.6723
58.6695
58.6674
58.6631
58.6521
58.6479
58.6658
58.6738
58.6733
58.6731
58.6603
58.6646
58.6784
58.6772
58.6749
58.6633
58.6669
58.6743
58.6742
58.6739
58.6592
58.6628
58.6723
58.6713
58.6702
58.6654
58.6737
58.68
58.6769
58.6768
58.6745
58.6579
54.9981
55.9176
56.875
57.6803
58.2448
58.5723
58.7053
58.7239
58.7142
58.7173
58.729
58.7264
58.7254
58.723
58.7166
58.7191
58.7405
58.7451
58.7419
58.7333
58.7308
58.7403
58.7425
58.7367
58.742
58.7517
58.7409
58.7465
58.7503
58.7469
58.7487
58.7463
58.7437
58.7407
58.7316
58.7155
58.711
58.7101
58.7077
58.7036
58.6946
58.6915
58.6895
58.6879
58.6812
58.6746
58.6749
58.6731
58.6808
58.6847
58.6811
58.6817
58.6798
58.6779
58.6722
58.6666
58.6685
58.6693
58.6665
58.6584
58.6632
58.6753
58.6697
58.6746
58.6769
58.6741
58.6694
58.6621
58.6602
58.6561
58.6627
58.6766
58.6761
58.6727
58.6622
58.6588
58.6738
58.6811
58.6784
58.6726
58.667
58.6708
58.6744
58.6752
58.6727
58.6648
58.6662
58.6697
58.6682
58.6606
54.9986
55.918
56.8653
57.6904
58.2623
58.553
58.6722
58.689
58.6756
58.6793
58.6886
58.6767
58.6821
58.69
58.6816
58.6789
58.6863
58.6881
58.6958
58.7123
58.7114
58.7073
58.7075
58.7202
58.7311
58.7377
58.726
58.7313
58.7381
58.7347
58.7342
58.7339
58.7332
58.7301
58.7246
58.7181
58.7123
58.6951
58.6946
58.6985
58.6898
58.6914
58.6969
58.6968
58.6976
58.694
58.6787
58.6789
58.6875
58.6879
58.6856
58.6826
58.6794
58.6664
58.6673
58.6683
58.6655
58.6576
58.6593
58.6698
58.6699
58.669
58.6555
58.6583
58.6651
58.6607
58.6603
58.6556
58.6557
58.655
58.6648
58.6756
58.6767
58.6742
58.6677
58.6665
58.6552
58.6541
58.6663
58.6629
58.6646
58.6823
58.69
58.6898
58.6895
58.6797
58.6749
58.6785
58.6793
58.6699
54.9978
55.9187
56.8725
57.6842
58.2416
58.5698
58.7125
58.7354
58.7258
58.7295
58.7404
58.7285
58.7315
58.7412
58.735
58.7363
58.7339
58.7278
58.7267
58.731
58.7283
58.7333
58.7474
58.7472
58.7452
58.7514
58.7538
58.7454
58.7493
58.7501
58.7457
58.7465
58.7466
58.746
58.7442
58.7406
58.7366
58.7314
58.7203
58.7118
58.7055
58.6949
58.6724
58.6677
58.672
58.6694
58.6692
58.6693
58.6683
58.6639
58.6592
58.6574
58.6519
58.6578
58.6697
58.6653
58.6673
58.6714
58.67
58.6671
58.6593
58.6637
58.6775
58.6758
58.6706
58.6687
58.6794
58.6822
58.6788
58.6704
58.6646
58.6701
58.6726
58.6692
58.6603
58.6577
58.6745
58.6804
58.6772
58.6687
58.6647
58.669
58.6658
58.6724
58.6757
58.6729
58.6638
58.6644
58.6687
58.6556
54.9978
55.9236
56.8655
57.682
58.2605
58.5566
58.6873
58.7091
58.708
58.7056
58.6993
58.7027
58.7069
58.7046
58.6969
58.7062
58.7196
58.7178
58.7103
58.7109
58.7177
58.7103
58.7092
58.721
58.7248
58.7174
58.7245
58.7342
58.7272
58.727
58.7232
58.7208
58.7124
58.7144
58.7165
58.713
58.7124
58.7102
58.7077
58.7076
58.7078
58.7059
58.7065
58.7039
58.7016
58.6971
58.6879
58.6728
58.6665
58.6528
58.6497
58.6634
58.667
58.6638
58.6532
58.6556
58.6694
58.6651
58.6776
58.7001
58.7013
58.6981
58.6855
58.6881
58.6912
58.68
58.6862
58.6932
58.6919
58.6916
58.6894
58.6886
58.676
58.6731
58.6734
58.6732
58.6661
58.6684
58.6711
58.6665
58.6608
58.6647
58.6835
58.6831
58.6805
58.6684
58.6708
58.6739
58.671
58.662
54.9975
55.9201
56.8718
57.6857
58.2394
58.5628
58.7182
58.7513
58.7517
58.7494
58.7392
58.7446
58.7528
58.7486
58.7494
58.7533
58.7529
58.7482
58.7381
58.7359
58.7439
58.7485
58.7465
58.7357
58.7372
58.7478
58.7456
58.7457
58.7465
58.7462
58.7454
58.7447
58.7424
58.7426
58.7401
58.7352
58.7309
58.7265
58.722
58.7183
58.7138
58.7053
58.6851
58.6738
58.6676
58.6646
58.6619
58.6605
58.657
58.6438
58.6404
58.651
58.6553
58.6533
58.6475
58.6495
58.6743
58.6795
58.6763
58.6762
58.6731
58.6632
58.6639
58.6736
58.6742
58.6735
58.6737
58.6748
58.6741
58.6741
58.6698
58.6606
58.6629
58.6764
58.6776
58.6776
58.6713
58.6649
58.6624
58.6612
58.6702
58.6769
58.6764
58.6764
58.6709
58.6701
58.6681
58.666
58.6634
58.6545
54.9976
55.9197
56.8702
57.6885
58.2378
58.5669
58.7205
58.7489
58.7403
58.7463
58.7524
58.7504
58.7503
58.7368
58.7394
58.7479
58.7369
58.7352
58.7429
58.7456
58.7415
58.747
58.756
58.7461
58.7519
58.7624
58.7596
58.7594
58.7575
58.7573
58.7539
58.7515
58.7498
58.75
58.7458
58.7424
58.738
58.7304
58.7191
58.7082
58.7021
58.6944
58.6847
58.6794
58.675
58.6695
58.6574
58.6466
58.6562
58.6681
58.6691
58.6667
58.6634
58.6589
58.6542
58.6684
58.677
58.6641
58.6675
58.6792
58.6691
58.6744
58.6855
58.6846
58.6842
58.6775
58.6757
58.6741
58.6731
58.6642
58.6691
58.6863
58.6867
58.6872
58.6878
58.6854
58.6808
58.6797
58.6765
58.6767
58.6737
58.662
58.6609
58.6748
58.6778
58.6749
58.663
58.6617
58.6662
58.6558
54.9977
55.9194
56.8736
57.6827
58.2415
58.5677
58.7089
58.7425
58.7419
58.7338
58.7353
58.7421
58.7406
58.7412
58.7378
58.7375
58.7376
58.7324
58.7319
58.7449
58.7504
58.748
58.7387
58.7421
58.7508
58.7434
58.7434
58.7424
58.741
58.7415
58.7414
58.739
58.7383
58.7325
58.7259
58.7096
58.6967
58.6992
58.7032
58.7013
58.7011
58.6987
58.698
58.6954
58.6912
58.6883
58.6842
58.6761
58.6546
58.6447
58.6548
58.6597
58.6587
58.6583
58.6472
58.6472
58.6716
58.6771
58.6675
58.671
58.6813
58.6709
58.676
58.6875
58.6889
58.6865
58.6723
58.6752
58.679
58.6662
58.6701
58.6782
58.6645
58.6674
58.6787
58.6789
58.6781
58.6652
58.6662
58.6803
58.6836
58.6815
58.6793
58.6772
58.6673
58.6616
58.6642
58.6662
58.6632
58.6516
54.9948
55.9257
56.8679
57.6826
58.2483
58.57
58.698
58.7184
58.7169
58.7088
58.7113
58.7179
58.7152
58.7152
58.7102
58.71
58.7053
58.7135
58.7282
58.7238
58.724
58.721
58.7307
58.7537
58.7607
58.7578
58.7595
58.7598
58.7543
58.7524
58.7514
58.7516
58.7499
58.7469
58.7419
58.7397
58.7329
58.7257
58.7199
58.7139
58.7043
58.6983
58.6904
58.6805
58.6733
58.6568
58.6483
58.6475
58.6508
58.6489
58.6374
58.642
58.6824
58.6918
58.6843
58.6876
58.7048
58.7073
58.706
58.7056
58.699
58.695
58.6924
58.6844
58.6896
58.6946
58.6934
58.6932
58.6876
58.688
58.6846
58.6897
58.6929
58.6894
58.6772
58.6757
58.6792
58.6752
58.674
58.6734
58.6747
58.6743
58.674
58.6681
58.6667
58.6652
58.6589
58.6572
58.6568
58.6488
54.9983
55.9196
56.8674
57.6858
58.2579
58.566
58.6629
58.6658
58.667
58.6844
58.7012
58.7008
58.6974
58.6842
58.6831
58.6998
58.7072
58.7055
58.6995
58.7007
58.7302
58.7573
58.7499
58.7572
58.7633
58.7599
58.7582
58.7585
58.7595
58.7579
58.7579
58.7544
58.7514
58.7466
58.7394
58.724
58.7072
58.7028
58.6994
58.6961
58.6936
58.6913
58.6886
58.6851
58.6781
58.6602
58.6555
58.6574
58.6513
58.6564
58.6613
58.6579
58.657
58.6553
58.6548
58.642
58.6413
58.6469
58.6483
58.6485
58.6404
58.6459
58.6498
58.6472
58.642
58.6382
58.648
58.651
58.65
58.6489
58.6559
58.6611
58.6676
58.6816
58.6801
58.6776
58.6691
58.6641
58.6659
58.6647
58.6731
58.678
58.6752
58.666
58.6641
58.6658
58.6539
58.6548
58.6633
58.6529
54.9983
55.9172
56.8757
57.6795
58.2455
58.5726
58.7076
58.7309
58.7305
58.7282
58.7165
58.7153
58.7264
58.7283
58.7314
58.7329
58.733
58.7329
58.7317
58.7266
58.7302
58.7477
58.7461
58.7522
58.7611
58.7569
58.7584
58.7582
58.7593
58.7569
58.7533
58.7459
58.7398
58.7329
58.7288
58.7251
58.7177
58.714
58.7102
58.707
58.7018
58.698
58.6932
58.6898
58.6866
58.6801
58.6656
58.6478
58.6475
58.6539
58.6522
58.6469
58.6413
58.6611
58.6883
58.6878
58.6831
58.686
58.6988
58.6945
58.6952
58.6952
58.6882
58.693
58.7019
58.6985
58.6984
58.6957
58.6925
58.6833
58.6809
58.6746
58.6781
58.6908
58.6849
58.6924
58.7002
58.6894
58.6953
58.7008
58.7011
58.7011
58.6954
58.6876
58.6832
58.6809
58.6733
58.671
58.67
58.6573
54.9977
55.9191
56.8718
57.686
58.2392
58.5729
58.7098
58.7271
58.7352
58.745
58.7337
58.738
58.7417
58.7395
58.7326
58.7308
58.7427
58.7453
58.7405
58.7456
58.758
58.7578
58.756
58.7618
58.7741
58.7635
58.7685
58.7708
58.7655
58.7649
58.7649
58.7652
58.7607
58.7572
58.7505
58.7357
58.7261
58.7188
58.7061
58.6822
58.6769
58.677
58.6744
58.6746
58.6751
58.6735
58.6602
58.6548
58.6635
58.6682
58.6658
58.6623
58.6529
58.6634
58.6927
58.706
58.7074
58.6977
58.7041
58.7087
58.7059
58.6963
58.695
58.7015
58.6983
58.6993
58.6965
58.689
58.6846
58.6864
58.684
58.6927
58.7011
58.6895
58.695
58.7052
58.7036
58.7013
58.6873
58.6903
58.6945
58.6828
58.6878
58.6921
58.6913
58.6906
58.676
58.6729
58.6721
58.661
54.9992
55.9183
56.8647
57.6936
58.2514
58.5634
58.6786
58.6954
58.6935
58.6845
58.6884
58.6947
58.6932
58.6883
58.6906
58.712
58.7093
58.7166
58.7444
58.7456
58.75
58.757
58.7557
58.7536
58.754
58.7514
58.7444
58.7505
58.7552
58.7476
58.7455
58.7456
58.7457
58.743
58.7435
58.7405
58.7357
58.7272
58.7071
58.6919
58.6847
58.6655
58.6648
58.6685
58.6629
58.6633
58.6584
58.6591
58.6601
58.6587
58.6587
58.6551
58.6488
58.6504
58.6511
58.6408
58.6405
58.6496
58.6466
58.6538
58.6579
58.6568
58.6544
58.6574
58.6756
58.6753
58.6763
58.6781
58.6774
58.6647
58.6672
58.6761
58.6757
58.676
58.6747
58.6742
58.6718
58.6655
58.664
58.6731
58.6746
58.6734
58.6719
58.6611
58.6612
58.6728
58.678
58.676
58.6724
58.6615
54.996
55.9224
56.8703
57.6804
58.2531
58.5672
58.7
58.7197
58.7189
58.7179
58.716
58.7194
58.7192
58.7253
58.7283
58.7225
58.7221
58.7174
58.7239
58.7361
58.7346
58.7361
58.7314
58.7397
58.744
58.7372
58.7452
58.7594
58.7584
58.7583
58.7558
58.7508
58.7391
58.7336
58.7287
58.7238
58.7198
58.7154
58.7118
58.7075
58.6984
58.692
58.6873
58.6818
58.6702
58.6585
58.6492
58.646
58.6434
58.6395
58.6324
58.6417
58.6549
58.6554
58.6554
58.6485
58.6468
58.6395
58.6328
58.6382
58.6417
58.6482
58.6578
58.648
58.6531
58.6639
58.6638
58.6637
58.658
58.6495
58.6543
58.6614
58.651
58.6565
58.6662
58.6561
58.6519
58.6612
58.6689
58.6662
58.6563
58.6563
58.6688
58.6663
58.6671
58.6755
58.6787
58.6773
58.6754
58.6564
54.998
55.918
56.8744
57.6813
58.2441
58.5733
58.7063
58.7251
58.7168
58.722
58.7365
58.7255
58.7262
58.7427
58.7453
58.74
58.7465
58.7529
58.7427
58.7487
58.7535
58.7426
58.7467
58.7615
58.7572
58.7633
58.7691
58.7662
58.7682
58.767
58.7648
58.7621
58.7567
58.7522
58.7449
58.7287
58.717
58.7107
58.7031
58.6976
58.6935
58.6898
58.6877
58.6857
58.6835
58.6801
58.6728
58.6544
58.6413
58.6453
58.6522
58.6497
58.6405
58.6416
58.6561
58.657
58.6534
58.6405
58.6405
58.6486
58.6499
58.6517
58.6481
58.653
58.6518
58.6607
58.6679
58.6677
58.6678
58.6641
58.6637
58.6603
58.6496
58.6531
58.6742
58.6765
58.6736
58.6643
58.6694
58.6741
58.6735
58.6732
58.6562
58.6559
58.6699
58.671
58.6691
58.6676
58.6644
58.6528
54.9976
55.9197
56.8702
57.6886
58.2378
58.5677
58.7196
58.7515
58.7506
58.7453
58.741
58.7412
58.7336
58.7391
58.7504
58.737
58.7361
58.7471
58.7499
58.7454
58.7514
58.7598
58.7493
58.7542
58.7687
58.764
58.7653
58.7658
58.7638
58.7616
58.761
58.7569
58.7541
58.7534
58.7513
58.7409
58.7298
58.7202
58.7142
58.7095
58.7055
58.702
58.6975
58.6946
58.6893
58.6768
58.6719
58.6606
58.6576
58.656
58.6552
58.6472
58.6462
58.6784
58.6882
58.6948
58.7063
58.7066
58.7067
58.7019
58.7013
58.6948
58.7007
58.7046
58.6971
58.697
58.6969
58.6941
58.6881
58.687
58.6825
58.6804
58.68
58.683
58.6835
58.6765
58.6749
58.6772
58.6759
58.6822
58.6855
58.6839
58.683
58.6721
58.677
58.6844
58.6839
58.6838
58.6793
58.6635
54.9977
55.9191
56.8718
57.686
58.2391
58.5729
58.7099
58.7273
58.7354
58.7453
58.733
58.7371
58.7452
58.7445
58.7448
58.7372
58.7409
58.7461
58.7448
58.7463
58.7412
58.7469
58.7643
58.7539
58.7592
58.7708
58.7709
58.771
58.7692
58.7696
58.7676
58.7641
58.7542
58.7481
58.7426
58.7326
58.7258
58.7192
58.7078
58.6829
58.6771
58.6779
58.6797
58.6799
58.6762
58.6743
58.6592
58.6547
58.6644
58.668
58.665
58.6595
58.6523
58.6682
58.6883
58.6793
58.6828
58.7014
58.7024
58.7002
58.6972
58.6926
58.6889
58.6777
58.6786
58.6882
58.6868
58.6881
58.6893
58.6882
58.6768
58.6801
58.6908
58.6822
58.6884
58.6931
58.6864
58.6882
58.6886
58.6861
58.6814
58.6776
58.6648
58.6615
58.6678
58.6635
58.6711
58.6775
58.6742
58.6619
54.9983
55.9171
56.8759
57.6792
58.2458
58.5734
58.7025
58.7348
58.734
58.7255
58.7289
58.7334
58.7259
58.7221
58.7313
58.7434
58.7405
58.741
58.7409
58.7344
58.7382
58.7528
58.7533
58.7537
58.7502
58.7501
58.7493
58.74
58.7395
58.7493
58.7497
58.7495
58.7462
58.7453
58.7449
58.7421
58.7399
58.7382
58.731
58.7143
58.7003
58.6938
58.6879
58.6836
58.6805
58.6744
58.66
58.6456
58.6515
58.6595
58.6576
58.6548
58.6475
58.6659
58.6878
58.6873
58.6867
58.6849
58.6991
58.7057
58.7034
58.6994
58.6901
58.6953
58.7002
58.6981
58.6985
58.697
58.6955
58.6875
58.6815
58.69
58.6953
58.6944
58.6944
58.6915
58.6901
58.6753
58.6733
58.6875
58.6947
58.6926
58.6888
58.6864
58.6844
58.6836
58.6736
58.6719
58.6705
58.6594
54.9987
55.9188
56.8681
57.6866
58.2553
58.5644
58.6766
58.6885
58.6848
58.6822
58.6921
58.7059
58.7025
58.7017
58.6996
58.6929
58.696
58.7102
58.7107
58.7094
58.714
58.7438
58.7519
58.7497
58.7419
58.746
58.7505
58.7373
58.7416
58.7478
58.7476
58.7474
58.7438
58.7438
58.7412
58.7374
58.7253
58.7212
58.7136
58.6954
58.6851
58.6819
58.6793
58.6717
58.673
58.6748
58.6621
58.666
58.6701
58.6572
58.659
58.6691
58.6683
58.6684
58.6678
58.6684
58.6687
58.6662
58.6533
58.6446
58.6561
58.6659
58.6648
58.6642
58.654
58.6624
58.6747
58.6704
58.6737
58.6742
58.6716
58.6715
58.6633
58.6686
58.6839
58.672
58.6762
58.6849
58.6718
58.6759
58.6858
58.6841
58.6819
58.6746
58.6701
58.6773
58.6856
58.6856
58.6849
58.667
54.9984
55.9228
56.8653
57.6829
58.2608
58.5559
58.6862
58.7083
58.7087
58.7084
58.7091
58.7093
58.7055
58.6967
58.6992
58.716
58.7113
58.7175
58.7212
58.7194
58.7142
58.7167
58.747
58.7529
58.7512
58.7497
58.745
58.7424
58.7348
58.7376
58.7384
58.7355
58.7326
58.7288
58.725
58.7208
58.7123
58.7081
58.7044
58.6994
58.6935
58.6899
58.6861
58.6833
58.6807
58.678
58.6697
58.6703
58.6713
58.6701
58.6695
58.6589
58.6485
58.6503
58.6524
58.6471
58.6455
58.6532
58.6749
58.6819
58.681
58.68
58.6689
58.6728
58.6779
58.6754
58.67
58.6669
58.6699
58.6653
58.6633
58.6744
58.6805
58.6797
58.6795
58.668
58.6727
58.6821
58.681
58.681
58.6785
58.6771
58.6658
58.6698
58.6747
58.6716
58.6607
58.6599
58.6642
58.6519
54.9978
55.9235
56.8655
57.6821
58.2607
58.5569
58.6874
58.7089
58.6944
58.694
58.7014
58.7053
58.7032
58.6902
58.6928
58.7206
58.7266
58.7239
58.714
58.7123
58.7283
58.7309
58.7295
58.7281
58.7383
58.7463
58.7428
58.7425
58.7426
58.7428
58.7378
58.7255
58.7181
58.7148
58.7082
58.7082
58.708
58.7077
58.7082
58.7055
58.7015
58.7011
58.6979
58.6913
58.6759
58.6642
58.6601
58.6578
58.6538
58.6408
58.6441
58.6581
58.6512
58.6596
58.6857
58.6879
58.6882
58.6833
58.6784
58.6772
58.6738
58.6802
58.6845
58.684
58.684
58.6813
58.6774
58.6691
58.6738
58.6827
58.6838
58.6827
58.6832
58.6802
58.6681
58.6689
58.6766
58.6732
58.6751
58.6754
58.6729
58.6731
58.6724
58.6731
58.671
58.6687
58.6577
58.6614
58.6672
58.6547
54.9977
55.9193
56.8713
57.6865
58.2392
58.5693
58.7158
58.744
58.7429
58.7346
58.7334
58.741
58.7341
58.7405
58.7504
58.7488
58.7488
58.7445
58.7442
58.7429
58.7449
58.7431
58.737
58.7448
58.7571
58.745
58.7504
58.7561
58.7495
58.7514
58.7514
58.7475
58.7358
58.7284
58.7228
58.7177
58.714
58.7066
58.7037
58.7003
58.6972
58.6943
58.6891
58.6829
58.6669
58.6612
58.6669
58.6643
58.6627
58.6734
58.6826
58.6791
58.6813
58.679
58.6754
58.6646
58.6617
58.6666
58.675
58.674
58.6709
58.6715
58.6727
58.6733
58.6712
58.6636
58.6664
58.6738
58.6723
58.6677
58.6713
58.6862
58.6856
58.688
58.6885
58.686
58.6824
58.6761
58.6767
58.6774
58.6757
58.675
58.6638
58.6703
58.6803
58.6786
58.6757
58.6712
58.668
58.6567
54.9973
55.9206
56.8709
57.6879
58.2353
58.5681
58.7146
58.7424
58.7503
58.7481
58.7356
58.7395
58.7487
58.7441
58.7444
58.7432
58.7442
58.7438
58.7516
58.7651
58.765
58.7667
58.7642
58.7514
58.7549
58.7612
58.7546
58.7543
58.7544
58.7524
58.7517
58.7484
58.7459
58.744
58.7362
58.7321
58.7262
58.7221
58.7174
58.7072
58.7035
58.7009
58.6959
58.6844
58.6796
58.6764
58.6711
58.6689
58.6627
58.6607
58.659
58.6673
58.6756
58.6737
58.6705
58.6658
58.6729
58.6807
58.6796
58.6781
58.6775
58.6706
58.6651
58.6676
58.6663
58.6718
58.6847
58.679
58.6865
58.692
58.6918
58.6917
58.6792
58.6818
58.6946
58.6952
58.6931
58.6921
58.6894
58.6833
58.6829
58.6799
58.678
58.6755
58.6725
58.6637
58.6657
58.6691
58.6658
58.655
54.9953
55.9241
56.8707
57.6796
58.2485
58.5736
58.6928
58.709
58.7091
58.7107
58.7084
58.6982
58.7006
58.7022
58.6927
58.6991
58.7136
58.7141
58.7144
58.7084
58.7168
58.7228
58.7304
58.7382
58.7298
58.7345
58.7363
58.7324
58.723
58.7182
58.724
58.7258
58.7221
58.7079
58.709
58.7103
58.7037
58.7034
58.7033
58.7005
58.6985
58.6979
58.6924
58.6778
58.6654
58.656
58.6536
58.6532
58.6444
58.6483
58.664
58.6636
58.6659
58.6667
58.6648
58.6637
58.6537
58.6594
58.6817
58.6747
58.6811
58.6859
58.6805
58.682
58.6795
58.6698
58.6725
58.681
58.6739
58.6734
58.6732
58.6651
58.667
58.6754
58.6677
58.6644
58.6723
58.6793
58.6767
58.6677
58.672
58.6805
58.6715
58.6753
58.6767
58.6744
58.668
58.67
58.6728
58.6598
54.9978
55.9189
56.8723
57.6842
58.2427
58.5668
58.7139
58.7454
58.7469
58.747
58.7359
58.7415
58.7484
58.7355
58.7337
58.7375
58.7297
58.7337
58.7467
58.736
58.7364
58.745
58.7402
58.7479
58.7594
58.7584
58.7588
58.7549
58.752
58.7472
58.7319
58.7322
58.7336
58.7268
58.7267
58.7272
58.727
58.722
58.7176
58.7122
58.7047
58.6995
58.6925
58.6795
58.6722
58.6688
58.6625
58.6588
58.6515
58.6457
58.6606
58.6767
58.6764
58.6769
58.6728
58.6643
58.6667
58.6699
58.6647
58.6648
58.6619
58.6603
58.6577
58.6627
58.6664
58.6563
58.6614
58.667
58.6577
58.6557
58.6705
58.6861
58.6857
58.6862
58.6843
58.679
58.6767
58.676
58.6735
58.6713
58.6655
58.6706
58.6785
58.6739
58.6736
58.673
58.6616
58.6641
58.6693
58.6553
54.998
55.9184
56.8672
57.6892
58.257
58.5637
58.6672
58.6774
58.6712
58.6779
58.6989
58.699
58.6967
58.6906
58.6867
58.7012
58.715
58.7062
58.7055
58.7229
58.7327
58.7234
58.7281
58.7461
58.7403
58.7478
58.7593
58.7587
58.7585
58.7534
58.7527
58.7486
58.7453
58.739
58.7239
58.7176
58.7142
58.7095
58.702
58.7017
58.7019
58.6997
58.6995
58.6975
58.6946
58.6792
58.6707
58.6781
58.682
58.6768
58.678
58.6784
58.6753
58.6628
58.6562
58.6621
58.6678
58.6647
58.653
58.6546
58.663
58.6623
58.6603
58.6547
58.6647
58.6704
58.6686
58.6675
58.6593
58.6578
58.6524
58.6576
58.6726
58.6715
58.671
58.6576
58.6571
58.6635
58.6636
58.6577
58.6577
58.6698
58.6658
58.6732
58.6788
58.6693
58.6748
58.678
58.6739
58.6592
54.998
55.918
56.8744
57.6808
58.2446
58.5726
58.6998
58.7447
58.7462
58.7458
58.7454
58.731
58.7288
58.7323
58.724
58.7291
58.7388
58.7279
58.734
58.7404
58.733
58.7294
58.728
58.7265
58.7354
58.7452
58.7367
58.741
58.742
58.7384
58.7312
58.7282
58.7249
58.726
58.726
58.7219
58.7195
58.706
58.6961
58.698
58.6995
58.6978
58.6975
58.695
58.6934
58.6899
58.6739
58.6751
58.684
58.6796
58.6801
58.6816
58.6802
58.679
58.6819
58.6819
58.6789
58.6727
58.6587
58.6593
58.6629
58.6596
58.6587
58.6601
58.6609
58.649
58.6479
58.6618
58.6652
58.6581
58.6606
58.6782
58.6798
58.6765
58.6695
58.6642
58.6745
58.6804
58.6772
58.6686
58.6652
58.6701
58.6663
58.6727
58.6758
58.673
58.664
58.6646
58.6689
58.6557
54.9965
55.921
56.8672
57.6866
58.2555
58.5621
58.6886
58.711
58.7104
58.7081
58.7026
58.6984
58.7064
58.7291
58.7404
58.7357
58.7391
58.7401
58.7378
58.7375
58.7324
58.7247
58.7268
58.734
58.7409
58.7431
58.7301
58.7345
58.7442
58.7434
58.7435
58.7418
58.7409
58.738
58.7352
58.7323
58.7296
58.7184
58.7122
58.698
58.6816
58.6836
58.6857
58.6784
58.6761
58.6841
58.6892
58.6883
58.6881
58.6835
58.6837
58.6818
58.6779
58.6719
58.668
58.666
58.6618
58.6602
58.6596
58.6561
58.6485
58.6538
58.6573
58.6485
58.6532
58.6668
58.6665
58.6633
58.6523
58.6577
58.6748
58.6769
58.6744
58.6614
58.6659
58.6731
58.6734
58.6733
58.6585
58.6602
58.6793
58.6812
58.6834
58.684
58.6824
58.681
58.6652
58.6663
58.6731
58.6613
54.9989
55.917
56.8672
57.6887
58.2601
58.564
58.6546
58.6568
58.6625
58.6886
58.6897
58.6965
58.7123
58.7033
58.7083
58.7199
58.7071
58.7095
58.7203
58.7092
58.7089
58.7174
58.7109
58.7174
58.726
58.7257
58.7256
58.7133
58.7185
58.7268
58.7173
58.7213
58.7236
58.7223
58.7187
58.7189
58.7192
58.7133
58.7125
58.7134
58.7142
58.7121
58.7096
58.7022
58.6841
58.6761
58.6703
58.6526
58.6519
58.6595
58.6593
58.6539
58.6539
58.6705
58.6726
58.6704
58.6676
58.6603
58.6658
58.6732
58.6682
58.6684
58.6672
58.6556
58.6564
58.6601
58.6555
58.6507
58.6574
58.6744
58.6692
58.6736
58.675
58.6732
58.6717
58.669
58.6639
58.6577
58.6705
58.6867
58.6792
58.6848
58.6876
58.6849
58.686
58.6815
58.6823
58.683
58.6779
58.6596
54.9972
55.9211
56.8679
57.6848
58.2593
58.5556
58.6804
58.698
58.6987
58.6987
58.6867
58.6933
58.7065
58.7011
58.7048
58.7057
58.6962
58.6965
58.717
58.7237
58.7212
58.7162
58.7105
58.7139
58.7141
58.7228
58.7281
58.7258
58.7226
58.7134
58.7164
58.7177
58.7136
58.7136
58.7135
58.7123
58.7096
58.7041
58.6906
58.6872
58.6854
58.6828
58.6785
58.6763
58.6725
58.6646
58.6542
58.6635
58.6786
58.669
58.6734
58.6824
58.6805
58.6782
58.6747
58.6627
58.6614
58.6638
58.6625
58.6557
58.6574
58.6682
58.6677
58.6678
58.668
58.6631
58.6674
58.6853
58.6858
58.6835
58.6876
58.6909
58.6901
58.6902
58.6889
58.688
58.6702
58.6686
58.6823
58.6849
58.6823
58.6738
58.6779
58.6821
58.6778
58.6795
58.6763
58.6742
58.6729
58.6594
54.999
55.9185
56.8681
57.6882
58.2507
58.5631
58.6879
58.7045
58.7052
58.7051
58.6949
58.6916
58.7039
58.7319
58.731
58.7232
58.7201
58.723
58.7179
58.7185
58.7382
58.7454
58.7425
58.736