/*--------------------------------*- C++ -*----------------------------------*\
  =========                 |
  \\      /  F ield         | OpenFOAM: The Open Source CFD Toolbox
   \\    /   O peration     | Website:  https://openfoam.org
    \\  /    A nd           | Version:  11
     \\/     M anipulation  |
\*---------------------------------------------------------------------------*/
FoamFile
{
    format      ascii;
    class       volScalarField;
    location    "0.078";
    object      p;
}
// * * * * * * * * * * * * * * * * * * * * * * * * * * * * * * * * * * * * * //

dimensions      [0 2 -2 0 0 0 0];

internalField   nonuniform List<scalar> 
287084
(
1.68941
1.40232
1.34546
1.27611
1.20647
1.15363
1.10324
1.05676
1.01196
0.968262
0.924565
0.880538
0.836865
0.793039
0.748274
0.702699
0.656748
0.610675
0.564601
0.518827
0.473452
0.42899
0.385348
0.343262
0.30205
0.263199
0.229378
0.199094
0.172207
0.150543
0.128974
0.108205
0.0906314
0.0769309
0.0672249
0.0603407
0.0562199
0.0545575
0.0550157
0.0572936
0.0610912
0.0661259
0.0721138
0.0788108
0.0859825
0.0933998
0.100924
0.108319
0.115457
0.122339
0.128075
0.134053
0.140736
0.145824
0.15033
0.154194
0.157712
0.160414
0.161979
0.162918
0.163186
0.162982
0.162184
0.160874
0.15902
0.156626
0.153774
0.150362
0.146647
0.142218
0.137646
0.133071
0.127654
0.121803
0.115874
0.109522
0.102936
0.0961197
0.0890575
0.0818379
0.0743087
0.066661
0.0588763
0.0508441
0.0424898
0.0342324
0.0254687
0.0157764
0.00506825
0.000359907
1.55371
1.36137
1.31386
1.25573
1.19477
1.14548
1.09758
1.05255
1.0087
0.965536
0.922235
0.878614
0.834878
0.790621
0.745564
0.699941
0.65393
0.607697
0.561422
0.515415
0.469824
0.425163
0.381386
0.339331
0.298494
0.260092
0.226335
0.196722
0.168953
0.142998
0.120495
0.100789
0.084595
0.0718415
0.062471
0.0559906
0.052215
0.0508699
0.0516315
0.0542069
0.0582881
0.0635937
0.0698371
0.0767758
0.0841681
0.0918043
0.0995081
0.107117
0.114473
0.121528
0.128086
0.134244
0.140097
0.145197
0.149652
0.153568
0.1569
0.159559
0.161361
0.162447
0.16289
0.162736
0.162004
0.160717
0.158881
0.156542
0.153664
0.150346
0.146564
0.142358
0.137771
0.132823
0.127459
0.121753
0.115799
0.109461
0.102933
0.0961368
0.0890481
0.08182
0.0743317
0.0666807
0.0588426
0.050875
0.0426503
0.0343328
0.0257615
0.0168662
0.00741005
0.0016727
1.52716
1.35517
1.30596
1.24975
1.19109
1.14242
1.09501
1.05005
1.00605
0.962624
0.919006
0.875179
0.831155
0.786417
0.741014
0.695034
0.648605
0.601901
0.555134
0.508602
0.462526
0.417335
0.373254
0.330783
0.290203
0.252065
0.217137
0.185194
0.156553
0.131429
0.109448
0.0905667
0.0749629
0.0625877
0.0535722
0.0475516
0.0442821
0.0434663
0.0447857
0.047923
0.0525572
0.058395
0.0651509
0.0725683
0.080409
0.088464
0.0965511
0.104505
0.112192
0.119514
0.126322
0.132705
0.138721
0.144019
0.148698
0.152716
0.156035
0.15872
0.160624
0.161835
0.16238
0.162327
0.161636
0.160407
0.158612
0.156284
0.153477
0.150169
0.146427
0.142213
0.137621
0.132732
0.127409
0.121692
0.115739
0.109462
0.102898
0.096072
0.0890525
0.0818212
0.0743648
0.0667407
0.0589127
0.0508788
0.0427686
0.0343276
0.0255119
0.0165332
0.00757628
0.00238613
1.47945
1.32051
1.27689
1.2257
1.17278
1.12779
1.08333
1.04042
0.997911
0.955387
0.912435
0.868873
0.824694
0.779661
0.733902
0.687459
0.64047
0.59313
0.545672
0.498388
0.451573
0.405624
0.360851
0.317747
0.27666
0.238002
0.202497
0.170439
0.141463
0.115788
0.0935936
0.0748806
0.0597562
0.0481283
0.0398627
0.0346792
0.0322675
0.0323307
0.0345285
0.0385346
0.044015
0.0506667
0.0581908
0.0663296
0.0748403
0.0835153
0.0921738
0.100653
0.108829
0.116604
0.123895
0.130633
0.136808
0.142306
0.147118
0.151302
0.154775
0.157552
0.159607
0.160959
0.161633
0.161663
0.161098
0.159937
0.15821
0.155971
0.153182
0.149926
0.14621
0.142053
0.1375
0.132549
0.12725
0.121594
0.11564
0.109361
0.102837
0.0960632
0.0890205
0.0817851
0.0743427
0.0666991
0.0589002
0.0509579
0.0428177
0.0344501
0.0259101
0.0170558
0.00824317
0.00289947
1.45637
1.30604
1.2649
1.21581
1.16506
1.121
1.07714
1.03442
0.991853
0.949103
0.905792
0.861817
0.817093
0.771473
0.725017
0.677779
0.629941
0.581661
0.533217
0.484908
0.437045
0.390066
0.34432
0.300298
0.258406
0.219108
0.18286
0.149908
0.120501
0.0947708
0.0728412
0.0546876
0.040271
0.0294575
0.0220901
0.0178909
0.0165466
0.0177208
0.021049
0.0261772
0.0327591
0.0404689
0.0490032
0.0580905
0.067483
0.0769717
0.0863705
0.0955306
0.104315
0.112629
0.12039
0.127545
0.134081
0.139935
0.145071
0.149501
0.153169
0.156133
0.158365
0.159871
0.160692
0.160867
0.160393
0.159329
0.157689
0.155489
0.152788
0.149589
0.145917
0.141804
0.137279
0.132366
0.127094
0.121454
0.115511
0.109276
0.102769
0.0959934
0.0890004
0.0817926
0.0743691
0.066781
0.0589994
0.0510463
0.0429639
0.0345459
0.0259778
0.0171405
0.00829708
0.00291101
1.4318
1.28313
1.24367
1.1967
1.14838
1.10635
1.06426
1.02292
0.981326
0.939183
0.89616
0.852146
0.807111
0.76095
0.713779
0.665682
0.616823
0.567433
0.517776
0.468186
0.419041
0.370743
0.32376
0.27854
0.235597
0.195344
0.158311
0.124812
0.0950565
0.0692423
0.0474783
0.0297795
0.0160768
0.00622908
-9.26861e-06
-0.00293512
-0.00292346
-0.000339074
0.00441817
0.0109636
0.0189242
0.0279581
0.0377439
0.0480038
0.0584837
0.0689714
0.0792858
0.0892736
0.0988135
0.107804
0.11618
0.12388
0.130873
0.137115
0.142584
0.147298
0.151245
0.154436
0.156875
0.158579
0.159573
0.159884
0.159552
0.158598
0.157052
0.154957
0.15232
0.149175
0.145559
0.141488
0.137005
0.132123
0.126875
0.121278
0.115364
0.109152
0.102661
0.0959157
0.0889265
0.081724
0.0743264
0.0667383
0.0589815
0.0510703
0.0429868
0.0346069
0.0261051
0.0172829
0.0084878
0.00310618
1.41368
1.2677
1.22999
1.18447
1.1376
1.09643
1.05493
1.0138
0.972197
0.929838
0.88642
0.841855
0.796087
0.749061
0.700879
0.651615
0.601493
0.550694
0.499558
0.448424
0.397684
0.347829
0.299298
0.25266
0.208406
0.167045
0.129075
0.0948539
0.0647265
0.0388601
0.0174074
0.00034574
-0.0124268
-0.0211059
-0.0259863
-0.0274134
-0.0257957
-0.0215473
-0.0151056
-0.00689089
0.00269372
0.0132822
0.0245422
0.0361831
0.0479416
0.0596029
0.0709847
0.0819433
0.0923533
0.102126
0.111191
0.119502
0.12703
0.133746
0.139641
0.144728
0.148993
0.152459
0.155144
0.157068
0.158258
0.158746
0.15856
0.157736
0.156308
0.154299
0.151753
0.14869
0.145141
0.141136
0.136708
0.13187
0.12666
0.121095
0.115208
0.109018
0.102553
0.0958268
0.0888648
0.081686
0.0743032
0.0667463
0.0590048
0.0510995
0.0430374
0.0346929
0.0261806
0.0173196
0.00852113
0.00310098
1.39669
1.25101
1.21387
1.16932
1.1234
1.08314
1.04242
1.00188
0.960604
0.918338
0.874739
0.829719
0.783268
0.735332
0.686041
0.635494
0.583899
0.531519
0.478666
0.425735
0.373178
0.32147
0.271183
0.222852
0.177093
0.134425
0.0954088
0.0604672
0.0299443
0.00407732
-0.0170203
-0.0333583
-0.045078
-0.0524182
-0.0557221
-0.0553956
-0.0519035
-0.0457175
-0.0373201
-0.0271741
-0.0157174
-0.00334028
0.00960768
0.0228209
0.0360318
0.0490274
0.0616248
0.0736789
0.085076
0.0957305
0.105584
0.114592
0.122736
0.129991
0.136357
0.141848
0.146476
0.150263
0.153229
0.155398
0.156805
0.157479
0.157458
0.156779
0.155475
0.15358
0.151126
0.148144
0.144666
0.140722
0.136345
0.131553
0.126383
0.120859
0.115006
0.108854
0.102416
0.0957164
0.0887766
0.0816202
0.074261
0.0667204
0.0590028
0.0511266
0.0430784
0.0347672
0.026286
0.0173405
0.00850849
0.00311271
1.3819
1.237
1.20064
1.15676
1.11156
1.07177
1.03135
0.990865
0.949434
0.906846
0.862664
0.816897
0.76948
0.720393
0.669758
0.617674
0.564402
0.510169
0.455363
0.400386
0.345718
0.29194
0.239602
0.189383
0.141899
0.097765
0.057593
0.0218275
-0.00908131
-0.0349382
-0.0555734
-0.0710515
-0.0815322
-0.0873136
-0.0888104
-0.0864849
-0.0808727
-0.0725024
-0.0619128
-0.0496072
-0.0360552
-0.0216824
-0.0068596
0.00810253
0.0229267
0.0373928
0.0513279
0.0645904
0.0770721
0.0886975
0.0994102
0.109182
0.117994
0.125841
0.13273
0.138681
0.143713
0.147848
0.151118
0.153557
0.155202
0.156087
0.156252
0.155729
0.154564
0.152786
0.150438
0.147547
0.144152
0.140282
0.135965
0.131229
0.126105
0.120621
0.114803
0.108677
0.102271
0.0955994
0.0886828
0.0815462
0.0742063
0.0666875
0.0589843
0.0511193
0.0430904
0.0348314
0.0263892
0.0174198
0.00850916
0.00311375
1.36825
1.22348
1.18738
1.14387
1.09902
1.05953
1.0193
0.978858
0.937268
0.894276
0.849545
0.802952
0.754498
0.704142
0.652023
0.598261
0.543098
0.486837
0.429844
0.37259
0.315612
0.259495
0.204929
0.15258
0.103202
0.0574481
0.0159968
-0.0206106
-0.0519438
-0.0777224
-0.097825
-0.112308
-0.121388
-0.125427
-0.124892
-0.120341
-0.112367
-0.101575
-0.0885577
-0.0738708
-0.0580264
-0.0414733
-0.0246039
-0.0077455
0.00882439
0.0248867
0.0402661
0.0548335
0.0684853
0.0811538
0.0927997
0.103392
0.112929
0.121412
0.128861
0.135301
0.14076
0.145271
0.148873
0.151603
0.153498
0.154601
0.154955
0.154604
0.153586
0.151938
0.149702
0.146911
0.143597
0.139796
0.135542
0.130862
0.125789
0.120354
0.114577
0.108487
0.102109
0.0954651
0.0885739
0.0814614
0.0741417
0.0666419
0.0589575
0.0511117
0.0430863
0.0348023
0.0263379
0.017379
0.00852776
0.00312773
1.35575
1.21116
1.1753
1.13204
1.08741
1.04802
1.00777
0.967117
0.925143
0.88155
0.836026
0.788448
0.738764
0.686977
0.633194
0.577555
0.520339
0.461821
0.402447
0.342703
0.283165
0.224524
0.167475
0.112837
0.0613835
0.0138809
-0.0289184
-0.0664479
-0.0981682
-0.123841
-0.143288
-0.15664
-0.164141
-0.16623
-0.163464
-0.156465
-0.145919
-0.132497
-0.116858
-0.0996125
-0.0813056
-0.0624193
-0.043365
-0.0244815
-0.00605072
0.0117042
0.0286201
0.0445648
0.0594475
0.0732131
0.0858313
0.0972906
0.107587
0.116742
0.124783
0.131744
0.137658
0.142565
0.146512
0.149543
0.151706
0.153041
0.1536
0.153426
0.152563
0.151048
0.148928
0.146237
0.143013
0.139295
0.135109
0.130489
0.125468
0.120076
0.114338
0.108284
0.101938
0.0953204
0.088457
0.0813678
0.0740664
0.0665874
0.0589173
0.0510793
0.0430642
0.0348015
0.0263142
0.017349
0.00855528
0.0031735
1.34414
1.19957
1.16378
1.12062
1.076
1.03657
0.996147
0.95519
0.912742
0.868457
0.822068
0.773378
0.722376
0.669019
0.613445
0.555798
0.496342
0.435425
0.37348
0.311067
0.248804
0.187428
0.127766
0.0706456
0.0169949
-0.032364
-0.0765998
-0.115049
-0.14717
-0.172646
-0.191362
-0.203448
-0.209219
-0.209195
-0.204002
-0.194374
-0.181064
-0.164833
-0.146403
-0.126437
-0.105529
-0.0841836
-0.0628352
-0.0418349
-0.0214647
-0.00194138
0.0165653
0.0339401
0.0501043
0.065012
0.0786445
0.0909981
0.102086
0.111934
0.120585
0.128076
0.134455
0.139771
0.144075
0.14742
0.149856
0.151431
0.152198
0.152213
0.151509
0.150131
0.14813
0.145543
0.142413
0.138773
0.134659
0.130099
0.125129
0.119784
0.114089
0.108073
0.101757
0.0951684
0.0883313
0.0812669
0.0739886
0.0665224
0.0588667
0.0510493
0.0430483
0.0348106
0.0263833
0.0173835
0.00850774
0.00313449
1.33336
1.18879
1.15301
1.10987
1.06517
1.02558
0.984874
0.943479
0.900425
0.855355
0.807955
0.758062
0.705606
0.650581
0.593093
0.533303
0.471498
0.408015
0.343365
0.278107
0.212959
0.14872
0.0862609
0.0265671
-0.0294013
-0.0806939
-0.126394
-0.165785
-0.198239
-0.223475
-0.241337
-0.252034
-0.255928
-0.253625
-0.245853
-0.23343
-0.217214
-0.198037
-0.176697
-0.153909
-0.130303
-0.10642
-0.0827061
-0.0595276
-0.0371654
-0.0158358
0.00430184
0.0231392
0.0406082
0.0566743
0.0713327
0.0845949
0.0964836
0.107041
0.11631
0.124347
0.131205
0.136938
0.141608
0.145269
0.147985
0.149803
0.150782
0.150975
0.150431
0.149195
0.147317
0.144839
0.141799
0.138242
0.134199
0.129705
0.124791
0.119491
0.113837
0.107859
0.101577
0.0950161
0.0882004
0.081158
0.0738994
0.0664544
0.0588119
0.051
0.0430045
0.0347516
0.0262619
0.0173061
0.00855965
0.00320392
1.32332
1.17873
1.1429
1.09968
1.0548
1.01495
0.973882
0.931968
0.888239
0.842294
0.793845
0.742652
0.688685
0.631894
0.572413
0.510394
0.446125
0.380003
0.312521
0.244343
0.176188
0.108967
0.0436487
-0.0187321
-0.0770703
-0.13034
-0.177524
-0.21782
-0.250593
-0.275497
-0.292429
-0.301622
-0.303519
-0.298821
-0.288348
-0.273029
-0.253801
-0.231594
-0.207263
-0.181584
-0.15523
-0.128765
-0.102658
-0.077276
-0.0529068
-0.0297603
-0.00798483
0.0123257
0.0311074
0.0483394
0.0640305
0.0782023
0.0908945
0.102157
0.112049
0.120628
0.127959
0.134111
0.139145
0.143123
0.146112
0.148171
0.149362
0.149744
0.14936
0.148265
0.146508
0.144135
0.14119
0.137713
0.133742
0.129306
0.124446
0.119194
0.113582
0.107639
0.101387
0.0948582
0.0880714
0.0810491
0.073813
0.0663828
0.0587511
0.0509567
0.0429621
0.0347385
0.0262583
0.0172882
0.00854524
0.00318924
1.31403
1.16939
1.13346
1.09013
1.04504
1.00488
0.963373
0.920869
0.876377
0.829526
0.779946
0.727412
0.671865
0.613272
0.551733
0.487423
0.420646
0.351797
0.281449
0.210249
0.13905
0.0687958
0.000545294
-0.0645344
-0.125274
-0.180503
-0.229144
-0.270317
-0.303322
-0.327829
-0.343733
-0.351332
-0.351145
-0.343967
-0.330722
-0.312442
-0.290163
-0.264897
-0.237564
-0.20899
-0.179887
-0.150854
-0.12236
-0.0947868
-0.0684232
-0.0434728
-0.0200757
0.00168171
0.0217537
0.0401359
0.056843
0.0719129
0.0853951
0.0973552
0.107856
0.11697
0.124769
0.131327
0.136718
0.141008
0.144275
0.146575
0.147975
0.148532
0.148304
0.147349
0.145712
0.143443
0.140586
0.137188
0.133286
0.128915
0.12411
0.118904
0.113334
0.107428
0.101209
0.0947045
0.0879376
0.0809393
0.0737187
0.0663079
0.058692
0.050911
0.0429336
0.0347085
0.0262562
0.0172916
0.00854016
0.00319482
1.30545
1.16078
1.12473
1.08123
1.03586
0.995341
0.953353
0.910249
0.864989
0.817164
0.76643
0.712542
0.655408
0.594986
0.531394
0.464785
0.395481
0.323919
0.250662
0.176479
0.102203
0.0289238
-0.0422356
-0.11001
-0.17311
-0.230266
-0.280308
-0.32229
-0.355474
-0.379502
-0.39432
-0.400267
-0.39795
-0.388264
-0.372237
-0.351002
-0.325687
-0.297388
-0.267086
-0.23566
-0.203859
-0.172302
-0.141481
-0.111775
-0.0834722
-0.0567689
-0.0317977
-0.00862881
0.0127006
0.0321963
0.049894
0.0658323
0.0800805
0.0927109
0.103802
0.113437
0.121689
0.128643
0.134381
0.138973
0.142495
0.145021
0.146622
0.147358
0.147283
0.146461
0.144942
0.142776
0.140009
0.136687
0.13285
0.128533
0.12378
0.118622
0.113089
0.107214
0.101025
0.0945489
0.087808
0.0808286
0.0736283
0.0662321
0.0586309
0.0508546
0.0428894
0.0346665
0.0262152
0.0172627
0.00852442
0.00320616
1.29764
1.15289
1.11671
1.07303
1.02739
0.986477
0.944015
0.900249
0.854203
0.805421
0.753559
0.698299
0.639585
0.577364
0.511728
0.442855
0.371068
0.296815
0.220731
0.143576
0.0663165
-0.00993967
-0.0839446
-0.154328
-0.219707
-0.27869
-0.330054
-0.372746
-0.406025
-0.429514
-0.443194
-0.447464
-0.44302
-0.430849
-0.412089
-0.387967
-0.359703
-0.328467
-0.295299
-0.261128
-0.226735
-0.192761
-0.159706
-0.127955
-0.0977953
-0.0694161
-0.0429408
-0.0184302
0.00409322
0.0246508
0.0432844
0.0600516
0.0750237
0.0882939
0.0999472
0.110074
0.118757
0.126083
0.132148
0.137028
0.140804
0.143553
0.145348
0.146247
0.146317
0.145618
0.144208
0.142138
0.139454
0.136204
0.132431
0.128175
0.123472
0.118356
0.112861
0.107018
0.100857
0.0944063
0.0876859
0.0807306
0.0735433
0.0661629
0.0585733
0.0508172
0.042867
0.0346768
0.0262643
0.017266
0.0084802
0.00316348
1.29058
1.14577
1.10944
1.06558
1.01963
0.978343
0.935359
0.890992
0.844108
0.794456
0.741493
0.684888
0.624651
0.560693
0.493106
0.422048
0.347872
0.271054
0.192224
0.112249
0.0320929
-0.0469834
-0.123712
-0.196568
-0.264089
-0.324791
-0.377347
-0.420668
-0.453962
-0.476868
-0.489398
-0.492016
-0.485501
-0.470938
-0.449562
-0.422687
-0.391623
-0.357606
-0.321729
-0.284968
-0.248134
-0.211884
-0.176732
-0.143066
-0.111168
-0.0812229
-0.0533418
-0.027572
-0.00392615
0.01762
0.0371268
0.0546648
0.0703211
0.0841863
0.0963607
0.106943
0.116022
0.123701
0.130076
0.135222
0.13923
0.142183
0.14415
0.145204
0.145409
0.144831
0.143524
0.141543
0.138938
0.135759
0.132048
0.12784
0.12318
0.118103
0.112642
0.10683
0.100694
0.0942656
0.0875662
0.0806263
0.0734536
0.0660867
0.0585133
0.0507695
0.0428262
0.0346543
0.0262694
0.0172913
0.00845814
0.00313461
1.28431
1.13944
1.10295
1.05891
1.01268
0.971003
0.927565
0.882574
0.835019
0.78443
0.730357
0.67256
0.610897
0.545302
0.475865
0.402762
0.326336
0.247093
0.165714
0.0830708
0.000242133
-0.081498
-0.160736
-0.235878
-0.305373
-0.367606
-0.421228
-0.465045
-0.498295
-0.520581
-0.531985
-0.533015
-0.524545
-0.507736
-0.483918
-0.454489
-0.42083
-0.384248
-0.345881
-0.306743
-0.267671
-0.22934
-0.192272
-0.156856
-0.12337
-0.0919914
-0.0628272
-0.0359165
-0.011256
0.0111996
0.0315054
0.0497489
0.0660207
0.0804282
0.0930817
0.104085
0.113535
0.12153
0.12818
0.133574
0.137795
0.140932
0.143067
0.14426
0.144588
0.144115
0.142902
0.141003
0.138468
0.135349
0.131692
0.127533
0.122915
0.117877
0.112448
0.106663
0.10055
0.094144
0.0874675
0.0805451
0.0733836
0.0660312
0.0584635
0.050727
0.0427958
0.0346212
0.0262112
0.0172211
0.00846771
0.00317911
1.27885
1.13393
1.09732
1.05308
1.00658
0.964555
0.920661
0.875144
0.826918
0.775472
0.720443
0.661516
0.598547
0.531464
0.460353
0.38538
0.306922
0.225482
0.141763
0.0567204
-0.028565
-0.112674
-0.194194
-0.271374
-0.342618
-0.406217
-0.46073
-0.50496
-0.538098
-0.559777
-0.570114
-0.569677
-0.559415
-0.540569
-0.514548
-0.482824
-0.446852
-0.407976
-0.367386
-0.326125
-0.285056
-0.244866
-0.206088
-0.169111
-0.13421
-0.101559
-0.0712464
-0.0433126
-0.0177434
0.0055104
0.0265281
0.045401
0.0622265
0.0771133
0.0901842
0.101553
0.111324
0.119604
0.126501
0.132108
0.136518
0.13982
0.142095
0.143417
0.143855
0.143478
0.142346
0.140518
0.138049
0.134986
0.131378
0.12726
0.122679
0.117668
0.112268
0.10651
0.100419
0.094029
0.0873652
0.0804557
0.0733094
0.0659649
0.0584072
0.0506803
0.0427504
0.0345871
0.0261752
0.0171971
0.00846631
0.00318115
1.27427
1.12927
1.0925
1.04817
1.00138
0.959057
0.914767
0.868757
0.819941
0.767789
0.711902
0.651979
0.587864
0.519467
0.446879
0.370276
0.290016
0.206641
0.120892
0.0337345
-0.0536616
-0.139872
-0.22336
-0.302297
-0.37505
-0.43977
-0.495026
-0.539543
-0.572552
-0.593652
-0.60302
-0.601278
-0.589442
-0.568818
-0.540884
-0.507175
-0.469194
-0.428342
-0.385836
-0.342752
-0.299968
-0.258186
-0.217941
-0.179626
-0.143513
-0.109764
-0.0784742
-0.0496669
-0.0233228
0.000622102
0.0222434
0.0416465
0.0589421
0.0742493
0.087684
0.0993704
0.109424
0.117948
0.125061
0.130853
0.135427
0.138869
0.141268
0.142696
0.143229
0.142935
0.141876
0.140108
0.137692
0.134677
0.131108
0.127029
0.122482
0.1175
0.112121
0.106379
0.100307
0.0939373
0.0872894
0.0803935
0.073257
0.0659242
0.0583729
0.0506562
0.0427357
0.0345715
0.026182
0.0172006
0.00845662
0.00317287
1.27054
1.12551
1.08865
1.04415
0.997177
0.954574
0.909961
0.863528
0.814218
0.761449
0.70485
0.644109
0.579034
0.50955
0.435737
0.35776
0.276015
0.191034
0.103581
0.0146762
-0.0745102
-0.162426
-0.247558
-0.327938
-0.401912
-0.467568
-0.523343
-0.568078
-0.600942
-0.621536
-0.630086
-0.627246
-0.614095
-0.591996
-0.562484
-0.52714
-0.487518
-0.445044
-0.400971
-0.356389
-0.312196
-0.269106
-0.227655
-0.188239
-0.151128
-0.116488
-0.0843939
-0.0548673
-0.0278829
-0.00337691
0.0187452
0.0385898
0.0562783
0.0719239
0.0856525
0.0975937
0.107871
0.116599
0.123883
0.129826
0.134532
0.13809
0.140588
0.142109
0.142717
0.142486
0.141483
0.139767
0.137394
0.134416
0.130882
0.126832
0.122312
0.117352
0.111995
0.106275
0.100215
0.0938556
0.0872175
0.0803305
0.0732024
0.0658724
0.0583321
0.0506161
0.0427058
0.0345508
0.0261517
0.0171786
0.00844217
0.00317663
1.26772
1.12267
1.08572
1.04111
0.993965
0.951173
0.906289
0.859539
0.80983
0.756611
0.699461
0.638071
0.572256
0.501919
0.427146
0.348117
0.265208
0.178979
0.0902164
-4.62482e-05
-0.0905905
-0.179836
-0.266225
-0.34769
-0.422657
-0.488936
-0.545109
-0.589949
-0.622718
-0.642901
-0.650798
-0.647107
-0.63294
-0.609707
-0.578982
-0.542386
-0.501504
-0.457792
-0.412521
-0.366797
-0.32153
-0.277442
-0.235071
-0.194819
-0.156948
-0.121619
-0.0889133
-0.0588386
-0.0313706
-0.00643397
0.0160684
0.0362469
0.0542265
0.0701353
0.0840942
0.0962369
0.106685
0.11556
0.12298
0.129041
0.133848
0.137493
0.140071
0.141653
0.14232
0.142144
0.141187
0.13951
0.137173
0.134226
0.130716
0.126691
0.122185
0.117243
0.111902
0.106191
0.100145
0.093794
0.0871655
0.0802894
0.0731674
0.0658495
0.0583132
0.0506064
0.042692
0.0345408
0.0261309
0.0171496
0.00844521
0.00317822
1.26583
1.12076
1.08375
1.03906
0.991811
0.948862
0.903817
0.85684
0.806861
0.753318
0.695791
0.633975
0.567651
0.496746
0.421328
0.34157
0.257876
0.170804
0.0811377
-0.0100432
-0.101541
-0.191664
-0.278945
-0.361132
-0.436868
-0.503514
-0.559783
-0.604693
-0.637438
-0.657341
-0.664799
-0.660522
-0.645666
-0.621662
-0.590117
-0.552676
-0.510947
-0.466401
-0.42032
-0.373825
-0.327834
-0.28307
-0.240077
-0.199258
-0.160872
-0.125082
-0.0919618
-0.0615206
-0.0337224
-0.00849499
0.0142629
0.0346666
0.0528465
0.0689261
0.0830376
0.0953131
0.105883
0.114863
0.122372
0.128513
0.133388
0.137095
0.139722
0.141356
0.142062
0.141917
0.140987
0.139337
0.137019
0.134088
0.130599
0.126584
0.122096
0.117169
0.111837
0.106136
0.100095
0.0937536
0.0871312
0.0802561
0.0731389
0.0658195
0.0582895
0.0505843
0.0426838
0.0345411
0.0261678
0.0171967
0.00843174
0.00316713
1.26488
1.11981
1.08276
1.03804
0.990737
0.947704
0.902601
0.855475
0.805377
0.751679
0.693938
0.63191
0.565331
0.494126
0.41837
0.338251
0.254151
0.166648
0.0765341
-0.0151146
-0.107072
-0.197661
-0.28537
-0.367931
-0.44409
-0.510988
-0.567074
-0.612103
-0.644848
-0.664613
-0.67185
-0.667281
-0.652072
-0.627682
-0.595722
-0.557854
-0.515694
-0.470726
-0.424238
-0.377359
-0.331004
-0.285902
-0.242601
-0.201497
-0.162853
-0.126828
-0.0934997
-0.0628707
-0.0349082
-0.00953371
0.013357
0.0338788
0.052157
0.0683235
0.0825108
0.0948553
0.105482
0.11451
0.122066
0.128246
0.133156
0.136892
0.139543
0.141193
0.141923
0.141797
0.140885
0.139247
0.136943
0.134026
0.130541
0.126535
0.12205
0.117129
0.111801
0.106104
0.100075
0.0937348
0.0871142
0.0802408
0.0731252
0.0658158
0.058285
0.0505822
0.0426774
0.034529
0.0261277
0.0171393
0.00842836
0.00318329
1.26489
1.1198
1.08276
1.03804
0.99074
0.947702
0.902602
0.855479
0.805382
0.751674
0.693926
0.631912
0.565331
0.494133
0.418382
0.33826
0.254169
0.16666
0.0765447
-0.0151
-0.107066
-0.197647
-0.285361
-0.367922
-0.44409
-0.510973
-0.567049
-0.612106
-0.644834
-0.6646
-0.671836
-0.667265
-0.652059
-0.627668
-0.595709
-0.557842
-0.515683
-0.470715
-0.424227
-0.377347
-0.330992
-0.28589
-0.242588
-0.201485
-0.162842
-0.126821
-0.0934964
-0.0628714
-0.0349059
-0.0095304
0.0133568
0.0338726
0.0521506
0.0683183
0.0825074
0.094851
0.105478
0.11451
0.122066
0.128244
0.133154
0.136892
0.139545
0.141198
0.141927
0.141804
0.140888
0.13925
0.136944
0.134021
0.130538
0.126533
0.12205
0.117129
0.111802
0.106106
0.10007
0.0937316
0.0871117
0.0802379
0.0731246
0.0658068
0.0582773
0.0505771
0.0426737
0.0345306
0.0261479
0.0171724
0.00842787
0.00316438
1.26584
1.12077
1.08376
1.03907
0.991828
0.948872
0.903853
0.856846
0.806874
0.753332
0.695794
0.633985
0.567661
0.496756
0.421327
0.341579
0.257881
0.170813
0.0811474
-0.0100274
-0.101512
-0.191638
-0.27891
-0.361081
-0.436836
-0.503424
-0.559705
-0.604705
-0.637397
-0.657297
-0.664754
-0.660477
-0.64562
-0.621621
-0.590079
-0.55264
-0.510912
-0.466366
-0.420288
-0.373798
-0.327812
-0.283051
-0.240062
-0.199243
-0.16086
-0.125072
-0.0919524
-0.0615116
-0.0337143
-0.00848591
0.0142737
0.0346789
0.052862
0.0689424
0.0830502
0.0953264
0.105893
0.114868
0.122373
0.12851
0.133386
0.137091
0.139719
0.141346
0.142054
0.14191
0.140982
0.139332
0.137016
0.134088
0.130594
0.126581
0.122089
0.117162
0.111829
0.106128
0.100094
0.0937528
0.0871302
0.080255
0.0731357
0.0658202
0.0582838
0.0505838
0.0426737
0.0345277
0.0261256
0.0171411
0.00843272
0.0031789
1.26773
1.12268
1.08573
1.04111
0.99398
0.951178
0.906305
0.859558
0.80984
0.756614
0.699456
0.638086
0.572269
0.50194
0.427171
0.348139
0.265242
0.179014
0.0902516
-2.26944e-06
-0.0905531
-0.179778
-0.266178
-0.347626
-0.422609
-0.488817
-0.545026
-0.589928
-0.622649
-0.642835
-0.650727
-0.647036
-0.632868
-0.609635
-0.578914
-0.542321
-0.501445
-0.457738
-0.412471
-0.366754
-0.321488
-0.277403
-0.235037
-0.194787
-0.156919
-0.121594
-0.0888927
-0.0588214
-0.0313539
-0.00641963
0.0160807
0.0362563
0.0542351
0.0701393
0.0840945
0.096235
0.106688
0.115563
0.122979
0.12904
0.133846
0.137494
0.140068
0.141652
0.142324
0.142148
0.141188
0.139511
0.137171
0.134218
0.130709
0.126682
0.122177
0.117237
0.111896
0.106184
0.100138
0.0937891
0.0871589
0.0802769
0.0731573
0.0658337
0.0582988
0.0505905
0.0426808
0.0345092
0.0261124
0.0171711
0.00847104
0.00321102
1.27054
1.12553
1.08866
1.04416
0.997192
0.954587
0.909992
0.863541
0.814232
0.761472
0.70487
0.644131
0.579055
0.509581
0.435761
0.357797
0.276044
0.19107
0.103625
0.0147197
-0.0744438
-0.162367
-0.247477
-0.32786
-0.401824
-0.467458
-0.523256
-0.567989
-0.600838
-0.62143
-0.629979
-0.627143
-0.613995
-0.591901
-0.562391
-0.527053
-0.487437
-0.44497
-0.400906
-0.356333
-0.312148
-0.26906
-0.227613
-0.1882
-0.151092
-0.116454
-0.0843641
-0.0548399
-0.02786
-0.00335698
0.0187618
0.0386035
0.0562895
0.071935
0.0856642
0.0976061
0.107882
0.116605
0.123887
0.129828
0.134532
0.138086
0.140585
0.142101
0.14271
0.142479
0.141478
0.139765
0.137391
0.134412
0.130877
0.126828
0.122301
0.117341
0.111983
0.106262
0.100207
0.0938477
0.0872121
0.0803264
0.0731938
0.0658658
0.0583208
0.0506149
0.0426928
0.0345393
0.0261482
0.0171637
0.00844642
0.00317625
1.27427
1.12929
1.09255
1.04816
1.0014
0.959065
0.914788
0.86878
0.81996
0.767801
0.711908
0.652004
0.587891
0.519501
0.44692
0.370313
0.290072
0.2067
0.120951
0.0338098
-0.0535922
-0.139778
-0.223271
-0.302199
-0.374938
-0.439653
-0.494898
-0.539431
-0.572419
-0.593526
-0.602893
-0.601154
-0.589315
-0.568695
-0.540768
-0.507064
-0.469094
-0.428251
-0.385757
-0.342683
-0.299902
-0.258126
-0.217884
-0.179572
-0.143461
-0.109718
-0.0784343
-0.0496303
-0.0232908
0.000648589
0.0222715
0.0416702
0.0589615
0.0742644
0.0876963
0.0993786
0.109426
0.117948
0.125056
0.130852
0.135427
0.138871
0.141266
0.142693
0.143227
0.142935
0.141872
0.140105
0.137689
0.134669
0.131098
0.127017
0.122467
0.117488
0.11211
0.106369
0.100299
0.0939226
0.0872712
0.0803762
0.0732404
0.0659035
0.058354
0.0506354
0.0427154
0.0345539
0.0261531
0.0171836
0.00846419
0.00319392
1.27886
1.13396
1.09733
1.0531
1.00659
0.964569
0.920692
0.875159
0.826939
0.775504
0.720467
0.661548
0.598581
0.53151
0.460399
0.385439
0.306979
0.225538
0.141842
0.0567902
-0.0284621
-0.112586
-0.194077
-0.271266
-0.342488
-0.406081
-0.460588
-0.504812
-0.537948
-0.559624
-0.569964
-0.569529
-0.559271
-0.54043
-0.514413
-0.482696
-0.446731
-0.407863
-0.367285
-0.326033
-0.284972
-0.24479
-0.206018
-0.169047
-0.13415
-0.101503
-0.0711986
-0.0432704
-0.017709
0.00554012
0.0265483
0.0454106
0.0622329
0.0771228
0.0901936
0.101559
0.111332
0.119615
0.12651
0.132112
0.136521
0.139817
0.142092
0.143412
0.143851
0.143471
0.14234
0.140516
0.138043
0.134979
0.13137
0.127253
0.122669
0.117659
0.112254
0.106495
0.100408
0.0940194
0.0873534
0.0804443
0.0732933
0.0659495
0.0583924
0.0506727
0.042736
0.0345731
0.0261609
0.0171811
0.0084639
0.00316841
1.28432
1.13946
1.10298
1.05893
1.01269
0.971021
0.92758
0.882614
0.835065
0.784434
0.73037
0.672589
0.610932
0.545345
0.475925
0.402825
0.326412
0.247175
0.165796
0.0831751
0.000345524
-0.081373
-0.160607
-0.235741
-0.305217
-0.367454
-0.421057
-0.464885
-0.498122
-0.520412
-0.531815
-0.532849
-0.52438
-0.507576
-0.483764
-0.454342
-0.420696
-0.384126
-0.345769
-0.306644
-0.267578
-0.229256
-0.192196
-0.156789
-0.123308
-0.0919329
-0.0627711
-0.0358616
-0.0112056
0.0112416
0.0315441
0.0497802
0.06605
0.0804579
0.0931013
0.104092
0.113536
0.121532
0.128179
0.133569
0.137792
0.14093
0.14306
0.144254
0.144583
0.144112
0.142897
0.140998
0.138464
0.135343
0.131682
0.127521
0.1229
0.117858
0.112431
0.106646
0.100535
0.0941253
0.0874444
0.0805202
0.0733593
0.066004
0.0584346
0.0507021
0.0427582
0.0345867
0.0261509
0.0171792
0.00848507
0.00318398
1.2906
1.14579
1.10943
1.06561
1.01966
0.978354
0.935408
0.891014
0.844198
0.794476
0.741465
0.684925
0.624699
0.560752
0.493169
0.422118
0.347957
0.271127
0.19233
0.112336
0.032222
-0.0468722
-0.123564
-0.196421
-0.263929
-0.324623
-0.377168
-0.420479
-0.453776
-0.476675
-0.489211
-0.491831
-0.485328
-0.470769
-0.449394
-0.422526
-0.39147
-0.357462
-0.321597
-0.284847
-0.248025
-0.211784
-0.176643
-0.142988
-0.111098
-0.0811549
-0.0532767
-0.027518
-0.00387901
0.0176649
0.0371645
0.0546948
0.0703423
0.0842035
0.0963717
0.106947
0.116031
0.123711
0.13008
0.135222
0.139231
0.142178
0.144145
0.145197
0.145404
0.144825
0.143518
0.141537
0.138931
0.13575
0.132037
0.12783
0.123167
0.11809
0.112625
0.106814
0.100678
0.0942493
0.087548
0.0806085
0.0734333
0.0660641
0.0584875
0.0507433
0.0427983
0.0345777
0.0261768
0.0172504
0.00851088
0.00320228
1.29765
1.15291
1.11674
1.07305
1.02741
0.986513
0.94403
0.90031
0.854253
0.805456
0.753559
0.698333
0.63963
0.577415
0.511797
0.442931
0.371156
0.296922
0.22084
0.143703
0.0664468
-0.00979807
-0.0837852
-0.154166
-0.219525
-0.278512
-0.329857
-0.372551
-0.405825
-0.42931
-0.442993
-0.447265
-0.442827
-0.430664
-0.411912
-0.387798
-0.359543
-0.328321
-0.295162
-0.261003
-0.226617
-0.192652
-0.159608
-0.127871
-0.0977172
-0.0693444
-0.0428738
-0.0183673
0.00415155
0.0247046
0.0433309
0.0600932
0.0750619
0.0883235
0.099966
0.110085
0.118761
0.126086
0.132147
0.137026
0.140801
0.143545
0.145339
0.14624
0.14631
0.145615
0.144204
0.142133
0.13945
0.136198
0.132421
0.128161
0.123454
0.118338
0.112842
0.106996
0.100833
0.0943804
0.0876592
0.0807
0.0735093
0.0661286
0.0585396
0.0507821
0.0428269
0.0346247
0.0261883
0.0172007
0.00849404
0.00320436
1.30549
1.1608
1.12471
1.08127
1.03589
0.995371
0.95339
0.910275
0.865032
0.817206
0.766466
0.712587
0.655459
0.595051
0.53147
0.464867
0.395588
0.324009
0.250794
0.176587
0.102354
0.0290634
-0.0420716
-0.109839
-0.172926
-0.230073
-0.280107
-0.322079
-0.355263
-0.379286
-0.39411
-0.400055
-0.397752
-0.388067
-0.372044
-0.350817
-0.325514
-0.297226
-0.266938
-0.235524
-0.203737
-0.172189
-0.141381
-0.111686
-0.0833896
-0.0566909
-0.0317202
-0.00856129
0.0127633
0.0322563
0.0499423
0.0658724
0.0801119
0.092737