/*--------------------------------*- C++ -*----------------------------------*\
  =========                 |
  \\      /  F ield         | OpenFOAM: The Open Source CFD Toolbox
   \\    /   O peration     | Website:  https://openfoam.org
    \\  /    A nd           | Version:  11
     \\/     M anipulation  |
\*---------------------------------------------------------------------------*/
FoamFile
{
    format      ascii;
    class       volScalarField;
    location    "0.01";
    object      p;
}
// * * * * * * * * * * * * * * * * * * * * * * * * * * * * * * * * * * * * * //

dimensions      [0 2 -2 0 0 0 0];

internalField   nonuniform List<scalar> 
287084
(
1.12825
0.855935
0.755415
0.68682
0.625391
0.575881
0.533756
0.494976
0.458196
0.423054
0.389381
0.356212
0.32371
0.291413
0.259115
0.227211
0.195675
0.16386
0.132398
0.102058
0.072067
0.0433789
0.0169038
-0.00736143
-0.0282406
-0.0478866
-0.067723
-0.08176
-0.0896346
-0.0998523
-0.110966
-0.117377
-0.119824
-0.119945
-0.117454
-0.112564
-0.104957
-0.0954174
-0.0843284
-0.0713413
-0.0571276
-0.041972
-0.0261554
-0.00998489
0.00624575
0.0222859
0.0379105
0.052878
0.066973
0.0800094
0.0917345
0.101423
0.109482
0.118649
0.130923
0.143204
0.147413
0.147026
0.149279
0.153787
0.159767
0.161848
0.159547
0.160879
0.162202
0.159888
0.157581
0.154072
0.15011
0.146027
0.143129
0.139907
0.133015
0.125648
0.119655
0.113232
0.105909
0.0977787
0.0893754
0.0811521
0.0727927
0.0642199
0.0556938
0.0468145
0.0378674
0.0293283
0.0207079
0.0115992
0.00286879
-0.00154379
0.987533
0.810597
0.730731
0.671377
0.617064
0.569972
0.528523
0.490452
0.454439
0.419895
0.386143
0.353157
0.320603
0.288594
0.256315
0.224155
0.192273
0.160389
0.128996
0.0984437
0.0687508
0.0400098
0.0132378
-0.0106568
-0.0322214
-0.0526405
-0.0707792
-0.0850605
-0.0971145
-0.107834
-0.116836
-0.122596
-0.124913
-0.124656
-0.121894
-0.116851
-0.109217
-0.0992064
-0.0877801
-0.0746251
-0.0601449
-0.0447118
-0.0286402
-0.0121962
0.00428743
0.0205756
0.0363996
0.0515755
0.0659239
0.0792619
0.0914982
0.102551
0.112632
0.122283
0.131535
0.139482
0.144964
0.148696
0.151946
0.154838
0.15794
0.160582
0.161788
0.161883
0.161135
0.15954
0.157099
0.15382
0.150117
0.146133
0.142032
0.137352
0.131487
0.125195
0.118853
0.112166
0.104963
0.0972906
0.0893608
0.0812899
0.0730383
0.0646757
0.0561805
0.0474689
0.0386005
0.0300032
0.0214682
0.0126585
0.00454101
-6.30954e-05
0.946189
0.787901
0.713634
0.657542
0.606275
0.561401
0.521086
0.483718
0.448076
0.413653
0.380284
0.347448
0.314897
0.282362
0.250053
0.21763
0.185354
0.153511
0.122314
0.0915206
0.0613221
0.0328036
0.00559001
-0.0192835
-0.0411205
-0.0612947
-0.0795689
-0.0953668
-0.108206
-0.1191
-0.127453
-0.132504
-0.134699
-0.134118
-0.130968
-0.125123
-0.117323
-0.107194
-0.0948389
-0.0811328
-0.066139
-0.0501525
-0.0335353
-0.0166098
0.000356229
0.0170946
0.03338
0.0489742
0.0637043
0.0774943
0.0902227
0.10179
0.112249
0.121818
0.130662
0.138463
0.144505
0.149033
0.152695
0.155858
0.15865
0.160555
0.161363
0.16133
0.160564
0.158954
0.156621
0.153603
0.150014
0.14598
0.141512
0.136532
0.130885
0.124774
0.118384
0.111647
0.104503
0.0969888
0.0892029
0.0812217
0.0730597
0.0646976
0.0562187
0.0475815
0.0388496
0.0301505
0.0216434
0.0131315
0.00496799
-0.000151061
0.905793
0.757581
0.691574
0.640198
0.592464
0.549783
0.510902
0.474118
0.438842
0.404862
0.371453
0.338522
0.305966
0.27364
0.240969
0.208304
0.175739
0.143194
0.111825
0.0807715
0.0501721
0.0214829
-0.00626492
-0.0317924
-0.0544447
-0.0754544
-0.0942888
-0.110323
-0.123753
-0.134697
-0.142388
-0.147284
-0.14917
-0.148175
-0.144415
-0.138046
-0.129275
-0.118249
-0.105276
-0.0906791
-0.0748335
-0.0580483
-0.0407265
-0.023076
-0.0053993
0.0119804
0.0288757
0.0450933
0.0603897
0.0746979
0.0879378
0.100008
0.110938
0.120797
0.12963
0.137336
0.14366
0.148717
0.152772
0.156027
0.158589
0.160299
0.161041
0.160992
0.160176
0.158564
0.156277
0.153331
0.149772
0.145686
0.141132
0.136065
0.130478
0.124459
0.118064
0.111296
0.104181
0.0967684
0.0890775
0.0811672
0.0730646
0.0647598
0.0563394
0.0478141
0.0390842
0.0303429
0.0219795
0.0135971
0.00545002
0.00015457
0.875144
0.731801
0.670144
0.621969
0.576725
0.536093
0.49798
0.461954
0.427123
0.393222
0.360264
0.327353
0.294476
0.261661
0.22868
0.195979
0.162763
0.129732
0.0976421
0.0661171
0.0354077
0.0055917
-0.0226447
-0.0487441
-0.0724763
-0.0939992
-0.113329
-0.129816
-0.143478
-0.154379
-0.162011
-0.166818
-0.168056
-0.166313
-0.161941
-0.154707
-0.144858
-0.132767
-0.118603
-0.102739
-0.0857965
-0.0680096
-0.0496969
-0.0312136
-0.0127718
0.0053931
0.0230236
0.0399582
0.0559813
0.0709448
0.084778
0.0974099
0.108831
0.119087
0.128146
0.136005
0.142595
0.147979
0.152338
0.155747
0.158306
0.159983
0.160714
0.160669
0.159828
0.158247
0.155975
0.153045
0.149525
0.145441
0.140834
0.135747
0.130189
0.124179
0.117803
0.111081
0.104012
0.0966087
0.0889953
0.0811194
0.073042
0.0648065
0.0564381
0.0478816
0.0392246
0.0306879
0.0223179
0.0139466
0.0058173
0.000328505
0.849075
0.707972
0.64884
0.603175
0.559836
0.519826
0.482677
0.447227
0.413187
0.379545
0.346421
0.313437
0.28028
0.247123
0.213951
0.180385
0.146846
0.11345
0.0803796
0.0476851
0.0161895
-0.0139812
-0.0425784
-0.0696813
-0.0946663
-0.117034
-0.136979
-0.154028
-0.167894
-0.178829
-0.186135
-0.190475
-0.191253
-0.188922
-0.18325
-0.174324
-0.163304
-0.14979
-0.134151
-0.117001
-0.0987322
-0.0796844
-0.060259
-0.0407663
-0.0213957
-0.00235169
0.0160547
0.0337507
0.0505853
0.0662892
0.0808154
0.0940758
0.106068
0.116757
0.126196
0.134377
0.141286
0.14698
0.151592
0.15519
0.157803
0.159523
0.160336
0.16031
0.159482
0.157947
0.155708
0.152794
0.14928
0.145193
0.140602
0.135526
0.129967
0.12398
0.117631
0.110899
0.103852
0.0965221
0.0889101
0.0810754
0.0730524
0.0648344
0.056498
0.0479454
0.0390518
0.0305314
0.0224874
0.0142602
0.00644552
0.000783882
0.824852
0.684821
0.627326
0.582806
0.540978
0.502437
0.465917
0.43139
0.397131
0.363635
0.33073
0.297283
0.263934
0.230392
0.196499
0.162059
0.127604
0.0933948
0.059774
0.0263243
-0.00580086
-0.0373572
-0.0671386
-0.0950225
-0.120871
-0.144118
-0.164698
-0.182057
-0.196534
-0.207299
-0.2145
-0.218278
-0.218351
-0.214856
-0.207639
-0.197449
-0.184719
-0.169381
-0.152143
-0.133419
-0.113632
-0.093153
-0.072388
-0.0516181
-0.0310746
-0.0110655
0.00824445
0.0267542
0.0443327
0.0608561
0.0761384
0.0901171
0.102712
0.113958
0.123869
0.13243
0.139675
0.145696
0.150579
0.154395
0.157147
0.158956
0.159878
0.15992
0.159131
0.157624
0.155437
0.152537
0.149056
0.144994
0.140387
0.135338
0.129795
0.123826
0.11749
0.110784
0.103749
0.0964132
0.0888627
0.0810538
0.0730426
0.0648381
0.0565058
0.0480085
0.0394185
0.0311039
0.0229556
0.0145919
0.00637848
0.000616952
0.801781
0.66187
0.605172
0.561639
0.520668
0.48326
0.447641
0.413194
0.379537
0.346332
0.31307
0.27935
0.245415
0.211142
0.176622
0.14137
0.106056
0.0709436
0.036333
0.00162438
-0.0318006
-0.0639012
-0.09471
-0.123796
-0.15071
-0.174764
-0.196102
-0.21442
-0.229079
-0.239831
-0.246927
-0.249956
-0.248814
-0.243861
-0.235269
-0.223377
-0.208636
-0.191389
-0.172303
-0.151748
-0.130193
-0.108074
-0.0857902
-0.0635993
-0.0418047
-0.0206245
-0.000246901
0.0191231
0.0375201
0.0547934
0.0708635
0.0855802
0.0988776
0.110733
0.121145
0.130173
0.137859
0.144217
0.149363
0.153402
0.156347
0.158303
0.159333
0.159442
0.158755
0.157326
0.155146
0.152305
0.148836
0.144789
0.140233
0.135177
0.129643
0.123678
0.117354
0.110683
0.103686
0.096393
0.0888156
0.0810404
0.0731006
0.0649486
0.0566605
0.0481698
0.0395246
0.0311414
0.0228796
0.0145684
0.00653133
0.000689513
0.778537
0.638898
0.583212
0.540724
0.500495
0.463174
0.428438
0.394722
0.360802
0.327589
0.294051
0.259706
0.2254
0.190343
0.1546
0.118605
0.0821479
0.0460477
0.010156
-0.025549
-0.0602304
-0.0937717
-0.125951
-0.155897
-0.183816
-0.209121
-0.23138
-0.250313
-0.26521
-0.276179
-0.282649
-0.284778
-0.282468
-0.276047
-0.265807
-0.251893
-0.235017
-0.215678
-0.194434
-0.17182
-0.148261
-0.124282
-0.10027
-0.0765314
-0.053339
-0.0308764
-0.00938646
0.0110336
0.0303048
0.0483586
0.0651347
0.0806024
0.094617
0.107128
0.118139
0.127655
0.135768
0.142508
0.14798
0.152267
0.15544
0.15757
0.158711
0.158953
0.158349
0.156956
0.154843
0.152069
0.148638
0.144595
0.140057
0.135037
0.129533
0.123585
0.117272
0.110611
0.103626
0.0963378
0.0887674
0.0810184
0.0730036
0.064713
0.0564702
0.0478297
0.0384577
0.0303159
0.0232103
0.0153898
0.00777579
0.0016205
0.756377
0.616829
0.561238
0.519153
0.480376
0.444204
0.408954
0.375063
0.341743
0.30804
0.273626
0.239031
0.203537
0.16791
0.131425
0.0938227
0.056445
0.0189101
-0.0183828
-0.0551298
-0.0911948
-0.126102
-0.159576
-0.190894
-0.219992
-0.24641
-0.269777
-0.289507
-0.304758
-0.315521
-0.321857
-0.323081
-0.319308
-0.311113
-0.298728
-0.282772
-0.26363
-0.241967
-0.218369
-0.193466
-0.167707
-0.141668
-0.115746
-0.0902644
-0.0654982
-0.0416989
-0.0189944
0.00252661
0.0227785
0.041668
0.0591372
0.0752825
0.0900375
0.10323
0.114843
0.124905
0.133492
0.140653
0.146474
0.151032
0.154422
0.156741
0.158026
0.1584
0.157914
0.156601
0.154546
0.151813
0.148429
0.144442
0.139903
0.134895
0.129439
0.1235
0.117198
0.11057
0.103563
0.0963016
0.0887859
0.0810378
0.0731378
0.0650539
0.056794
0.0483696
0.0399021
0.031663
0.0235248
0.0151208
0.00681908
0.000797664
0.735072
0.595454
0.540384
0.499146
0.460084
0.424035
0.389389
0.355588
0.321959
0.287856
0.252908
0.217408
0.181124
0.144148
0.106132
0.067783
0.0291464
-0.0096312
-0.0482789
-0.0868153
-0.124081
-0.160573
-0.195365
-0.228231
-0.259143
-0.286605
-0.310974
-0.331298
-0.347234
-0.358083
-0.363825
-0.363721
-0.358511
-0.348916
-0.334341
-0.315836
-0.294236
-0.270004
-0.243871
-0.216454
-0.188335
-0.160044
-0.132037
-0.104684
-0.0782332
-0.0529184
-0.0289109
-0.00626394
0.0149786
0.0347507
0.0530131
0.0698662
0.0852362
0.0990816
0.111335
0.121979
0.131057
0.138638
0.144816
0.149699
0.153337
0.15586
0.157318
0.157819
0.157446
0.156212
0.154242
0.151558
0.14822
0.144274
0.139777
0.134771
0.129328
0.123434
0.117143
0.110531
0.103546
0.09628
0.0887859
0.0810761
0.0731748
0.0650597
0.0568294
0.0485411
0.0401796
0.0319765
0.0238083
0.0152273
0.00679136
0.000773044
0.714911
0.575614
0.520547
0.479397
0.441027
0.40515
0.36999
0.335791
0.301289
0.266386
0.231056
0.194895
0.157928
0.119758
0.0805772
0.0408772
0.000753789
-0.0394502
-0.0796386
-0.119492
-0.158577
-0.196735
-0.23331
-0.26772
-0.299831
-0.328735
-0.354329
-0.376026
-0.39232
-0.402995
-0.408145
-0.406969
-0.400285
-0.388273
-0.371513
-0.350754
-0.32638
-0.299396
-0.270554
-0.240491
-0.209843
-0.17921
-0.149022
-0.119645
-0.0914261
-0.0644951
-0.0390525
-0.0151874
0.00709692
0.0277625
0.0468387
0.0643542
0.0803703
0.0948093
0.107721
0.118931
0.128511
0.136527
0.143076
0.148243
0.152166
0.154918
0.156576
0.157218
0.156929
0.155831
0.153931
0.15128
0.148017
0.14411
0.139631
0.134696
0.129254
0.12336
0.117103
0.110496
0.103535
0.0962818
0.0887985
0.0810819
0.0731812
0.0651052
0.0567577
0.0481452
0.0400368
0.0322068
0.0240209
0.0155087
0.0069221
0.000804794
0.695711
0.556827
0.502011
0.460661
0.421693
0.385659
0.350765
0.316339
0.281304
0.245764
0.209989
0.172302
0.133753
0.094891
0.0541863
0.0132765
-0.0280912
-0.0700974
-0.111846
-0.153197
-0.194089
-0.23395
-0.272078
-0.308437
-0.342165
-0.372836
-0.399815
-0.422695
-0.439513
-0.449767
-0.454056
-0.451797
-0.443406
-0.429491
-0.410258
-0.386685
-0.359562
-0.329729
-0.298038
-0.265217
-0.231975
-0.198863
-0.166385
-0.134973
-0.104883
-0.0762608
-0.0493605
-0.0242247
-0.000818321
0.0207826
0.0406644
0.058902
0.0755104
0.0905215
0.103987
0.115786
0.12588
0.134348
0.141286
0.146819
0.151004
0.15395
0.155774
0.156581
0.156441
0.155427
0.153596
0.15103
0.147803
0.14394
0.139518
0.134596
0.129168
0.123319
0.117065
0.11045
0.103517
0.0962814
0.0888245
0.0811383
0.0732629
0.0652662
0.0571017
0.0488174
0.0405516
0.0322301
0.0239783
0.0155084
0.00689521
0.000770596
0.677758
0.539105
0.484309
0.442886
0.40377
0.367105
0.331506
0.297049
0.261411
0.225135
0.18809
0.149861
0.110457
0.0696538
0.027971
-0.0141458
-0.0573035
-0.100781
-0.143962
-0.187538
-0.230123
-0.271775
-0.311815
-0.349651
-0.385514
-0.417948
-0.446629
-0.470446
-0.487787
-0.498176
-0.501436
-0.497844
-0.487627
-0.471162
-0.449512
-0.423265
-0.393251
-0.360482
-0.325911
-0.290278
-0.254342
-0.218735
-0.183958
-0.150433
-0.118408
-0.0881048
-0.0597023
-0.0332058
-0.00869705
0.013864
0.0345885
0.0535435
0.0707797
0.0862954
0.100244
0.112627
0.123244
0.132141
0.139454
0.145308
0.149766
0.152966
0.154976
0.155943
0.155937
0.155017
0.153275
0.150769
0.147594
0.143791
0.13941
0.134508
0.129096
0.123249
0.117027
0.110435
0.103517
0.0962996
0.0888241
0.0811725
0.0733219
0.0652928
0.0572188
0.0489992
0.0407623
0.0325815
0.0242282
0.0155364
0.00688357
0.000750698
0.660821
0.521991
0.467248
0.425828
0.386335
0.349915
0.313856
0.27821
0.24229
0.205417
0.167312
0.127663
0.0870351
0.0451621
0.00224667
-0.0417644
-0.0864718
-0.131285
-0.176352
-0.22125
-0.265862
-0.309501
-0.35144
-0.391664
-0.429278
-0.463345
-0.494171
-0.518822
-0.536316
-0.546573
-0.548918
-0.543783
-0.531845
-0.513325
-0.488897
-0.459816
-0.426916
-0.391186
-0.353687
-0.315246
-0.276624
-0.238515
-0.201408
-0.165771
-0.131844
-0.099833
-0.0699102
-0.0421004
-0.0164432
0.00713622
0.0286723
0.0483026
0.0661527
0.0822094
0.0966565
0.109484
0.120582
0.129952
0.137676
0.143828
0.14855
0.151963
0.154189
0.155312
0.155404
0.154602
0.152941
0.150498
0.147404
0.143647
0.13928
0.1344
0.129038
0.123221
0.11701
0.110405
0.10349
0.0963168
0.0888773
0.0812047
0.0733971
0.0653691
0.0572128
0.0490135
0.0407179
0.0324254
0.0241668
0.0156379
0.00716015
0.000999665
0.644605
0.506536
0.45165
0.41009
0.370403
0.332934
0.296542
0.26051
0.223614
0.185871
0.146755
0.106312
0.064694
0.0215337
-0.022982
-0.0681528
-0.114235
-0.161048
-0.207723
-0.25468
-0.301101
-0.346445
-0.390727
-0.432851
-0.472576
-0.509085
-0.541282
-0.566659
-0.584499
-0.594253
-0.595892
-0.58951
-0.575474
-0.554612
-0.527637
-0.495764
-0.459909
-0.421268
-0.380883
-0.33966
-0.298432
-0.257842
-0.218471
-0.180776
-0.144952
-0.11126
-0.0798727
-0.0507534
-0.0239338
0.000598059
0.0229785
0.0433456
0.061749
0.0783283
0.093204
0.106444
0.118026
0.127795
0.135858
0.142362
0.147362
0.150996
0.153417
0.154657
0.154906
0.15423
0.152626
0.150269
0.147208
0.143482
0.139172
0.134314
0.128954
0.123172
0.116982
0.110398
0.103498
0.0963382
0.0889146
0.0812594
0.0734387
0.0654531
0.0573273
0.0491663
0.0409666
0.0325296
0.0242225
0.0157811
0.00713239
0.00088539
0.630222
0.492007
0.43681
0.394817
0.355095
0.317911
0.280789
0.243821
0.206389
0.167795
0.127706
0.086253
0.0433008
-0.00125303
-0.0468352
-0.0934007
-0.141047
-0.189485
-0.237851
-0.2864
-0.335059
-0.382686
-0.4287
-0.472851
-0.51472
-0.553847
-0.587191
-0.613208
-0.631445
-0.640734
-0.64135
-0.633403
-0.617459
-0.594465
-0.564877
-0.530288
-0.491652
-0.450185
-0.407014
-0.363108
-0.319335
-0.276418
-0.234879
-0.195125
-0.15752
-0.122231
-0.0893992
-0.0590388
-0.0311217
-0.00560893
0.0175877
0.0385948
0.0575847
0.0746802
0.089959
0.103604
0.115562
0.125752
0.134173
0.140953
0.146194
0.150048
0.152648
0.154067
0.154426
0.153809
0.152303
0.150033
0.147032
0.143342
0.139053
0.134253
0.12894
0.12314
0.116944
0.110384
0.103503
0.0963416
0.0889187
0.0812958
0.0734771
0.0655143
0.0574404
0.0493118
0.0411066
0.0327447
0.0242903
0.015754
0.00721655
0.000887342
0.617091
0.478893
0.423628
0.381156
0.341273
0.303482
0.26573
0.228437
0.190332
0.150812
0.110059
0.0674374
0.0234313
-0.0219946
-0.068886
-0.116911
-0.166003
-0.215923
-0.266552
-0.316687
-0.366836
-0.416547
-0.464778
-0.511308
-0.555273
-0.596295
-0.630846
-0.657466
-0.675789
-0.684665
-0.684299
-0.675152
-0.657189
-0.632077
-0.600182
-0.56287
-0.521565
-0.477383
-0.431577
-0.385189
-0.339023
-0.293855
-0.250281
-0.208663
-0.169358
-0.132557
-0.0983508
-0.0667876
-0.037828
-0.0114216
0.0125754
0.0342187
0.053748
0.0713011
0.0869738
0.100933
0.113238
0.123796
0.132546
0.13962
0.145104
0.149169
0.151917
0.153485
0.153977
0.153452
0.152028
0.149804
0.14685
0.143221
0.138968
0.134169
0.128873
0.123111
0.116928
0.110384
0.10353
0.0963633
0.088935
0.0812912
0.073408
0.0653062
0.0569494
0.0490225
0.0411069
0.0326148
0.0243963
0.0160351
0.00769088
0.00139311
0.605479
0.467347
0.411862
0.369223
0.328579
0.290296
0.252599
0.214529
0.17586
0.13573
0.0936927
0.0504568
0.0057091
-0.0410731
-0.0893137
-0.138541
-0.188864
-0.240386
-0.292475
-0.344563
-0.396734
-0.447868
-0.498252
-0.547146
-0.593188
-0.63599
-0.671391
-0.698537
-0.716777
-0.725267
-0.72405
-0.713437
-0.693867
-0.66652
-0.632399
-0.592704
-0.548955
-0.502349
-0.454146
-0.405422
-0.357082
-0.309905
-0.264417
-0.221064
-0.180197
-0.142011
-0.106559
-0.0739261
-0.0440095
-0.016729
0.00794692
0.030208
0.0502574
0.0682166
0.0842766
0.0985544
0.111113
0.122008
0.131053
0.138379
0.144102
0.148332
0.151267
0.152957
0.153514
0.153086
0.151767
0.149611
0.146687
0.143073
0.138877
0.134113
0.128843
0.123098
0.116927
0.110393
0.103545
0.0963905
0.0889797
0.081374
0.0735879
0.0656863
0.057704
0.0495797
0.04136
0.0330908
0.0246628
0.0158971
0.00721229
0.00100398
0.59549
0.457314
0.401529
0.358689
0.317939
0.279362
0.240923
0.202525
0.162901
0.122078
0.0796035
0.0352701
-0.0104328
-0.0580121
-0.10681
-0.157343
-0.209365
-0.262073
-0.315599
-0.369376
-0.423167
-0.476478
-0.52865
-0.579363
-0.627919
-0.671591
-0.70811
-0.735445
-0.75363
-0.761751
-0.759689
-0.74771
-0.726567
-0.697496
-0.661197
-0.619351
-0.573391
-0.524604
-0.474278
-0.423489
-0.373214
-0.324201
-0.27705
-0.232183
-0.18993
-0.15048
-0.1139
-0.0802604
-0.0494973
-0.021486
0.00384293
0.0266575
0.0471689
0.0655172
0.0818781
0.0963953
0.109256
0.1204
0.129718
0.137274
0.143195
0.147606
0.150662
0.152458
0.153134
0.152776
0.151517
0.149418
0.146535
0.142993
0.138798
0.134036
0.128791
0.123074
0.11691
0.110404
0.103564
0.0963924
0.0890237
0.0814298
0.0736432
0.0657335
0.057695
0.0495619
0.0414832
0.0332418
0.0247898
0.0160391
0.00727321
0.0010095
0.587079
0.44878
0.393033
0.350007
0.308581
0.269771
0.231186
0.192078
0.152355
0.110943
0.0673662
0.0225164
-0.0240541
-0.0724806
-0.122274
-0.173976
-0.22686
-0.28065
-0.335884
-0.391156
-0.446146
-0.501267
-0.555154
-0.607346
-0.658145
-0.702664
-0.739403
-0.76727
-0.78537
-0.793189
-0.790612
-0.777247
-0.75458
-0.723931
-0.685963
-0.642278
-0.594423
-0.543756
-0.491581
-0.439056
-0.387124
-0.336519
-0.287899
-0.241748
-0.198296
-0.15776
-0.12025
-0.0857516
-0.054231
-0.0255897
0.000305963
0.0236121
0.0444942
0.0631761
0.0798305
0.0945654
0.107637
0.119003
0.128543
0.13631
0.142399
0.146955
0.150153
0.152014
0.152774
0.152515
0.151289
0.149252
0.146417
0.142889
0.138726
0.133986
0.128761
0.123061
0.116919
0.110402
0.103585
0.096461
0.0890771
0.081491
0.0737272
0.0658156
0.0577866
0.0496499
0.0415306
0.0333611
0.0249742
0.0161755
0.00731267
0.00100514
0.580438
0.44209
0.386206
0.342879
0.301423
0.262227
0.22321
0.184084
0.143617
0.101223
0.0575873
0.0123044
-0.0349304
-0.0839559
-0.13475
-0.187179
-0.241171
-0.296277
-0.352355
-0.408886
-0.465331
-0.521873
-0.577295
-0.63101
-0.682785
-0.728419
-0.765523
-0.793133
-0.811397
-0.818958
-0.815732
-0.801645
-0.777738
-0.745589
-0.7062
-0.661022
-0.611646
-0.559437
-0.505783
-0.451822
-0.398481
-0.346651
-0.296873
-0.249596
-0.205189
-0.163757
-0.125458
-0.0902999
-0.0581473
-0.028948
-0.00259151
0.0210758
0.042314
0.0612708
0.0781505
0.0930939
0.106331
0.117856
0.127559
0.135497
0.141725
0.146415
0.149692
0.151656
0.152488
0.152277
0.151112
0.149095
0.146284
0.142804
0.138667
0.133951
0.128717
0.12302
0.116931
0.110445
0.103609
0.0964723
0.0891259
0.0815555
0.0738057
0.0659061
0.0578802
0.0497996
0.0416422
0.0333549
0.0250089
0.016261
0.00735848
0.00102311
0.575614
0.437153
0.381219
0.33773
0.29605
0.256723
0.21762
0.177856
0.137111
0.0948623
0.0506521
0.00436485
-0.0436517
-0.092893
-0.14435
-0.197657
-0.251772
-0.307596
-0.364688
-0.422056
-0.480294
-0.537823
-0.594311
-0.649371
-0.702286
-0.748548
-0.78468
-0.81254
-0.831483
-0.838799
-0.834865
-0.820009
-0.795278
-0.762279
-0.721709
-0.67536
-0.624786
-0.57139
-0.516595
-0.461557
-0.407185
-0.354379
-0.303706
-0.255626
-0.210446
-0.168353
-0.129448
-0.093743
-0.0611437
-0.031558
-0.0048274
0.0191604
0.040618
0.0597992
0.0768443
0.0919534
0.105308
0.116957
0.126808
0.134866
0.141196
0.145977
0.149324
0.151364
0.152261
0.152075
0.15096
0.148975
0.146198
0.142726
0.138614
0.133927
0.128701
0.123026
0.116925
0.110437
0.103636
0.096544
0.0891676
0.0816151
0.0738849
0.0660107
0.05806
0.0499515
0.0416856
0.0334
0.0250398
0.0161797
0.00727802
0.000993771
0.572736
0.434017
0.378092
0.334589
0.292559
0.253005
0.213701
0.174064
0.132985
0.0901462
0.0457965
-0.000379899
-0.0483814
-0.0986564
-0.150415
-0.203908
-0.259015
-0.315594
-0.373149
-0.431409
-0.490116
-0.548366
-0.606144
-0.661893
-0.715478
-0.762041
-0.798044
-0.825513
-0.844509
-0.851803
-0.847531
-0.832501
-0.807312
-0.773373
-0.732006
-0.684923
-0.633593
-0.579446
-0.523889
-0.468088
-0.413034
-0.359574
-0.308321
-0.259695
-0.213982
-0.171452
-0.132169
-0.0960927
-0.0631842
-0.0333142
-0.0063501
0.0178366
0.0394929
0.0587966
0.0759368
0.0911831
0.104614
0.11632
0.126293
0.13439
0.140814
0.145668
0.149067
0.151165
0.152081
0.15194
0.150827
0.148868
0.146143
0.142657
0.13855
0.133901
0.128697
0.123011
0.116951
0.110475
0.103648
0.0965729
0.0892211
0.0816638
0.0738856
0.0659823
0.0578978
0.0497246
0.0413212
0.0330672
0.0249809
0.0162117
0.00771544
0.00146236
0.571505
0.432683
0.376707
0.333203
0.291009
0.251386
0.212179
0.172419
0.131401
0.0884043
0.0439084
-0.00241634
-0.0511258
-0.101274
-0.153309
-0.20732
-0.262552
-0.319087
-0.376991
-0.435653
-0.494352
-0.553254
-0.611753
-0.668162
-0.722289
-0.769037
-0.804946
-0.831739
-0.850804
-0.858566
-0.854028
-0.838488
-0.813179
-0.778841
-0.737094
-0.689662
-0.637936
-0.583401
-0.527476
-0.471316
-0.415965
-0.362187
-0.310621
-0.261735
-0.215781
-0.173007
-0.133498
-0.0972528
-0.0642033
-0.0342009
-0.00713904
0.0171586
0.0388937
0.0582695
0.0754647
0.0907516
0.10423
0.115984
0.125978
0.134131
0.140597
0.145495
0.148929
0.151021
0.151965
0.15186
0.150792
0.148827
0.146077
0.142609
0.138542
0.133893
0.128696
0.123018
0.11692
0.110494
0.103689
0.0965958
0.0892881
0.0817646
0.074062
0.0662426
0.058276
0.050191
0.0419438
0.0336037
0.0251893
0.0162524
0.00731373
0.0010001
0.572201
0.433388
0.377399
0.333874
0.291645
0.252074
0.212924
0.173036
0.132036
0.0889544
0.044506
-0.00172397
-0.0504268
-0.100692
-0.152822
-0.206739
-0.261879
-0.318398
-0.376221
-0.434863
-0.493535
-0.552485
-0.610964
-0.667375
-0.721521
-0.768332
-0.804337
-0.831239
-0.850267
-0.857882
-0.853538
-0.838126
-0.812831
-0.778506
-0.736778
-0.689374
-0.637679
-0.583203
-0.527338
-0.471169
-0.415827
-0.362087
-0.310556
-0.261674
-0.215743
-0.173023
-0.13356
-0.0973353
-0.0642853
-0.0342946
-0.00724462
0.017038
0.0387629
0.0581294
0.0753183
0.0906013
0.104083
0.115824
0.12583
0.133998
0.140461
0.145355
0.148788
0.150901
0.151869
0.15176
0.150668
0.148731
0.14599
0.142571
0.138512
0.133844
0.128659
0.123023
0.116938
0.110499
0.103729
0.0966583
0.089376
0.0818509
0.074135
0.0662719
0.0582495
0.050126
0.0418649
0.0335207
0.0252403
0.0164934
0.00756628
0.00111005
0.574928
0.436093
0.380123
0.336607
0.294567
0.255016
0.215696
0.176047
0.135084
0.0921992
0.0477923
0.00164155
-0.0466714
-0.0969616
-0.148459
-0.20236
-0.257306
-0.313586
-0.371342
-0.429617
-0.488089
-0.546586
-0.604428
-0.660118
-0.71393
-0.760826
-0.797024
-0.824639
-0.843439
-0.850836
-0.846634
-0.831412
-0.806447
-0.772596
-0.731281
-0.684271
-0.632981
-0.578922
-0.523462
-0.46772
-0.412768
-0.359356
-0.308121
-0.259544
-0.213928
-0.171447
-0.132185
-0.0961564
-0.0632881
-0.0334561
-0.00652554
0.0176355
0.0392678
0.0585436
0.0756711
0.0909138
0.104344
0.116042
0.125997
0.134125
0.14056
0.145413
0.148829
0.150958
0.151881
0.151751
0.15068
0.148724
0.145988
0.142538
0.138485
0.133851
0.128661
0.12303
0.116946
0.110514
0.10375
0.0966912
0.0894148
0.081892
0.0741906
0.0663568
0.0583813
0.0503357
0.0422413
0.0339536
0.0253811
0.0163943
0.00741367
0.00103802
0.57949
0.440748
0.384745
0.341308
0.299651
0.260288
0.221083
0.181435
0.140347
0.0982352
0.0542951
0.00774913
-0.040306
-0.089718
-0.141307
-0.194653
-0.249132
-0.304936
-0.361832
-0.419607
-0.477423
-0.535049
-0.591903
-0.646529
-0.699294
-0.746107
-0.783611
-0.811735
-0.830118
-0.836992
-0.83302
-0.818569
-0.794075
-0.761104
-0.720584
-0.674329
-0.62386
-0.570603
-0.515947
-0.460957
-0.406709
-0.354
-0.303417
-0.255423
-0.210303
-0.16833
-0.129509
-0.0938207
-0.0612792
-0.0317502
-0.00510618
0.0188453
0.0403025
0.0594236
0.0764449
0.0915512
0.104906
0.116544
0.126399
0.134464
0.140814
0.145585
0.148971
0.151044
0.151932
0.151792
0.150703
0.148729
0.145983
0.142557
0.138482
0.133835
0.128662
0.123011
0.11697
0.110553
0.10378
0.0967239
0.0894505
0.0819329
0.074236
0.0664096
0.058417
0.0503255
0.0420945
0.0336262
0.0251346
0.0164136
0.00764334
0.00122825
0.585713
0.447275
0.391351
0.348054
0.306679
0.267518
0.228371
0.18908
0.148535
0.106111
0.062346
0.0169099
-0.0303825
-0.0796641
-0.130773
-0.183431
-0.23699
-0.291985
-0.348595
-0.405378
-0.461864
-0.518401
-0.573959
-0.627493
-0.679583
-0.725621
-0.763101
-0.791257
-0.809507
-0.816779
-0.813469
-0.799763
-0.776089
-0.743932
-0.704679
-0.659654
-0.610401
-0.558365
-0.504872
-0.451034
-0.397846
-0.346127
-0.296489
-0.24935
-0.205035
-0.163722
-0.125508
-0.0903934
-0.0583444
-0.0292732
-0.00293789
0.0207044
0.0418536
0.0607532
0.0776133
0.0925478
0.105779
0.1173
0.127012
0.134942
0.141203
0.145894
0.149191
0.151229
0.152074
0.151872
0.150747
0.148781
0.146025
0.142581
0.138488
0.133825
0.12866
0.123017
0.116981
0.110565
0.103794
0.0967477
0.089474
0.0819666
0.0742669
0.0664018
0.0584586
0.0504094
0.0422854
0.0340065
0.025455
0.0165205
0.0074775
0.000988165
0.593918
0.455621
0.399717
0.356627
0.3154
0.276415
0.237673
0.198635
0.158471
0.11714
0.0740792
0.028657
-0.0183163
-0.0669121
-0.11713
-0.16876
-0.221768
-0.276104
-0.331207
-0.386545
-0.441931
-0.497153
-0.55118
-0.603309
-0.654044
-0.6991
-0.736408
-0.764512
-0.782753
-0.790553
-0.787788
-0.774797
-0.752413
-0.721811
-0.684043
-0.640575
-0.592909
-0.54243
-0.490473
-0.438101
-0.38631
-0.335891
-0.287436
-0.24145
-0.19813
-0.157716
-0.120327
-0.0859285
-0.0545056
-0.0259615
-0.000147242
0.0230776
0.0439086
0.0625492
0.0791602
0.0938756
0.106935
0.118301
0.127871
0.135627
0.141728
0.14632
0.149504
0.151451
0.152242
0.152009
0.15085
0.148843
0.146052
0.142598
0.138502
0.133825
0.128669
0.123039
0.116982
0.110551
0.103819
0.096801
0.0895056
0.0820071
0.074314
0.066458
0.0585086
0.050472
0.0420835
0.0336704
0.0254157
0.0166815
0.00783207
0.00129461
0.603822
0.465632
0.409798
0.366922
0.326205
0.287689
0.249086
0.210557
0.170741
0.129646
0.0872055
0.0426
-0.00368869
-0.0513829
-0.100733
-0.151197
-0.203141
-0.256213
-0.310061
-0.364328
-0.418166
-0.471421
-0.523954
-0.574721
-0.623409
-0.667384
-0.70406
-0.73213
-0.750189
-0.758479
-0.75663
-0.74478
-0.723967
-0.694776
-0.658872
-0.61736
-0.571617
-0.523075
-0.472949
-0.422366
-0.37228
-0.323478
-0.27651
-0.231828
-0.189752
-0.150451
-0.114019
-0.080518
-0.0498547
-0.0219649
0.00328594
0.0260308
0.0464186
0.0647133
0.0810692
0.0955554
0.108408
0.119538
0.128861
0.136464
0.142369
0.146812
0.149919
0.151761
0.152468
0.152173
0.150953
0.148915
0.146126
0.142646
0.138521
0.133831
0.128665
0.123038
0.117006
0.110596
0.103846
0.0968251
0.0895196
0.0820458
0.0743697
0.0665272
0.0585627
0.0504967
0.0422948
0.0340021
0.0255747
0.016646
0.00761991
0.00113471
0.61542
0.477349
0.421898
0.379208
0.338126
0.299557
0.26195
0.223977
0.1849
0.144649
0.102823
0.0587519
0.0136871
-0.0328893
-0.0814929
-0.131208
-0.181819
-0.233516
-0.285859
-0.338493
-0.390713
-0.442501
-0.492979
-0.541767
-0.588287
-0.630915
-0.66691
-0.694343
-0.71263
-0.721578
-0.720548
-0.710106
-0.69098
-0.663755
-0.629741
-0.590441
-0.546945
-0.500608
-0.452653
-0.404167
-0.356059
-0.309092
-0.263839
-0.220742
-0.180062
-0.142027
-0.106736
-0.0742282
-0.0444343
-0.0173103
0.0072749
0.0294376
0.0493849
0.0672763
0.0832963
0.0975474
0.110104
0.120979
0.130039
0.13739
0.143148
0.147442
0.150386
0.15211
0.15273
0.152368
0.151116
0.149034
0.146171
0.142671
0.138558
0.133872
0.128672
0.123037
0.117008
0.110592
0.10386
0.0968165
0.0895618
0.0820734
0.0743963
0.0665619
0.0585774
0.0504615
0.042224
0.0339171
0.0254139
0.016575
0.00775348
0.00126713
0.62842
0.490343
0.435017
0.3923
0.351792
0.314099
0.276863
0.239189
0.200654
0.161133
0.119974
0.0772367
0.0330496
-0.0129122
-0.0600743
-0.108543
-0.157946
-0.208035
-0.258805
-0.309913
-0.360403
-0.409997
-0.45858
-0.505527
-0.549602
-0.590898
-0.62587
-0.65281
-0.671084
-0.680452
-0.680313
-0.671342
-0.654013
-0.628799
-0.597179
-0.560305
-0.519307
-0.475483
-0.429948
-0.383797
-0.337906
-0.293014
-0.249669
-0.208284
-0.169229
-0.132612
-0.0985919
-0.0671975
-0.0384123
-0.012142
0.0117383
0.0332979
0.0527289
0.0702102
0.0858318
0.0997911
0.11207
0.122599
0.13137
0.13846
0.144003
0.148107
0.150917
0.152517
0.153069
0.152618
0.151271
0.149127
0.146264
0.142716
0.138572
0.133898
0.12871
0.123058
0.117006
0.110599
0.103875
0.0968513
0.0895699
0.0820836
0.0743935
0.0665039
0.0584883
0.050265
0.0415755
0.0332095
0.0253205
0.016763
0.00813971
0.00161404
0.642914
0.504751
0.449499
0.407172
0.367421
0.329933
0.292846
0.255953
0.218122
0.179214
0.139156
0.0972491
0.0538125
0.00937317
-0.0366892
-0.0838952
-0.131673
-0.18037
-0.229607
-0.278993
-0.327516
-0.375104
-0.421992
-0.466693
-0.508655
-0.547762
-0.581486
-0.607952
-0.626089
-0.635807
-0.636774
-0.629313
-0.613927
-0.591141
-0.561908
-0.527589
-0.489296
-0.448144
-0.405257
-0.361664
-0.318181
-0.275529
-0.234248
-0.194791
-0.15744
-0.122374
-0.0897316
-0.0595505
-0.0318057
-0.00642856
0.0166354
0.0375394
0.056406
0.0734234
0.0886384
0.102253
0.114211
0.1244
0.132844
0.139642
0.144963
0.148869
0.151483
0.152965
0.153398
0.152864
0.15147
0.149256
0.146333
0.142787
0.138628
0.133915
0.12872
0.123057
0.117
0.110602
0.103859
0.0968631
0.0895982
0.0820856
0.0744206
0.0666094