/*--------------------------------*- C++ -*----------------------------------*\
  =========                 |
  \\      /  F ield         | OpenFOAM: The Open Source CFD Toolbox
   \\    /   O peration     | Website:  https://openfoam.org
    \\  /    A nd           | Version:  11
     \\/     M anipulation  |
\*---------------------------------------------------------------------------*/
FoamFile
{
    format      ascii;
    class       volScalarField;
    location    "0.02";
    object      k;
}
// * * * * * * * * * * * * * * * * * * * * * * * * * * * * * * * * * * * * * //

dimensions      [0 2 -2 0 0 0 0];

internalField   nonuniform List<scalar> 
287084
(
0.382852
0.390162
0.39225
0.392445
0.392439
0.392436
0.392269
0.392338
0.392455
0.392459
0.39246
0.392329
0.39227
0.392417
0.39263
0.392515
0.392589
0.392664
0.392611
0.392608
0.392606
0.392553
0.392533
0.392482
0.39233
0.392394
0.39252
0.392519
0.392519
0.392286
0.392371
0.392448
0.392217
0.392319
0.392426
0.392353
0.392282
0.392369
0.392462
0.392288
0.392374
0.39241
0.392216
0.392317
0.39241
0.392185
0.392289
0.392391
0.392378
0.392377
0.392326
0.392246
0.392312
0.392431
0.392279
0.392349
0.392372
0.392344
0.392282
0.392392
0.392492
0.392299
0.39239
0.392473
0.392388
0.39239
0.392337
0.392412
0.392433
0.392381
0.392303
0.392394
0.392524
0.392488
0.392457
0.392466
0.392483
0.392381
0.392425
0.392433
0.392397
0.392389
0.392215
0.392276
0.39241
0.39222
0.392319
0.392381
0.392348
0.392258
0.382857
0.390072
0.392312
0.39261
0.392594
0.392632
0.392572
0.392538
0.392495
0.3925
0.392493
0.392309
0.392349
0.392413
0.392188
0.392296
0.392417
0.392215
0.392218
0.392567
0.392694
0.392631
0.392603
0.392614
0.392637
0.392536
0.392568
0.392574
0.392448
0.392458
0.392467
0.392285
0.392382
0.392479
0.392264
0.392358
0.392526
0.392457
0.392442
0.392423
0.392419
0.392255
0.392334
0.392451
0.392437
0.392431
0.392189
0.392265
0.392345
0.392118
0.392214
0.392393
0.392297
0.392295
0.392274
0.392378
0.392424
0.392313
0.392389
0.392421
0.392279
0.392254
0.392384
0.392432
0.392408
0.392427
0.392398
0.392366
0.392296
0.392443
0.392541
0.392431
0.392421
0.392354
0.392436
0.392527
0.392471
0.392487
0.39247
0.392274
0.392273
0.392355
0.392292
0.392333
0.392283
0.392251
0.392164
0.392284
0.392386
0.392151
0.382856
0.390066
0.392307
0.392607
0.392513
0.392576
0.3926
0.392547
0.392562
0.392587
0.392613
0.392556
0.392338
0.392352
0.39246
0.392481
0.392485
0.392354
0.392296
0.392455
0.392625
0.392614
0.392602
0.392595
0.392607
0.392525
0.392465
0.392527
0.392563
0.392421
0.392537
0.392607
0.392425
0.39255
0.392636
0.392479
0.392605
0.392673
0.392539
0.392534
0.392528
0.392536
0.39252
0.392533
0.392514
0.392477
0.39249
0.392508
0.392451
0.392273
0.392288
0.392385
0.392375
0.392356
0.392406
0.392445
0.392247
0.392343
0.39241
0.39234
0.392301
0.392418
0.392566
0.392462
0.392475
0.392475
0.392483
0.392364
0.392428
0.392458
0.392302
0.392289
0.392286
0.392347
0.392365
0.392261
0.392386
0.392522
0.392495
0.392538
0.392478
0.392458
0.392452
0.392327
0.392373
0.392413
0.39224
0.392305
0.392325
0.392147
0.382855
0.390068
0.392271
0.392709
0.392675
0.39272
0.392726
0.392695
0.392698
0.392621
0.392585
0.392566
0.392536
0.39255
0.392572
0.392549
0.392545
0.39238
0.39249
0.392596
0.392441
0.392425
0.392412
0.392419
0.392412
0.392422
0.392314
0.392415
0.392507
0.392512
0.392512
0.392285
0.392393
0.39249
0.392289
0.392384
0.392532
0.392405
0.392478
0.39256
0.392536
0.39255
0.392527
0.39249
0.392455
0.3924
0.392233
0.392327
0.392439
0.392333
0.392326
0.392327
0.392341
0.392274
0.392393
0.392451
0.39232
0.392398
0.392432
0.3924
0.392314
0.39234
0.392536
0.392539
0.392537
0.392496
0.392482
0.392491
0.392481
0.392334
0.392351
0.392475
0.392451
0.392399
0.392461
0.392503
0.392491
0.392489
0.392397
0.39239
0.392301
0.392388
0.392429
0.392364
0.392361
0.392271
0.392328
0.392348
0.392306
0.392189
0.382855
0.390067
0.392277
0.392669
0.392633
0.392635
0.392592
0.39263
0.392656
0.392571
0.392565
0.392551
0.392482
0.392483
0.392504
0.392495
0.392494
0.392312
0.392376
0.3926
0.392523
0.392615
0.392647
0.392544
0.392537
0.392534
0.392412
0.392492
0.392562
0.392349
0.39243
0.392606
0.392514
0.392576
0.392649
0.392616
0.392631
0.392585
0.392498
0.392488
0.392398
0.392434
0.392474
0.392429
0.3923
0.392275
0.392399
0.39241
0.392351
0.392413
0.392452
0.392234
0.392328
0.39246
0.392331
0.392402
0.392496
0.392477
0.392499
0.392453
0.392298
0.392396
0.392486
0.392293
0.392389
0.392445
0.392267
0.392349
0.392475
0.392337
0.392413
0.392505
0.392459
0.39248
0.392422
0.392442
0.392468
0.392406
0.392415
0.392412
0.392294
0.39239
0.392459
0.392371
0.392424
0.392432
0.392365
0.39242
0.392434
0.392192
0.382854
0.390083
0.392113
0.392322
0.392294
0.392189
0.392307
0.392428
0.392352
0.392343
0.392237
0.392397
0.392581
0.39246
0.392541
0.392577
0.392511
0.392525
0.392505
0.392519
0.39247
0.392321
0.392401
0.39247
0.392256
0.392357
0.392526
0.392431
0.392431
0.392403
0.392521
0.392624
0.392529
0.392519
0.39251
0.392333
0.392396
0.39246
0.392242
0.392358
0.392474
0.392284
0.392409
0.392513
0.392339
0.392466
0.392557
0.392442
0.392435
0.392434
0.392329
0.392391
0.392427
0.392426
0.392425
0.39219
0.392266
0.392394
0.392395
0.392394
0.392174
0.392258
0.392392
0.392394
0.392394
0.392295
0.392237
0.392335
0.392576
0.39251
0.392539
0.392547
0.392514
0.392515
0.392518
0.39238
0.392447
0.392491
0.392345
0.39241
0.392477
0.392467
0.392501
0.392478
0.392409
0.3924
0.392385
0.392364
0.392319
0.392152
0.382839
0.390139
0.392109
0.392285
0.392331
0.392285
0.392328
0.392352
0.392233
0.392279
0.392633
0.392874
0.392923
0.392938
0.392899
0.392864
0.392821
0.392783
0.392786
0.392701
0.392699
0.39272
0.392675
0.392682
0.392685
0.392656
0.392478
0.392539
0.392603
0.392576
0.392506
0.39256
0.392611
0.392426
0.392549
0.392632
0.392473
0.392569
0.392641
0.392598
0.392618
0.392549
0.392589
0.392612
0.392519
0.392515
0.392519
0.392482
0.392443
0.392434
0.392416
0.392425
0.392427
0.392248
0.392325
0.392424
0.39241
0.392407
0.392183
0.39226
0.392391
0.392251
0.392336
0.392367
0.392325
0.392209
0.39227
0.392402
0.392266
0.392322
0.392346
0.392212
0.392295
0.392417
0.392385
0.392381
0.392235
0.392379
0.392488
0.392433
0.39242
0.39239
0.392338
0.392393
0.39245
0.392393
0.392359
0.392395
0.392417
0.392184
0.382855
0.390067
0.392258
0.392777
0.392881
0.392901
0.392904
0.392908
0.392912
0.392916
0.392921
0.392927
0.392932
0.392941
0.392899
0.392865
0.392823
0.392786
0.392789
0.392704
0.392696
0.392715
0.392675
0.392681
0.392699
0.392689
0.392483
0.392513
0.392578
0.392422
0.392542
0.392617
0.392434
0.392558
0.392641
0.392481
0.392555
0.392744
0.39273
0.392715
0.392709
0.392662
0.392723
0.392739
0.392707
0.39272
0.392686
0.392636
0.392603
0.39253
0.392501
0.392477
0.3925
0.392429
0.392401
0.392381
0.392344
0.392307
0.392236
0.392335
0.39253
0.39249
0.392482
0.392482
0.392483
0.392335
0.392415
0.392449
0.392297
0.392286
0.392284
0.39229
0.392187
0.392277
0.392406
0.392405
0.392404
0.392183
0.392245
0.392464
0.392467
0.392475
0.392434
0.392374
0.392182
0.392211
0.392386
0.392427
0.392381
0.392169
0.38285
0.390115
0.392136
0.392396
0.392372
0.392334
0.392331
0.39224
0.392265
0.392615
0.392865
0.392916
0.392934
0.392895
0.39286
0.392818
0.392782
0.392781
0.392741
0.392696
0.39271
0.392731
0.392699
0.392665
0.392675
0.392666
0.392481
0.392513
0.392582
0.392426
0.392547
0.39262
0.392436
0.392559
0.39264
0.39248
0.392552
0.392743
0.392733
0.392712
0.392655
0.39266
0.392673
0.392611
0.392617
0.39256
0.392503
0.392327
0.392378
0.392413
0.392228
0.392307
0.392343
0.392161
0.392251
0.392393
0.392393
0.392392
0.392172
0.392255
0.392389
0.392391
0.392391
0.392172
0.392235
0.392456
0.392459
0.392466
0.392427
0.392379
0.392279
0.392202
0.392394
0.39253
0.392506
0.392506
0.392457
0.392401
0.39242
0.392513
0.392478
0.392503
0.392487
0.392481
0.392467
0.39245
0.392275
0.392313
0.39239
0.392152
0.382833
0.39016
0.392055
0.392106
0.392271
0.392385
0.392178
0.392276
0.392446
0.392456
0.392457
0.392242
0.392332
0.392477
0.392484
0.392485
0.392271
0.392362
0.39251
0.392448
0.392454
0.39246
0.392382
0.392423
0.392533
0.392538
0.392521
0.392555
0.392594
0.392389
0.39251
0.392614
0.392486
0.392451
0.392488
0.3925
0.39246
0.392351
0.392392
0.392414
0.392201
0.392302
0.392401
0.392194
0.392292
0.392361
0.392159
0.392256
0.392401
0.392264
0.392253
0.392244
0.392248
0.392146
0.392252
0.392339
0.392129
0.39222
0.392355
0.392288
0.39228
0.392135
0.392237
0.392391
0.392228
0.392217
0.392346
0.392372
0.392305
0.392299
0.392298
0.392184
0.392263
0.392348
0.392138
0.39223
0.392367
0.392333
0.392327
0.392152
0.392245
0.392371
0.392303
0.392294
0.392148
0.39216
0.392411
0.392464
0.392408
0.39223
0.382842
0.390117
0.392202
0.392444
0.392417
0.392374
0.392249
0.392367
0.392665
0.392641
0.392657
0.392611
0.392632
0.392655
0.392597
0.392608
0.392633
0.392661
0.392607
0.392391
0.392409
0.39252
0.39254
0.392543
0.392326
0.392414
0.392553
0.392444
0.392436
0.392416
0.392537
0.392635
0.392574
0.392585
0.39256
0.39235
0.392397
0.392453
0.392233
0.392346
0.392459
0.39227
0.392394
0.392496
0.392323
0.392428
0.392519
0.392481
0.392474
0.392302
0.392374
0.392413
0.392235
0.392311
0.392424
0.392378
0.392225
0.392255
0.392353
0.392288
0.39228
0.392135
0.392251
0.392368
0.392248
0.392236
0.392169
0.392305
0.392567
0.392501
0.392499
0.392497
0.392505
0.392515
0.39244
0.392491
0.39254
0.392531
0.392499
0.392495
0.39252
0.392496
0.392491
0.392301
0.392377
0.392446
0.392318
0.39233
0.392324
0.392195
0.382841
0.390126
0.392172
0.392439
0.392504
0.392466
0.392418
0.392291
0.392283
0.392601
0.392866
0.39292
0.392934
0.392944
0.392905
0.392872
0.392831
0.392795
0.392796
0.392819
0.392775
0.392738
0.392716
0.392691
0.392643
0.392459
0.392513
0.392584
0.39237
0.392458
0.392506
0.392294
0.392401
0.392492
0.392275
0.392388
0.392499
0.392305
0.392427
0.392525
0.392348
0.392471
0.392559
0.392442
0.392435
0.392433
0.392325
0.392384
0.392415
0.392382
0.392374
0.392192
0.392164
0.392323
0.392366
0.392345
0.392319
0.392276
0.392212
0.392282
0.392379
0.39235
0.392346
0.392241
0.392212
0.392269
0.392228
0.392372
0.39245
0.39239
0.392379
0.392199
0.392295
0.392384
0.392258
0.392247
0.392178
0.392348
0.392482
0.39235
0.392337
0.392332
0.392362
0.392363
0.392387
0.392386
0.392354
0.392381
0.392389
0.392185
0.382855
0.390067
0.392257
0.392776
0.39288
0.392899
0.392904
0.392907
0.392911
0.392917
0.392923
0.392928
0.392936
0.392946
0.392907
0.392874
0.392832
0.3928
0.392801
0.392768
0.392723
0.392697
0.39266
0.392668
0.392691
0.39269
0.392511
0.392549
0.392608
0.392447
0.392563
0.392631
0.392443
0.392502
0.392692
0.392695
0.392719
0.392701
0.392607
0.39265
0.392705
0.392654
0.392648
0.392652
0.392635
0.392598
0.392522
0.39249
0.392509
0.392526
0.392492
0.392456
0.392319
0.392414
0.392489
0.392381
0.392374
0.39233
0.392466
0.392535
0.392407
0.392403
0.392374
0.392474
0.392511
0.392343
0.392421
0.392457
0.392299
0.392286
0.392283
0.392288
0.392186
0.392275
0.392406
0.392404
0.392403
0.392183
0.392265
0.392399
0.392401
0.3924
0.392182
0.392245
0.392465
0.392469
0.392478
0.392462
0.392395
0.392169
0.382834
0.390152
0.392123
0.392293
0.39228
0.392231
0.392375
0.392491
0.392396
0.392401
0.3924
0.392291
0.392353
0.392485
0.39245
0.392447
0.392358
0.392316
0.392472
0.392685
0.392571
0.392632
0.392712
0.392687
0.392695
0.392673
0.392514
0.392489
0.392521
0.392432
0.392564
0.392633
0.392446
0.392499
0.392691
0.392696
0.392721
0.392694
0.39266
0.392658
0.392642
0.392617
0.392588
0.392567
0.392543
0.392503
0.392454
0.392282
0.392348
0.392501
0.392397
0.392435
0.392447
0.3924
0.39224
0.392242
0.39236
0.392426
0.392384
0.392283
0.392225
0.392358
0.392474
0.392345
0.392347
0.392337
0.392377
0.392378
0.392356
0.392318
0.392252
0.392369
0.392548
0.392424
0.392491
0.392589
0.392564
0.392535
0.392519
0.392501
0.392318
0.392283
0.392373
0.392346
0.392438
0.392528
0.392466
0.392462
0.392438
0.39222
0.382854
0.390067
0.392258
0.392776
0.39288
0.392899
0.392904
0.392908
0.392912
0.392918
0.392924
0.392929
0.392936
0.392948
0.392911
0.392877
0.392836
0.392806
0.392811
0.392834
0.39279
0.392754
0.392725
0.392665
0.392613
0.392457
0.392538
0.392608
0.392509
0.392514
0.392509
0.392386
0.392441
0.392499
0.392275
0.392387
0.392494
0.392298
0.392419
0.392514
0.392336
0.39246
0.392543
0.39243
0.392463
0.392412
0.392447
0.392524
0.392504
0.392501
0.392402
0.392295
0.392278
0.392259
0.392258
0.392207
0.392284
0.392594
0.392638
0.39261
0.392588
0.392601
0.392597
0.39255
0.392524
0.392354
0.392409
0.392449
0.392296
0.392284
0.392283
0.392288
0.392185
0.392274
0.392405
0.392403
0.392402
0.392182
0.392264
0.392399
0.392401
0.3924
0.392181
0.392265
0.3924
0.392323
0.392318
0.392333
0.392331
0.39214
0.382869
0.390011
0.392259
0.392585
0.392551
0.392536
0.392571
0.392599
0.39252
0.39252
0.392505
0.392337
0.392355
0.39251
0.392546
0.392501
0.392285
0.392378
0.392532
0.392527
0.392506
0.392511
0.392538
0.392516
0.392453
0.392491
0.392568
0.392349
0.392441
0.39261
0.3926
0.392568
0.392598
0.392617
0.392463
0.392453
0.392434
0.392453
0.392403
0.392249
0.392326
0.392393
0.392176
0.392277
0.392438
0.392267
0.392355
0.39243
0.392422
0.392422
0.392371
0.392271
0.392282
0.392624
0.3928
0.392833
0.392792
0.392753
0.392714
0.392677
0.39266
0.392678
0.392612
0.392577
0.392578
0.392579
0.392577
0.392441
0.392478
0.392502
0.392317
0.392403
0.392445
0.392407
0.392404
0.392341
0.39234
0.392306
0.392252
0.392379
0.392471
0.392444
0.392441
0.392322
0.392405
0.39244
0.392374
0.392387
0.39237
0.392192
0.382868
0.390017
0.39222
0.392762
0.392877
0.392899
0.392905
0.392908
0.392912
0.392918
0.392925
0.392932
0.392939
0.392951
0.392914
0.392879
0.392894
0.392863
0.392782
0.392739
0.392662
0.392694
0.392719
0.392604
0.392593
0.392627
0.39263
0.392423
0.392489
0.392558
0.392521
0.392511
0.39231
0.392382
0.392415
0.392393
0.392386
0.392193
0.392298
0.392398
0.392184
0.392297
0.392416
0.392311
0.392303
0.39219
0.392304
0.392442
0.392403
0.392359
0.392283
0.392212
0.39227
0.392659
0.392762
0.392742
0.392703
0.39266
0.392659
0.392677
0.392611
0.392578
0.392582
0.392584
0.392582
0.39253
0.392491
0.392358
0.392406
0.392427
0.392321
0.392314
0.392285
0.392291
0.392171
0.39226
0.392403
0.392403
0.392403
0.392303
0.392241
0.392374
0.392488
0.392461
0.392441
0.392431
0.39244
0.392433
0.39243
0.392203
0.382855
0.390067
0.392258
0.392777
0.392882
0.3929
0.392905
0.392909
0.392913
0.39292
0.392927
0.392932
0.392941
0.392949
0.392962
0.392926
0.392892
0.392909
0.392878
0.392797
0.392768
0.392785
0.392776
0.392798
0.392733
0.392508
0.392555
0.392628
0.392461
0.392526
0.392541
0.392355
0.39244
0.392499
0.392274
0.392383
0.392486
0.392288
0.392408
0.392502
0.392324
0.392437
0.392556
0.392519
0.392557
0.392493
0.392462
0.39245
0.392451
0.392419
0.392292
0.392345
0.392693
0.392765
0.392741
0.392707
0.392666
0.392664
0.392682
0.392617
0.392586
0.392563
0.39258
0.392565
0.392482
0.392484
0.392485
0.392451
0.392437
0.392401
0.392388
0.392384
0.392216
0.392274
0.392403
0.392402
0.392401
0.392181
0.392264
0.392398
0.392392
0.392392
0.392339
0.392329
0.392157
0.39221
0.392395
0.392429
0.392382
0.392169
0.382868
0.390017
0.39222
0.392762
0.392877
0.392899
0.392904
0.392908
0.392914
0.39292
0.392926
0.392933
0.392945
0.392907
0.392872
0.392889
0.392858
0.392776
0.392734
0.392658
0.392703
0.392732
0.392649
0.392658
0.392642
0.392469
0.392517
0.392585
0.392365
0.392479
0.392593
0.392399
0.392457
0.392542
0.392532
0.392525
0.392366
0.392302
0.392348
0.392366
0.392267
0.392342
0.392382
0.392162
0.392255
0.392325
0.392125
0.392237
0.392346
0.392224
0.392213
0.392145
0.392253
0.39265
0.3928
0.392782
0.392745
0.392717
0.392681
0.392666
0.392682
0.392619
0.392588
0.39257
0.392593
0.392521
0.392489
0.392487
0.392486
0.392499
0.392457
0.392417
0.392349
0.392312
0.392312
0.392254
0.392376
0.392453
0.392416
0.39241
0.39224
0.39233
0.392387
0.392317
0.392322
0.392326
0.392243
0.392304
0.392387
0.39215
0.382868
0.390017
0.392221
0.392732
0.392742
0.392709
0.392675
0.392685
0.392691
0.392653
0.39258
0.3925
0.392544
0.392624
0.392616
0.392558
0.392371
0.392405
0.392589
0.392497
0.392596
0.392698
0.392697
0.392697
0.392471
0.392529
0.392596
0.39238
0.392475
0.392537
0.392324
0.392431
0.392514
0.392291
0.392399
0.392503
0.392397
0.392416
0.392408
0.392274
0.392328
0.39238
0.392277
0.392264
0.392212
0.3922
0.392168
0.392159
0.392291
0.392677
0.392795
0.392817
0.392823
0.392825
0.392827
0.392829
0.39283
0.392832
0.392833
0.392836
0.39284
0.392802
0.392762
0.392751
0.392716
0.392674
0.392677
0.392697
0.392624
0.39259
0.392576
0.392541
0.392545
0.392548
0.392504
0.392375
0.392428
0.392461
0.392304
0.39229
0.392289
0.392292
0.392309
0.392269
0.392314
0.392415
0.392395
0.392415
0.392363
0.392182
0.38285
0.390084
0.392152
0.392389
0.39231
0.392314
0.392246
0.39233
0.392398
0.392187
0.392292
0.39247
0.392297
0.392386
0.39244
0.392346
0.392316
0.392455
0.392728
0.392666
0.392741
0.392775
0.3927
0.392706
0.392692
0.392521
0.39258
0.392644
0.392428
0.392526
0.392637
0.392451
0.392558
0.392645
0.392483
0.392579
0.392616
0.39258
0.392592
0.392509
0.392532
0.392538
0.392517
0.392528
0.392462
0.392239
0.392243
0.392337
0.392295
0.392311
0.392285
0.392183
0.392243
0.392364
0.392233
0.392232
0.392226
0.392241
0.392136
0.392236
0.392327
0.392118
0.392224
0.39232
0.392112
0.392165
0.392372
0.392305
0.392406
0.392456
0.392364
0.392393
0.392336
0.392295
0.392187
0.392276
0.392405
0.392403
0.392402
0.392183
0.392265
0.392398
0.392337
0.392355
0.39233
0.392222
0.392281
0.392401
0.392371
0.392282
0.382855
0.390067
0.392258
0.392778
0.392882
0.3929
0.392904
0.392908
0.392913
0.392923
0.392884
0.392847
0.392862
0.392829
0.392745
0.392718
0.392738
0.392728
0.392744
0.392724
0.392679
0.392622
0.392433
0.392491
0.39262
0.392551
0.392544
0.392411
0.39253
0.392593
0.39256
0.39247
0.392487
0.39251
0.392446
0.392436
0.392375
0.392384
0.392387
0.392377
0.392396
0.392343
0.39216
0.392256
0.392418
0.39238
0.392403
0.392383
0.392297
0.392269
0.392532
0.392772
0.392814
0.392821
0.392824
0.392826
0.392828
0.39283
0.392832
0.392834
0.392836
0.392838
0.392839
0.392843
0.392826
0.392783
0.392757
0.392731
0.392694
0.392681
0.392699
0.392625
0.392591
0.392575
0.392538
0.392502
0.39251
0.392498
0.392372
0.392404
0.392474
0.392312
0.392412
0.392462
0.392345
0.392369
0.392311
0.392325
0.392328
0.392176
0.382855
0.390067
0.392258
0.392777
0.392882
0.3929
0.392905
0.392909
0.392914
0.39292
0.392927
0.392936
0.392945
0.392957
0.392922
0.392889
0.392908
0.392878
0.392799
0.392783
0.392805
0.392787
0.392803
0.392784
0.392727
0.392541
0.392589
0.392662
0.392497
0.39257
0.392589
0.392457
0.392577
0.39265
0.392484
0.392563
0.392676
0.392654
0.392693
0.392639
0.392639
0.392643
0.392619
0.392624
0.392548
0.392449
0.392416
0.392412
0.392258
0.392264
0.392564
0.392778
0.392813
0.39282
0.392823
0.392826
0.392828
0.39283
0.392832
0.392834
0.392836
0.392837
0.392839
0.392841
0.392843
0.392846
0.392828
0.392785
0.392773
0.392783
0.392719
0.392684
0.392668
0.392683
0.392626
0.392596
0.39259
0.392606
0.392562
0.392525
0.392514
0.392384
0.392445
0.39248
0.392313
0.392391
0.392425
0.392406
0.392402
0.392198
0.382845
0.390116
0.392164
0.392379
0.392337
0.392443
0.392461
0.392255
0.39234
0.392403
0.392193
0.392198
0.392518
0.392865
0.392953
0.392933
0.392902
0.392921
0.392892
0.392814
0.39277
0.39278
0.392782
0.392618
0.39266
0.3927
0.392578
0.39259
0.392513
0.392481
0.392385
0.392474
0.392524
0.392293
0.3924
0.392498
0.392297
0.392352
0.392599
0.392599
0.392584
0.392554
0.392561
0.392578
0.392531
0.392453
0.392385
0.392344
0.392327
0.392341
0.392337
0.392363
0.39233
0.392229
0.392302
0.392638
0.392644
0.392623
0.392604
0.392604
0.392623
0.392569
0.39258
0.39254
0.392501
0.392497
0.392459
0.392414
0.392391
0.392353
0.392314
0.39224
0.392349
0.39258
0.392552
0.392546
0.392508
0.392536
0.392539
0.392375
0.392428
0.392454
0.392301
0.392331
0.392341
0.392305
0.392193
0.392296
0.392388
0.392151
0.382855
0.390067
0.392258
0.392777
0.392881
0.392901
0.392894
0.392854
0.392821
0.392834
0.392802
0.392717
0.392672
0.392674
0.392651
0.392572
0.392559
0.392622
0.392596
0.392546
0.392406
0.39249
0.392595
0.392592
0.392567
0.392585
0.392618
0.392377
0.392464
0.392546
0.39251
0.392409
0.392433
0.392456
0.392364
0.392346
0.39216
0.392268
0.392386
0.392179
0.392274
0.392336
0.39213
0.392233
0.392308
0.392092
0.39219
0.392353
0.392192
0.392227
0.392298
0.392283
0.392281
0.392158
0.392229
0.39236
0.392273
0.392253
0.392328
0.392352
0.392314
0.39221
0.392257
0.392332
0.392122
0.392234
0.39236
0.392145
0.392245
0.392333
0.392211
0.392167
0.392321
0.392402
0.392291
0.392291
0.39229
0.392292
0.39215
0.392235
0.392367
0.392323
0.392317
0.392153
0.392259
0.392342
0.392131
0.39224
0.39234
0.392119
0.382855
0.390067
0.392258
0.392777
0.392882
0.3929
0.392904
0.392909
0.392914
0.392921
0.392928
0.392939
0.392902
0.392867
0.392884
0.392854
0.392773
0.392732
0.392701
0.392682
0.392659
0.392656
0.392672
0.392657
0.392481
0.392533
0.392606
0.39239
0.392486
0.39255
0.39232
0.392407
0.39247
0.392226
0.39231
0.392462
0.392457
0.392451
0.392216
0.392299
0.392377
0.392244
0.392238
0.392162
0.392289
0.392444
0.392335
0.392394
0.392419
0.392368
0.392209
0.392267
0.392313
0.392095
0.392194
0.392362
0.39223
0.392288
0.392311
0.39217
0.392255
0.392378
0.392381
0.392381
0.392163
0.392265
0.392369
0.392148
0.392244
0.39234
0.392132
0.392244
0.392369
0.39235
0.392346
0.392163
0.392256
0.392344
0.392168
0.392261
0.392379
0.392248
0.392309
0.392334
0.392294
0.392186
0.392285
0.392385
0.392362
0.3923
0.382855
0.390067
0.392258
0.392777
0.392881
0.3929
0.392904
0.392909
0.392914
0.39292
0.392927
0.392936
0.392945
0.392955
0.39297
0.392935
0.392903
0.392922
0.392893
0.392814
0.392802
0.392824
0.392805
0.392768
0.39275
0.392698
0.392553
0.392602
0.39268
0.392632
0.392625
0.392507
0.392604
0.392656
0.392486
0.392579
0.392614
0.392503
0.392499
0.392484
0.392495
0.392515
0.392525
0.392484
0.392366
0.392382
0.392392
0.392293
0.392225
0.39234
0.392711
0.392798
0.392816
0.39282
0.392823
0.392825
0.392828
0.392829
0.392831
0.392834
0.392835
0.392837
0.392839
0.392841
0.392846
0.3928
0.392772
0.392779
0.392722
0.392686
0.392675
0.392694
0.392624
0.392591
0.392577
0.392543
0.392545
0.392548
0.392505
0.392377
0.392427
0.392455
0.392414
0.392411
0.39235
0.392334
0.392177
0.392281
0.392383
0.392149
0.382855
0.390067
0.392258
0.392777
0.392882
0.3929
0.392905
0.39291
0.392914
0.39292
0.392928
0.392936
0.392945
0.392958
0.392922
0.392889
0.392907
0.392878
0.392799
0.392758
0.392683
0.392705
0.392737
0.392738
0.392738
0.392538
0.3926
0.392656
0.392457
0.392556
0.392649
0.392461
0.392572
0.39265
0.392484
0.392563
0.392676
0.392654
0.392694
0.39264
0.39264
0.392644
0.392619
0.392624
0.392548
0.39245
0.392417
0.392412
0.392259
0.392265
0.392564
0.392778
0.392814
0.392821
0.392824
0.392825
0.392827
0.39283
0.392832
0.392834
0.392838
0.392816
0.392774
0.392763
0.392774
0.392707
0.392669
0.392668
0.392694
0.392653
0.392625
0.392615
0.392564
0.392405
0.392457
0.392508
0.392371
0.39245
0.39254
0.392477
0.392478
0.392482
0.392417
0.392377
0.392366
0.39238
0.392263
0.392322
0.392354
0.392144
0.382855
0.390067
0.392258
0.392777
0.392882
0.3929
0.392904
0.392909
0.392914
0.392922
0.392883
0.392847
0.392862
0.39283
0.392743
0.3927
0.392699
0.392667
0.392595
0.392558
0.39256
0.392557
0.392419
0.39249
0.39262
0.392593
0.392572
0.392622
0.39265
0.392543
0.392542
0.392514
0.392518
0.392516
0.392495
0.392304
0.392368
0.392426
0.392402
0.392405
0.392344
0.392307
0.392146
0.392255
0.392418
0.392343
0.392357
0.392365
0.392297
0.39228
0.392537
0.392773
0.392814
0.392821
0.392824
0.392827
0.392828
0.39283
0.392832
0.392834
0.392839
0.392794
0.392766
0.392774
0.392719
0.392682
0.392705
0.392732
0.392693
0.392666
0.392615
0.39256
0.392522
0.392455
0.392551
0.392602
0.392513
0.392503
0.392465
0.392468
0.392466
0.392355
0.392412
0.392449
0.392273
0.392371
0.392421
0.392371
0.392362
0.392163
0.382851
0.390084
0.392151
0.392393
0.392313
0.392321
0.392252
0.392282
0.392427
0.392503
0.392464
0.392248
0.392339
0.392491
0.392451
0.392445
0.392323
0.392291
0.392496
0.392715
0.392603
0.39269
0.392723
0.392624
0.392673
0.392681
0.392544
0.392599
0.392672
0.392586
0.392594
0.392506
0.392594
0.392653
0.392486
0.392563
0.392681
0.392671
0.39267
0.392637
0.392632
0.39259
0.392558
0.392538
0.392526
0.392459
0.392235
0.392241
0.392338
0.392223
0.392226
0.392219
0.392233
0.392128
0.392228
0.392317
0.392108
0.392186
0.39237
0.39233
0.392324
0.392163
0.392245
0.392382
0.392386
0.392387
0.392287
0.392231
0.392319
0.392601
0.392572
0.392626
0.392637
0.392609
0.392624
0.392561
0.39252
0.392468
0.392344
0.392417
0.392525
0.39239
0.392437
0.392557
0.392531
0.392475
0.392304
0.392336
0.392356
0.392145
0.382869
0.390011
0.392259
0.392584
0.39247
0.39246
0.392572
0.39259
0.392518
0.392521
0.392506
0.392339
0.392389
0.392478
0.392468
0.392468
0.392272
0.392413
0.39257
0.39256
0.392533
0.392528
0.392554
0.39254
0.392473
0.392513
0.39259
0.392369
0.392477
0.392599
0.392398
0.392491
0.392637
0.392603
0.392605
0.392524
0.392539
0.392551
0.392531
0.392301
0.392332
0.39238
0.392276
0.392264
0.392213
0.392199
0.392168
0.392158
0.392339
0.392485
0.392325
0.392422
0.39247
0.392312
0.392368
0.39267
0.392722
0.392652
0.392651
0.392663
0.392684
0.392618
0.392585
0.392571
0.392486
0.392483
0.392484
0.392449
0.392435
0.392401
0.392388
0.392384
0.392216
0.392275
0.392403
0.392402
0.392401
0.392181
0.392263
0.392397
0.392267
0.392282
0.392285
0.392249
0.392222
0.392232
0.39224
0.392248
0.3922
0.392093
0.382869
0.390011
0.392259
0.392584
0.392512
0.392492
0.392563
0.392598
0.392521
0.392522
0.392507
0.392339
0.392388
0.392477
0.392438
0.392434
0.392263
0.392408
0.392567
0.392569
0.392571
0.392356
0.392456
0.392538
0.392327
0.392447
0.392574
0.392362
0.392472
0.392595
0.39241
0.392506
0.392552
0.392479
0.392475
0.392368
0.392426
0.392497
0.392443
0.39227
0.392315
0.392378
0.392165
0.39226
0.392332
0.392311
0.392306
0.392236
0.392477
0.392761
0.392817
0.392779
0.392756
0.392762
0.392742
0.392645
0.392629
0.392727
0.392739
0.392707
0.392665
0.392663
0.392679
0.392621
0.392593
0.392572
0.392535
0.392536
0.392539
0.392496
0.392368
0.392419
0.392449
0.392408
0.392405
0.392345
0.39233
0.392173
0.392263
0.392404
0.392269
0.39227
0.392263
0.392273
0.392167
0.392266
0.392353
0.392275
0.392263
0.392104
0.382855
0.390067
0.392258
0.392777
0.392881
0.3929
0.392905
0.392909
0.392913
0.392919
0.392925
0.392933
0.392941
0.392949
0.392962
0.392926
0.392892
0.392909
0.392877
0.392796
0.392769
0.392787
0.392776
0.392797
0.392735
0.39252
0.392578
0.392637
0.392433
0.392554
0.392648
0.392466
0.392529
0.392691
0.392672
0.392594
0.392643
0.392692
0.39258
0.392652
0.392723
0.392696
0.392634
0.392589
0.392572
0.392478
0.392449
0.392459
0.392418
0.392416
0.392286
0.392325
0.392647
0.39276
0.392737
0.392747
0.392703
0.392676
0.392685
0.392619
0.392588
0.392564
0.39258
0.392566
0.392483
0.392484
0.392485
0.392451
0.392437
0.392401
0.392388
0.392384
0.392216
0.392274
0.392404
0.392403
0.392402
0.392181
0.392243
0.392462
0.392466
0.392473
0.392433
0.392373
0.392181
0.392209
0.392385
0.392427
0.392382
0.392169
0.382868
0.390017
0.392221
0.392763
0.392878
0.392899
0.392904
0.392908
0.392913
0.392919
0.392925
0.392932
0.392939
0.392948
0.392961
0.392924
0.392889
0.392905
0.392874
0.392792
0.39275
0.392715
0.392695
0.392669
0.392666
0.392665
0.39256
0.39254
0.392528
0.392444
0.392575
0.39264
0.39245
0.392497
0.392731
0.392724
0.392689
0.392702
0.392603
0.392641
0.392701
0.392644
0.392682
0.392623
0.392586
0.392562
0.392572
0.392553
0.392518
0.392481
0.392447
0.392315
0.392392
0.392651
0.392613
0.392615
0.392616
0.392539
0.392588
0.39274
0.392744
0.392759
0.39272
0.392685
0.392615
0.392573
0.392579
0.392592
0.392597
0.392571
0.392544
0.392511
0.392487
0.392406
0.392364
0.392333
0.392388
0.392425
0.392394
0.39239
0.392255
0.39236
0.392425
0.392256
0.392356
0.392408
0.392216
0.392307
0.39239
0.392152
0.382868
0.390017
0.392222
0.392732
0.392746
0.392715
0.392697
0.39262
0.392663
0.392683
0.392584
0.392574
0.392548
0.392482
0.392489
0.392491
0.392344
0.392395
0.392555
0.392593
0.392549
0.392334
0.392434
0.392514
0.392306
0.392428
0.392558
0.392355
0.392455
0.392526
0.3925
0.392426
0.392471
0.392546
0.392539
0.392533
0.392279
0.392355
0.392424
0.392204
0.392316
0.392433
0.392274
0.392341
0.392361
0.392339
0.39228
0.392365
0.39244
0.392349
0.392351
0.392276
0.392371
0.392707
0.392729
0.392705
0.392701
0.39269
0.392647
0.392577
0.39263
0.392707
0.392687
0.392631
0.392597
0.392569
0.392553
0.392517
0.392452
0.39255
0.392599
0.392545
0.392534
0.392522
0.392548
0.392498
0.392508
0.392379
0.392424
0.392457
0.392276
0.39227
0.392364
0.392366
0.392261
0.39236
0.392426
0.392388
0.392379
0.392157
0.382855
0.390067
0.392258
0.392776
0.39288
0.392899
0.392904
0.392907
0.392911
0.392918
0.392924
0.392929
0.392937
0.392945
0.392957
0.39292
0.392883
0.392899
0.392866
0.392783
0.392738
0.392745
0.392745
0.392577
0.392607
0.392652
0.392515
0.392574
0.392607
0.392555
0.3924
0.392458
0.392515
0.39229
0.392402
0.392508
0.392312
0.392432
0.392526
0.392347
0.392471
0.392552
0.392394
0.392498
0.392554
0.392496
0.392507
0.392522
0.392553
0.392522
0.392486
0.392453
0.392321
0.392416
0.392588
0.392527
0.392533
0.392486
0.392525
0.392616
0.392585
0.392458
0.392513
0.392551
0.392456
0.392488
0.392497
0.392489
0.392506
0.392522
0.392449
0.392391
0.392212
0.392269
0.392403
0.392403
0.392402
0.392182
0.392264
0.392399
0.392401
0.3924
0.392181
0.392265
0.392399
0.392322
0.392317
0.392332
0.39233
0.39214
0.382846
0.390134
0.392108
0.392344
0.392295
0.392307
0.392211
0.392248
0.39237
0.392296
0.392315
0.392249
0.392358
0.392777
0.39288
0.39287
0.392834
0.392805
0.392809
0.39283
0.392786
0.392748
0.392715
0.392647
0.392603
0.392459
0.392543
0.392614
0.392413
0.392535
0.392634
0.392455
0.392513
0.392707
0.392699
0.392714
0.392717
0.39262
0.392678
0.3927
0.392631
0.392668
0.392618
0.392592
0.392594
0.392578
0.39236
0.392383
0.392413
0.392262
0.392328
0.392426
0.392377
0.392385
0.392368
0.392189
0.392153
0.392297
0.392341
0.3923
0.392159