/*--------------------------------*- C++ -*----------------------------------*\
  =========                 |
  \\      /  F ield         | OpenFOAM: The Open Source CFD Toolbox
   \\    /   O peration     | Website:  https://openfoam.org
    \\  /    A nd           | Version:  11
     \\/     M anipulation  |
\*---------------------------------------------------------------------------*/
FoamFile
{
    format      ascii;
    class       volScalarField;
    location    "0.02";
    object      nut;
}
// * * * * * * * * * * * * * * * * * * * * * * * * * * * * * * * * * * * * * //

dimensions      [0 2 -1 0 0 0 0];

internalField   nonuniform List<scalar> 
287084
(
0.000839564
0.000856229
0.000861401
0.000862171
0.000862267
0.000862321
0.000861969
0.000862115
0.000862356
0.000862338
0.000862302
0.000861967
0.000861787
0.000862057
0.000862471
0.000862158
0.000862264
0.000862372
0.000862203
0.000862141
0.000862091
0.000861931
0.000861855
0.000861718
0.000861364
0.000861499
0.000861769
0.000861756
0.000861771
0.000861315
0.000861577
0.000861811
0.000861371
0.000861672
0.000861989
0.000861916
0.000861846
0.000862127
0.000862418
0.000862121
0.000862394
0.000862551
0.000862199
0.000862489
0.000862756
0.000862319
0.000862599
0.000862868
0.000862878
0.00086291
0.000862826
0.000862671
0.000862827
0.000863089
0.000862747
0.000862886
0.000862953
0.000862913
0.000862767
0.000862998
0.0008632
0.000862785
0.000862994
0.000863154
0.000862974
0.000862985
0.000862849
0.000863018
0.000863069
0.00086295
0.000862769
0.000862968
0.000863257
0.000863168
0.000863095
0.00086311
0.000863156
0.000862939
0.000863017
0.000863044
0.000862968
0.00086294
0.00086256
0.000862697
0.000862987
0.000862563
0.000862777
0.000862913
0.000862832
0.000862608
0.0011865
0.00120925
0.00121635
0.00121741
0.00121736
0.00121748
0.00121729
0.00121716
0.00121699
0.00121695
0.00121687
0.00121623
0.00121629
0.0012164
0.00121562
0.00121588
0.00121617
0.00121547
0.0012154
0.0012164
0.00121673
0.00121648
0.00121634
0.00121634
0.00121639
0.00121607
0.00121617
0.0012162
0.00121585
0.00121594
0.00121604
0.00121556
0.00121596
0.00121636
0.00121581
0.00121623
0.00121687
0.00121678
0.00121686
0.00121692
0.00121703
0.00121663
0.00121698
0.00121744
0.00121749
0.00121755
0.00121687
0.00121717
0.00121747
0.00121682
0.00121716
0.00121775
0.00121748
0.0012175
0.00121745
0.00121778
0.00121792
0.00121759
0.00121783
0.00121792
0.00121748
0.00121739
0.0012178
0.00121795
0.00121786
0.00121792
0.00121783
0.00121771
0.00121749
0.00121795
0.00121825
0.0012179
0.00121786
0.00121765
0.0012179
0.00121818
0.001218
0.00121804
0.00121798
0.00121737
0.00121736
0.00121762
0.00121742
0.00121754
0.00121738
0.00121727
0.00121699
0.00121737
0.00121768
0.00121694
0.00118659
0.00120935
0.00121644
0.00121747
0.00121717
0.00121735
0.0012174
0.0012172
0.0012172
0.00121723
0.00121724
0.001217
0.00121625
0.00121621
0.00121646
0.00121645
0.00121637
0.00121588
0.00121562
0.00121604
0.0012165
0.0012164
0.00121632
0.00121625
0.00121627
0.001216
0.00121582
0.00121605
0.00121619
0.00121581
0.00121624
0.00121654
0.00121608
0.00121658
0.00121696
0.0012166
0.00121712
0.00121746
0.00121717
0.00121728
0.00121738
0.00121752
0.00121758
0.00121771
0.00121774
0.00121771
0.00121782
0.00121794
0.00121782
0.00121731
0.0012174
0.00121773
0.00121773
0.0012177
0.00121787
0.00121801
0.0012174
0.00121771
0.00121792
0.0012177
0.00121758
0.00121794
0.0012184
0.00121808
0.00121811
0.0012181
0.00121812
0.00121774
0.00121793
0.00121802
0.00121752
0.00121748
0.00121746
0.00121764
0.00121769
0.00121736
0.00121774
0.00121816
0.00121807
0.00121819
0.001218
0.00121793
0.00121791
0.00121752
0.00121765
0.00121777
0.00121723
0.00121744
0.00121749
0.00121693
0.00118661
0.00120948
0.00121646
0.00121789
0.00121774
0.00121785
0.00121783
0.00121768
0.00121764
0.00121734
0.00121717
0.00121703
0.00121686
0.00121681
0.0012168
0.00121664
0.00121654
0.00121595
0.0012162
0.00121645
0.0012159
0.00121578
0.0012157
0.00121568
0.00121563
0.00121565
0.00121533
0.00121566
0.001216
0.00121607
0.00121614
0.00121553
0.00121597
0.00121638
0.00121588
0.00121631
0.0012169
0.00121664
0.001217
0.00121738
0.00121743
0.00121758
0.00121762
0.0012176
0.00121758
0.00121749
0.00121704
0.0012174
0.0012178
0.00121752
0.00121754
0.00121757
0.00121764
0.00121746
0.00121784
0.00121804
0.00121764
0.00121789
0.001218
0.0012179
0.00121763
0.00121771
0.00121831
0.00121832
0.00121831
0.00121817
0.00121812
0.00121814
0.0012181
0.00121764
0.00121768
0.00121806
0.00121797
0.0012178
0.00121799
0.00121811
0.00121807
0.00121805
0.00121776
0.00121773
0.00121745
0.00121772
0.00121784
0.00121763
0.00121762
0.00121733
0.00121751
0.00121757
0.00121743
0.00121706
0.00118662
0.00120952
0.00121654
0.00121782
0.00121766
0.00121762
0.00121744
0.0012175
0.00121753
0.00121719
0.0012171
0.00121698
0.00121669
0.0012166
0.00121658
0.00121646
0.00121637
0.00121571
0.00121583
0.00121643
0.00121612
0.00121634
0.00121638
0.00121602
0.00121597
0.00121595
0.00121558
0.00121586
0.00121613
0.00121553
0.00121586
0.00121651
0.00121633
0.00121664
0.001217
0.00121704
0.00121722
0.00121722
0.00121708
0.00121718
0.00121703
0.00121725
0.00121749
0.00121745
0.00121713
0.00121714
0.00121759
0.00121769
0.00121756
0.00121779
0.00121795
0.00121731
0.00121762
0.00121806
0.00121767
0.0012179
0.0012182
0.00121815
0.00121822
0.00121808
0.00121759
0.00121789
0.00121817
0.00121756
0.00121785
0.00121802
0.00121746
0.0012177
0.00121808
0.00121765
0.00121788
0.00121815
0.001218
0.00121806
0.00121787
0.00121792
0.001218
0.0012178
0.00121782
0.0012178
0.00121743
0.00121772
0.00121793
0.00121766
0.00121781
0.00121784
0.00121762
0.00121779
0.00121783
0.00121707
0.00118662
0.0012096
0.00121607
0.00121678
0.00121665
0.00121627
0.00121658
0.0012169
0.00121659
0.00121649
0.00121609
0.0012165
0.00121698
0.00121652
0.00121668
0.0012167
0.00121639
0.00121634
0.00121619
0.00121615
0.00121592
0.00121538
0.00121557
0.00121574
0.00121505
0.00121535
0.00121589
0.00121562
0.00121567
0.00121566
0.0012161
0.00121654
0.00121635
0.00121646
0.00121657
0.00121616
0.00121651
0.00121685
0.00121632
0.00121681
0.0012173
0.00121683
0.00121732
0.00121775
0.0012173
0.00121777
0.00121812
0.00121783
0.00121786
0.00121789
0.00121761
0.00121783
0.00121796
0.00121798
0.00121799
0.00121727
0.00121751
0.00121791
0.00121791
0.00121791
0.00121722
0.00121748
0.00121789
0.00121788
0.00121788
0.00121756
0.00121737
0.00121767
0.00121841
0.00121819
0.00121827
0.00121829
0.00121817
0.00121817
0.00121817
0.00121773
0.00121794
0.00121807
0.0012176
0.0012178
0.001218
0.00121796
0.00121807
0.00121799
0.00121777
0.00121774
0.00121768
0.00121762
0.00121747
0.00121694
0.00118658
0.00120979
0.00121608
0.0012167
0.00121678
0.00121659
0.00121666
0.00121667
0.00121623
0.0012163
0.00121732
0.00121798
0.00121804
0.00121799
0.00121777
0.00121756
0.00121733
0.00121711
0.00121702
0.00121666
0.00121657
0.00121657
0.00121636
0.00121634
0.00121632
0.00121622
0.00121567
0.0012159
0.00121615
0.00121614
0.00121602
0.0012163
0.00121659
0.00121616
0.00121669
0.0012171
0.00121676
0.00121722
0.00121759
0.00121759
0.00121779
0.0012177
0.00121793
0.0012181
0.0012179
0.00121797
0.00121805
0.00121799
0.00121792
0.00121793
0.00121791
0.00121796
0.00121799
0.00121745
0.0012177
0.00121802
0.00121798
0.00121797
0.00121727
0.00121751
0.00121791
0.00121747
0.00121772
0.00121781
0.00121767
0.0012173
0.00121748
0.00121788
0.00121745
0.00121761
0.00121767
0.00121725
0.0012175
0.00121787
0.00121776
0.00121774
0.00121728
0.00121772
0.00121805
0.00121787
0.00121782
0.00121773
0.00121756
0.00121773
0.0012179
0.00121772
0.00121761
0.00121772
0.00121778
0.00121704
0.00118663
0.00120958
0.00121656
0.00121824
0.00121851
0.00121851
0.00121846
0.0012184
0.00121834
0.00121827
0.00121821
0.00121813
0.00121805
0.00121798
0.00121774
0.00121753
0.00121729
0.00121707
0.00121698
0.00121662
0.00121651
0.00121648
0.00121629
0.00121626
0.00121629
0.00121624
0.00121562
0.00121575
0.00121601
0.00121561
0.00121609
0.00121645
0.00121602
0.00121656
0.00121698
0.00121665
0.00121704
0.00121779
0.0012179
0.001218
0.00121812
0.0012181
0.0012184
0.00121855
0.00121854
0.00121866
0.00121862
0.00121852
0.00121847
0.00121828
0.00121822
0.00121817
0.00121825
0.00121805
0.00121797
0.00121791
0.0012178
0.00121768
0.00121745
0.00121776
0.00121835
0.00121822
0.00121819
0.00121818
0.00121817
0.0012177
0.00121794
0.00121803
0.00121755
0.0012175
0.00121749
0.0012175
0.00121717
0.00121744
0.00121783
0.00121782
0.0012178
0.00121711
0.0012173
0.00121797
0.00121797
0.00121799
0.00121786
0.00121767
0.00121707
0.00121716
0.0012177
0.00121782
0.00121767
0.001217
0.00118661
0.00120973
0.0012162
0.00121707
0.00121695
0.00121677
0.00121669
0.00121634
0.00121634
0.00121734
0.00121803
0.00121809
0.00121804
0.00121781
0.00121759
0.00121735
0.00121713
0.00121701
0.00121678
0.00121654
0.00121648
0.00121646
0.00121629
0.00121613
0.00121613
0.00121609
0.00121553
0.00121567
0.00121595
0.00121556
0.00121605
0.00121642
0.001216
0.00121655
0.00121698
0.00121666
0.00121706
0.00121782
0.00121795
0.00121805
0.00121801
0.00121815
0.00121831
0.00121822
0.00121833
0.00121823
0.00121811
0.00121762
0.00121782
0.00121797
0.00121742
0.00121768
0.00121781
0.00121725
0.00121754
0.00121798
0.00121798
0.00121797
0.00121728
0.00121753
0.00121794
0.00121793
0.00121792
0.00121723
0.00121741
0.00121809
0.00121808
0.00121809
0.00121796
0.0012178
0.00121748
0.00121723
0.00121781
0.00121823
0.00121814
0.00121813
0.00121797
0.00121779
0.00121784
0.00121812
0.00121801
0.00121808
0.00121802
0.001218
0.00121795
0.00121788
0.00121733
0.00121746
0.00121769
0.00121694
0.00118656
0.00120987
0.00121595
0.00121618
0.00121664
0.00121693
0.00121622
0.00121646
0.0012169
0.00121684
0.00121675
0.00121598
0.00121616
0.00121649
0.0012164
0.00121628
0.0012155
0.00121566
0.001216
0.0012157
0.00121561
0.00121554
0.00121522
0.00121529
0.0012156
0.0012156
0.00121557
0.00121572
0.00121591
0.00121538
0.00121588
0.00121636
0.00121613
0.0012162
0.00121651
0.00121674
0.0012168
0.00121665
0.00121695
0.00121718
0.00121666
0.00121711
0.00121754
0.00121699
0.00121739
0.00121768
0.00121711
0.00121746
0.00121795
0.00121756
0.00121755
0.00121754
0.00121756
0.00121725
0.00121758
0.00121785
0.00121719
0.00121746
0.00121787
0.00121766
0.00121762
0.00121716
0.00121746
0.00121792
0.0012174
0.00121735
0.00121774
0.00121781
0.00121759
0.00121756
0.00121754
0.00121718
0.00121741
0.00121767
0.001217
0.00121728
0.0012177
0.00121758
0.00121756
0.00121701
0.00121729
0.00121767
0.00121746
0.00121742
0.00121697
0.001217
0.00121777
0.00121794
0.00121776
0.00121719
0.00118659
0.00120974
0.00121641
0.00121723
0.0012171
0.0012169
0.00121645
0.00121674
0.00121758
0.00121741
0.00121736
0.00121711
0.00121707
0.00121702
0.00121672
0.00121662
0.00121657
0.00121653
0.00121624
0.00121545
0.00121539
0.00121564
0.00121562
0.00121557
0.00121486
0.00121512
0.00121557
0.00121528
0.00121534
0.00121539
0.00121591
0.00121638
0.00121638
0.00121661
0.00121674
0.00121629
0.00121664
0.00121701
0.00121651
0.00121703
0.00121754
0.00121708
0.00121759
0.00121801
0.00121756
0.00121796
0.0012183
0.00121823
0.00121824
0.00121773
0.00121798
0.00121811
0.00121757
0.0012178
0.00121815
0.001218
0.00121752
0.0012176
0.00121789
0.00121768
0.00121764
0.00121717
0.00121752
0.00121787
0.00121748
0.00121743
0.0012172
0.00121761
0.00121841
0.00121819
0.00121818
0.00121815
0.00121817
0.00121819
0.00121794
0.00121809
0.00121824
0.0012182
0.00121809
0.00121807
0.00121814
0.00121806
0.00121804
0.00121745
0.00121768
0.00121789
0.00121749
0.00121753
0.0012175
0.00121708
0.00118659
0.00120977
0.00121632
0.00121722
0.00121737
0.00121719
0.00121697
0.0012165
0.00121639
0.00121728
0.00121799
0.00121805
0.00121797
0.00121788
0.00121763
0.0012174
0.00121713
0.00121688
0.00121676
0.0012167
0.00121644
0.00121622
0.00121607
0.00121592
0.00121573
0.00121515
0.00121534
0.00121562
0.00121505
0.00121545
0.00121576
0.00121528
0.00121582
0.00121631
0.00121587
0.00121644
0.001217
0.00121661
0.00121718
0.00121766
0.00121727
0.00121779
0.00121818
0.00121792
0.00121799
0.00121805
0.00121777
0.001218
0.00121812
0.00121805
0.00121804
0.00121748
0.00121739
0.00121788
0.00121801
0.00121794
0.00121784
0.0012177
0.00121748
0.00121768
0.00121797
0.00121786
0.00121783
0.00121749
0.00121738
0.00121754
0.0012174
0.00121783
0.00121806
0.00121785
0.00121781
0.00121724
0.00121752
0.00121779
0.00121738
0.00121734
0.00121712
0.00121764
0.00121804
0.00121763
0.00121758
0.00121756
0.00121765
0.00121764
0.00121771
0.0012177
0.00121759
0.00121768
0.00121769
0.00121705
0.00118663
0.00120959
0.00121659
0.00121827
0.00121854
0.00121853
0.00121848
0.00121841
0.00121833
0.00121825
0.00121815
0.00121806
0.00121795
0.00121785
0.0012176
0.00121735
0.00121708
0.00121684
0.0012167
0.00121646
0.00121619
0.00121599
0.00121578
0.00121574
0.00121577
0.00121575
0.00121523
0.00121541
0.0012157
0.00121533
0.00121588
0.00121628
0.00121593
0.00121634
0.00121717
0.00121742
0.00121773
0.00121789
0.0012178
0.00121812
0.00121846
0.00121844
0.00121854
0.00121866
0.00121869
0.00121864
0.00121846
0.0012184
0.00121848
0.00121856
0.00121846
0.00121835
0.00121792
0.00121821
0.00121843
0.00121809
0.00121805
0.00121789
0.0012183
0.00121849
0.00121808
0.00121804
0.00121793
0.00121823
0.00121832
0.00121778
0.00121801
0.0012181
0.0012176
0.00121754
0.00121752
0.00121752
0.00121719
0.00121745
0.00121785
0.00121783
0.00121782
0.00121712
0.00121737
0.00121778
0.00121778
0.00121777
0.00121709
0.00121728
0.00121795
0.00121796
0.00121798
0.00121794
0.00121772
0.001217
0.00118657
0.00120986
0.00121617
0.00121677
0.00121668
0.00121646
0.00121684
0.00121711
0.00121673
0.00121663
0.00121652
0.00121606
0.00121612
0.0012164
0.00121614
0.00121598
0.00121555
0.00121527
0.0012156
0.00121612
0.00121562
0.00121569
0.00121584
0.00121568
0.00121567
0.00121559
0.00121513
0.00121512
0.00121534
0.00121522
0.00121581
0.00121625
0.00121591
0.00121633
0.00121719
0.00121746
0.00121778
0.00121793
0.00121804
0.00121822
0.00121834
0.00121841
0.00121844
0.00121848
0.00121849
0.00121843
0.00121832
0.00121783
0.00121806
0.00121854
0.00121823
0.00121834
0.00121837
0.00121821
0.0012177
0.00121769
0.00121804
0.00121822
0.00121807
0.00121774
0.00121753
0.00121792
0.00121826
0.00121784
0.00121783
0.00121778
0.00121788
0.00121787
0.00121778
0.00121765
0.00121743
0.00121778
0.00121832
0.00121792
0.00121812
0.00121841
0.00121832
0.00121822
0.00121817
0.0012181
0.00121752
0.00121741
0.00121768
0.00121759
0.00121787
0.00121815
0.00121795
0.00121794
0.00121785
0.00121716
0.00118663
0.00120959
0.00121659
0.00121826
0.00121854
0.00121853
0.00121847
0.00121839
0.00121831
0.00121822
0.00121813
0.00121802
0.0012179
0.00121779
0.00121752
0.00121726
0.00121697
0.00121672
0.00121657
0.00121648
0.0012162
0.00121596
0.00121576
0.0012155
0.00121529
0.0012148
0.00121509
0.00121539
0.00121521
0.0012154
0.00121559
0.00121544
0.00121588
0.00121633
0.00121592
0.00121654
0.00121713
0.00121677
0.00121736
0.00121786
0.00121748
0.00121801
0.00121839
0.00121814
0.00121832
0.00121823
0.00121838
0.00121865
0.00121861
0.00121861
0.0012183
0.00121796
0.0012179
0.00121782
0.0012178
0.00121762
0.00121784
0.00121878
0.00121889
0.00121878
0.00121868
0.0012187
0.00121866
0.00121849
0.00121839
0.00121784
0.00121799
0.0012181
0.0012176
0.00121755
0.00121753
0.00121753
0.0012172
0.00121746
0.00121785
0.00121784
0.00121782
0.00121713
0.00121737
0.00121778
0.00121778
0.00121778
0.00121709
0.00121734
0.00121775
0.00121751
0.00121749
0.00121753
0.00121752
0.00121691
0.00118668
0.00120941
0.00121659
0.00121767
0.00121751
0.0012174
0.00121743
0.00121743
0.00121709
0.00121698
0.00121681
0.00121615
0.00121607
0.0012164
0.00121635
0.00121604
0.00121521
0.00121532
0.00121562
0.00121545
0.00121522
0.0012151
0.00121507
0.00121492
0.00121467
0.00121479
0.00121507
0.00121448
0.00121491
0.00121562
0.00121582
0.00121597
0.00121635
0.0012167
0.00121652
0.00121678
0.001217
0.00121731
0.00121739
0.00121712
0.00121753
0.00121789
0.00121734
0.00121775
0.00121833
0.00121786
0.00121817
0.00121843
0.00121842
0.00121842
0.00121826
0.00121794
0.00121796
0.001219
0.00121952
0.0012196
0.00121945
0.0012193
0.00121915
0.00121901
0.00121893
0.00121896
0.00121873
0.00121859
0.00121857
0.00121855
0.00121852
0.00121808
0.00121818
0.00121824
0.00121764
0.00121789
0.00121801
0.00121788
0.00121785
0.00121765
0.00121763
0.00121752
0.00121734
0.00121773
0.001218
0.00121791
0.0012179
0.00121752
0.00121777
0.00121788
0.00121767
0.0012177
0.00121764
0.00121708
0.00118667
0.00120943
0.00121647
0.00121822
0.00121852
0.00121852
0.00121846
0.00121839
0.0012183
0.0012182
0.00121809
0.00121797
0.00121785
0.00121773
0.00121745
0.00121717
0.00121703
0.00121676
0.00121632
0.00121602
0.00121561
0.00121557
0.00121552
0.00121508
0.00121499
0.0012151
0.00121515
0.00121461
0.00121497
0.00121538
0.00121551
0.00121576
0.00121544
0.00121598
0.0012164
0.00121664
0.0012169
0.00121657
0.00121714
0.00121766
0.00121717
0.00121768
0.00121817
0.00121794
0.00121799
0.0012177
0.00121809
0.00121854
0.00121843
0.00121829
0.00121805
0.00121781
0.00121797
0.00121915
0.00121944
0.00121935
0.0012192
0.00121904
0.001219
0.00121903
0.0012188
0.00121866
0.00121865
0.00121863
0.0012186
0.00121841
0.00121827
0.00121784
0.00121796
0.00121801
0.00121766
0.00121762
0.00121752
0.00121752
0.00121713
0.0012174
0.00121783
0.00121782
0.00121781
0.00121749
0.00121729
0.0012177
0.00121805
0.00121796
0.00121789
0.00121785
0.00121787
0.00121785
0.00121783
0.00121711
0.00118663
0.00120959
0.00121659
0.00121827
0.00121853
0.00121852
0.00121846
0.00121838
0.00121828
0.00121819
0.00121808
0.00121796
0.00121783
0.00121769
0.00121755
0.00121726
0.00121697
0.00121683
0.00121654
0.00121611
0.00121584
0.00121575
0.00121559
0.00121557
0.00121532
0.00121462
0.00121482
0.00121516
0.00121481
0.00121522
0.00121553
0.00121525
0.00121584
0.00121636
0.00121599
0.00121665
0.00121727
0.00121693
0.00121755
0.00121806
0.00121769
0.00121819
0.00121868
0.00121867
0.00121886
0.00121871
0.00121865
0.00121863
0.00121864
0.00121853
0.00121812
0.00121827
0.00121933
0.00121952
0.00121941
0.00121928
0.00121912
0.00121908
0.0012191
0.00121887
0.00121874
0.00121864
0.00121866
0.00121858
0.0012183
0.00121828
0.00121826
0.00121813
0.00121807
0.00121794
0.00121788
0.00121785
0.00121731
0.00121747
0.00121786
0.00121784
0.00121783
0.00121714
0.00121738
0.00121779
0.00121776
0.00121775
0.00121758
0.00121754
0.00121699
0.00121716
0.00121772
0.00121783
0.00121768
0.001217
0.00118667
0.00120944
0.00121647
0.00121822
0.00121852
0.00121851
0.00121845
0.00121837
0.00121828
0.00121817
0.00121806
0.00121794
0.00121781
0.00121753
0.00121724
0.0012171
0.0012168
0.00121635
0.00121602
0.00121559
0.00121556
0.00121548
0.0012151
0.00121503
0.00121494
0.0012144
0.00121461
0.00121494
0.00121444
0.00121502
0.00121565
0.00121537
0.00121588
0.0012165
0.00121681
0.00121713
0.00121695
0.00121703
0.00121743
0.00121771
0.00121758
0.00121797
0.00121822
0.00121763
0.00121799
0.00121826
0.00121767
0.00121803
0.00121837
0.00121798
0.00121793
0.00121769
0.001218
0.0012192
0.00121963
0.00121954
0.00121939
0.00121927
0.00121912
0.00121904
0.00121905
0.00121882
0.0012187
0.00121861
0.00121865
0.00121841
0.00121828
0.00121825
0.00121823
0.00121824
0.0012181
0.00121795
0.00121772
0.00121759
0.00121758
0.00121739
0.00121775
0.00121798
0.00121786
0.00121783
0.00121729
0.00121756
0.00121773
0.00121751
0.00121752
0.00121753
0.00121726
0.00121745
0.0012177
0.00121695
0.00118668
0.00120943
0.00121647
0.00121812
0.0012181
0.00121792
0.00121774
0.00121767
0.00121758
0.00121734
0.00121697
0.00121657
0.00121655
0.00121662
0.0012164
0.00121603
0.00121525
0.00121515
0.00121551
0.00121503
0.00121515
0.0012153
0.00121516
0.00121506
0.00121431
0.0012145
0.00121477
0.00121423
0.00121472
0.00121515
0.00121479
0.00121545
0.00121606
0.00121573
0.00121643
0.00121709
0.00121709
0.00121744
0.00121768
0.00121749
0.00121784
0.00121816
0.00121796
0.00121801
0.00121792
0.00121793
0.00121786
0.00121784
0.00121825
0.00121943
0.00121978
0.00121982
0.00121981
0.00121978
0.00121974
0.00121971
0.00121968
0.00121964
0.00121961
0.00121958
0.00121956
0.00121941
0.00121925
0.00121919
0.00121905
0.00121889
0.00121887
0.00121891
0.00121866
0.00121853
0.00121847
0.00121834
0.00121834
0.00121833
0.00121818
0.00121777
0.00121792
0.00121801
0.00121751
0.00121746
0.00121744
0.00121745
0.00121749
0.00121736
0.00121749
0.0012178
0.00121773
0.0012178
0.00121763
0.00121705
0.00118662
0.00120964
0.00121625
0.00121706
0.00121675
0.00121669
0.0012164
0.00121656
0.00121666
0.00121588
0.00121607
0.00121646
0.00121576
0.00121585
0.00121583
0.00121534
0.00121503
0.00121525
0.00121589
0.00121549
0.00121552
0.00121546
0.00121508
0.00121501
0.00121491
0.00121439
0.00121464
0.00121498
0.00121451
0.00121507
0.00121573
0.00121549
0.00121619
0.00121684
0.00121671
0.00121736
0.00121781
0.001218
0.0012183
0.00121827
0.00121853
0.00121871
0.00121876
0.00121889
0.00121875
0.0012181
0.00121814
0.00121844
0.0012183
0.00121834
0.00121823
0.00121788
0.00121804
0.00121837
0.00121793
0.00121788
0.00121782
0.00121783
0.00121746
0.00121773
0.00121798
0.00121729
0.00121759
0.00121786
0.00121718
0.00121732
0.00121793
0.0012177
0.00121799
0.00121812
0.00121781
0.00121789
0.00121769
0.00121755
0.0012172
0.00121746
0.00121785
0.00121783
0.00121782
0.00121712
0.00121737
0.00121778
0.00121758
0.00121763
0.00121755
0.0012172
0.00121738
0.00121775
0.00121765
0.00121736
0.00118663
0.00120959
0.00121658
0.00121826
0.00121853
0.00121851
0.00121844
0.00121835
0.00121825
0.00121815
0.00121789
0.00121762
0.00121749
0.00121721
0.00121675
0.00121646
0.00121631
0.00121606
0.00121589
0.00121561
0.00121527
0.00121492
0.00121419
0.00121428
0.00121462
0.00121443
0.00121448
0.00121421
0.00121478
0.00121525
0.00121547
0.00121554
0.00121597
0.00121643
0.00121661
0.00121694
0.00121709
0.00121743
0.0012177
0.00121791
0.00121816
0.00121815
0.0012177
0.00121809
0.00121866
0.00121858
0.00121868
0.00121862
0.00121834
0.00121824
0.00121903
0.00121974
0.00121983
0.00121982
0.00121978
0.00121975
0.00121971
0.00121967
0.00121964
0.0012196
0.00121957
0.00121954
0.00121951
0.00121949
0.0012194
0.00121924
0.00121913
0.00121903
0.00121889
0.00121882
0.00121886
0.00121861
0.00121849
0.00121842
0.00121829
0.00121816
0.00121817
0.00121813
0.00121772
0.00121781
0.00121802
0.00121751
0.00121781
0.00121796
0.00121759
0.00121766
0.00121748
0.00121752
0.00121752
0.00121703
0.00118663
0.00120959
0.00121658
0.00121826
0.00121853
0.00121851
0.00121843
0.00121835
0.00121825
0.00121814
0.00121801
0.00121789
0.00121773
0.00121759
0.00121728
0.00121697
0.0012168
0.00121649
0.00121602
0.00121575
0.00121562
0.00121538
0.00121529
0.00121513
0.00121491
0.00121435
0.00121457
0.00121494
0.00121465
0.00121515
0.00121554
0.00121549
0.00121625
0.00121687
0.00121674
0.00121736
0.00121805
0.0012183
0.00121869
0.00121876
0.00121895
0.00121912
0.00121916
0.00121927
0.0012191
0.00121883
0.00121875
0.00121874
0.00121825
0.00121825
0.00121915
0.00121978
0.00121985
0.00121983
0.0012198
0.00121976
0.00121972
0.00121968
0.00121965
0.00121961
0.00121958
0.00121955
0.00121952
0.00121949
0.00121946
0.00121944
0.00121936
0.0012192
0.00121914
0.00121914
0.00121892
0.00121879
0.00121873
0.00121876
0.00121857
0.00121846
0.00121842
0.00121846
0.00121832
0.00121819
0.00121815
0.00121774
0.00121792
0.00121802
0.0012175
0.00121773
0.00121783
0.00121777
0.00121775
0.0012171
0.0011866
0.00120974
0.00121629
0.00121702
0.00121683
0.00121709
0.00121706
0.00121632
0.00121646
0.00121653
0.00121573
0.00121558
0.0012164
0.00121729
0.00121736
0.00121708
0.00121677
0.0012166
0.00121628
0.00121582
0.00121548
0.00121533
0.00121519
0.00121458
0.00121467
0.0012148
0.0012145
0.00121469
0.00121468
0.00121486
0.0012149
0.00121554
0.00121609
0.00121577
0.00121649
0.00121717
0.0012169
0.00121738
0.00121842
0.00121865
0.0012188
0.00121886
0.00121901
0.00121915
0.00121907
0.00121887
0.00121867
0.00121855
0.00121848
0.00121851
0.00121846
0.00121851
0.00121836
0.00121801
0.00121819
0.00121919
0.00121916
0.00121905
0.00121895
0.00121891
0.00121892
0.00121872
0.00121872
0.00121856
0.0012184
0.00121836
0.00121821
0.00121805
0.00121795
0.00121781
0.00121767
0.00121742
0.00121774
0.00121844
0.00121834
0.0012183
0.00121817
0.00121825
0.00121825
0.00121773
0.00121788
0.00121795
0.00121747
0.00121756
0.00121758
0.00121746
0.0012171
0.00121742
0.0012177
0.00121695
0.00118663
0.00120959
0.00121658
0.00121826
0.00121852
0.00121851
0.0012184
0.00121817
0.00121796
0.00121786
0.00121762
0.00121719
0.00121688
0.00121669
0.00121642
0.00121596
0.00121569
0.00121566
0.00121535
0.00121498
0.00121434
0.00121442
0.0012146
0.00121448
0.00121436
0.00121444
0.00121461
0.00121402
0.00121451
0.00121506
0.00121528
0.00121533
0.0012158
0.00121628
0.00121639
0.00121671
0.00121648
0.00121713
0.00121777
0.00121736
0.00121785
0.0012182
0.00121768
0.00121809
0.00121839
0.00121776
0.00121808
0.00121858
0.00121807
0.00121816
0.00121835
0.00121826
0.00121822
0.00121779
0.00121797
0.00121833
0.00121801
0.0012179
0.00121809
0.00121813
0.00121797
0.0012176
0.00121772
0.00121791
0.00121723
0.00121754
0.00121791
0.00121721
0.0012175
0.00121775
0.00121735
0.00121719
0.00121765
0.00121789
0.00121753
0.00121751
0.00121749
0.00121749
0.00121704
0.00121729
0.00121769
0.00121755
0.00121752
0.00121701
0.00121733
0.00121758
0.00121692
0.00121726
0.00121756
0.00121686
0.00118663
0.00120959
0.00121658
0.00121826
0.00121852
0.0012185
0.00121844
0.00121834
0.00121824
0.00121813
0.00121801
0.00121788
0.00121759
0.00121729
0.00121714
0.00121683
0.00121636
0.001216
0.00121568
0.0012154
0.00121512
0.00121493
0.00121484
0.00121469
0.00121409
0.00121428
0.00121458
0.00121406
0.00121458
0.00121507
0.00121469
0.00121533
0.00121592
0.00121557
0.00121622
0.00121707
0.0012174
0.0012177
0.00121724
0.00121773
0.00121817
0.00121791
0.00121802
0.00121787
0.00121833
0.00121885
0.00121853
0.00121871
0.00121878
0.0012186
0.00121807
0.00121822
0.00121832
0.0012176
0.00121786
0.00121834
0.00121788
0.00121801
0.00121804
0.00121756
0.00121778
0.00121813
0.0012181
0.00121806
0.00121736
0.00121764
0.00121794
0.00121722
0.0012175
0.00121777
0.0012171
0.00121743
0.0012178
0.00121772
0.0012177
0.00121711
0.00121739
0.00121765
0.00121709
0.00121737
0.00121773
0.00121731
0.00121749
0.00121757
0.00121744
0.0012171
0.0012174
0.00121771
0.00121763
0.00121742
0.00118663
0.00120959
0.00121658
0.00121826
0.00121852
0.0012185
0.00121844
0.00121835
0.00121824
0.00121813
0.00121801
0.00121787
0.00121773
0.00121757
0.00121741
0.00121709
0.00121677
0.0012166
0.00121629
0.00121582
0.00121558
0.00121546
0.00121526
0.00121504
0.00121494
0.0012148
0.00121443
0.00121473
0.00121519
0.00121533
0.00121564
0.00121564
0.00121633
0.00121689
0.00121676
0.00121742
0.00121788
0.00121785
0.00121811
0.0012183
0.00121853
0.00121874
0.0012189
0.00121886
0.00121856
0.00121865
0.0012187
0.00121839
0.00121817
0.0012185
0.00121963
0.00121986
0.00121987
0.00121984
0.00121981
0.00121977
0.00121973
0.00121969
0.00121965
0.00121962
0.00121958
0.00121955
0.00121952
0.00121949
0.00121948
0.0012193
0.00121919
0.00121918
0.00121898
0.00121884
0.00121879
0.00121883
0.00121859
0.00121847
0.00121841
0.00121829
0.00121829
0.00121828
0.00121814
0.00121773
0.00121788
0.00121796
0.00121782
0.00121781
0.00121761
0.00121756
0.00121707
0.00121739
0.0012177
0.00121695
0.00118663
0.00120959
0.00121658
0.00121826
0.00121853
0.00121851
0.00121843
0.00121835
0.00121825
0.00121814
0.00121801
0.00121789
0.00121774
0.00121759
0.00121728
0.00121696
0.0012168
0.00121649
0.00121602
0.00121567
0.00121524
0.00121513
0.00121508
0.00121499
0.00121494
0.00121434
0.0012146
0.00121493
0.00121453
0.0012151
0.00121572
0.0012155
0.00121623
0.00121687
0.00121674
0.00121736
0.00121805
0.0012183
0.00121869
0.00121876
0.00121895
0.00121912
0.00121917
0.00121927
0.0012191
0.00121884
0.00121875
0.00121874
0.00121825
0.00121825
0.00121915
0.00121978
0.00121985
0.00121983
0.0012198
0.00121976
0.00121972
0.00121968
0.00121965
0.00121961
0.00121958
0.00121948
0.00121931
0.00121925
0.00121925
0.00121901
0.00121886
0.00121883
0.00121889
0.00121874
0.00121863
0.00121858
0.0012184
0.00121789
0.00121804
0.00121818
0.00121774
0.00121798
0.00121825
0.00121804
0.00121803
0.00121804
0.00121783
0.0012177
0.00121766
0.0012177
0.00121733
0.00121751
0.0012176
0.00121693
0.00118663
0.00120959
0.00121658
0.00121826
0.00121853
0.00121851
0.00121844
0.00121835
0.00121825
0.00121815
0.00121789
0.00121762
0.00121749
0.00121721
0.00121675
0.00121641
0.00121618
0.00121587
0.00121543
0.0012151
0.00121491
0.00121472
0.00121415
0.00121427
0.00121463
0.00121455
0.00121456
0.00121486
0.00121516
0.00121509
0.00121541
0.00121568
0.00121607
0.00121645
0.00121676
0.00121653
0.00121707
0.00121756
0.00121775
0.00121799
0.001218
0.00121804
0.00121766
0.00121809
0.00121866
0.00121847
0.00121853
0.00121856
0.00121834
0.00121827
0.00121905
0.00121974
0.00121983
0.00121982
0.00121978
0.00121975
0.00121971
0.00121967
0.00121964
0.0012196
0.00121958
0.0012194
0.00121928
0.00121927
0.00121907
0.00121893
0.00121897
0.00121903
0.00121888
0.00121878
0.0012186
0.00121841
0.00121827
0.00121805
0.00121833
0.00121847
0.00121818
0.00121814
0.00121801
0.00121801
0.001218
0.00121764
0.00121782
0.00121792
0.00121737
0.00121767
0.00121782
0.00121766
0.00121762
0.00121699
0.00118662
0.00120964
0.00121625
0.00121707
0.00121676
0.00121671
0.00121642
0.00121641
0.00121675
0.00121686
0.0012166
0.00121578
0.00121589
0.00121618
0.00121586
0.00121565
0.00121506
0.00121474
0.00121517
0.00121564
0.00121509
0.0012152
0.00121516
0.00121475
0.00121486
0.00121489
0.00121453
0.00121484
0.00121527
0.00121526
0.00121559
0.00121566
0.0012163
0.00121686
0.00121671
0.00121731
0.00121801
0.00121828
0.00121854
0.00121867
0.00121884
0.00121887
0.00121889
0.00121892
0.00121895
0.00121878
0.00121811
0.00121814
0.00121843
0.00121806
0.00121805
0.001218
0.00121801
0.00121764
0.00121791
0.00121815
0.00121746
0.00121766
0.00121819
0.00121803
0.00121797
0.00121744
0.00121766
0.00121805
0.00121803
0.001218
0.00121767
0.00121747
0.00121772
0.00121857
0.00121846
0.00121861
0.00121863
0.00121852
0.00121855
0.00121834