/*--------------------------------*- C++ -*----------------------------------*\
  =========                 |
  \\      /  F ield         | OpenFOAM: The Open Source CFD Toolbox
   \\    /   O peration     | Website:  https://openfoam.org
    \\  /    A nd           | Version:  11
     \\/     M anipulation  |
\*---------------------------------------------------------------------------*/
FoamFile
{
    format      ascii;
    class       volScalarField;
    location    "0.02";
    object      p;
}
// * * * * * * * * * * * * * * * * * * * * * * * * * * * * * * * * * * * * * //

dimensions      [0 2 -2 0 0 0 0];

internalField   nonuniform List<scalar> 
287084
(
1.93694
1.66675
1.59125
1.52861
1.46367
1.4115
1.36371
1.31949
1.27783
1.23599
1.19295
1.14932
1.10543
1.06083
1.01553
0.969358
0.922576
0.875195
0.827293
0.779315
0.731153
0.683252
0.635915
0.588961
0.543246
0.498339
0.454403
0.416362
0.383966
0.35177
0.319342
0.289318
0.263239
0.240264
0.220536
0.203624
0.189469
0.177687
0.168171
0.160772
0.15509
0.15098
0.148233
0.146625
0.145927
0.145978
0.146599
0.147573
0.148736
0.149838
0.150302
0.151007
0.153392
0.155429
0.154061
0.1539
0.157529
0.158173
0.158434
0.158105
0.15892
0.159845
0.156243
0.155427
0.154988
0.14878
0.146796
0.145963
0.139715
0.133685
0.12934
0.124864
0.118567
0.113653
0.109886
0.106368
0.100864
0.0906017
0.0847505
0.0803738
0.0710198
0.0650589
0.0607482
0.0523302
0.0431235
0.0351158
0.0271096
0.0172933
0.00696725
0.00119827
1.80471
1.62086
1.56579
1.51345
1.45536
1.40664
1.36109
1.31763
1.27558
1.2335
1.19079
1.14762
1.10374
1.05919
1.01368
0.967429
0.920507
0.872858
0.824794
0.776436
0.728079
0.679945
0.632241
0.585384
0.539632
0.494973
0.452064
0.41411
0.37859
0.344493
0.312683
0.283838
0.258171
0.235542
0.216003
0.199305
0.185324
0.173917
0.16458
0.157386
0.151962
0.148096
0.145574
0.144193
0.143712
0.143976
0.144795
0.145992
0.14741
0.148895
0.150325
0.151859
0.153544
0.154201
0.154003
0.154909
0.157192
0.15853
0.158047
0.158076
0.159068
0.159111
0.157501
0.154447
0.152843
0.15045
0.146224
0.143428
0.139944
0.134835
0.12997
0.125607
0.120742
0.115197
0.110304
0.105004
0.098788
0.0918621
0.0850334
0.0787318
0.0717726
0.0648909
0.0580179
0.0503061
0.0422763
0.0344109
0.0263003
0.0173706
0.00833587
0.0021672
1.77577
1.60977
1.55713
1.50472
1.44872
1.40118
1.35674
1.31409
1.27218
1.23013
1.1877
1.14453
1.10063
1.05582
1.01013
0.963574
0.91626
0.868218
0.81964
0.770851
0.721878
0.673258
0.625104
0.577668
0.531652
0.487057
0.444482
0.404692
0.36828
0.334285
0.302661
0.274052
0.248561
0.226278
0.206983
0.190762
0.177184
0.166071
0.157323
0.150587
0.145664
0.142288
0.140246
0.139305
0.139269
0.139945
0.141162
0.142747
0.14455
0.146446
0.148313
0.15008
0.15171
0.15314
0.154447
0.155804
0.157071
0.157893
0.157926
0.158058
0.158164
0.157828
0.15641
0.154347
0.152213
0.149396
0.146166
0.142928
0.139076
0.134595
0.130049
0.125397
0.120307
0.114925
0.109668
0.104151
0.0981565
0.0915709
0.0849548
0.0784613
0.0715692
0.0645339
0.0574115
0.0498943
0.0421463
0.034209
0.0259955
0.0172333
0.00831682
0.00199631
1.73294
1.58214
1.53497
1.48772
1.43689
1.39245
1.34996
1.30839
1.26704
1.22546
1.18319
1.1401
1.09598
1.05098
1.00487
0.957841
0.910063
0.86132
0.812076
0.762477
0.712643
0.663306
0.61435
0.566281
0.51965
0.474459
0.431429
0.391256
0.353971
0.319365
0.287846
0.259394
0.234253
0.212318
0.193572
0.177871
0.164941
0.154662
0.146564
0.140533
0.136305
0.133654
0.132303
0.132047
0.132664
0.13396
0.135756
0.137901
0.140241
0.142657
0.145044
0.147338
0.149487
0.151439
0.153066
0.15444
0.155706
0.156672
0.15712
0.157265
0.157139
0.156546
0.155316
0.153523
0.151406
0.148812
0.145741
0.142386
0.138601
0.134347
0.129874
0.125166
0.120114
0.114812
0.109366
0.103662
0.097622
0.0912401
0.0847066
0.0780773
0.0712214
0.0641992
0.0570199
0.0496077
0.0419773
0.0341048
0.0259926
0.0173301
0.00858389
0.00226976
1.70925
1.5651
1.51974
1.47425
1.42601
1.38358
1.3424
1.30179
1.26107
1.21972
1.17758
1.13435
1.09004
1.04466
0.998005
0.950363
0.901688
0.852124
0.802024
0.751364
0.700662
0.650089
0.600073
0.551055
0.503401
0.457559
0.413908
0.372996
0.335034
0.300079
0.268503
0.240151
0.215361
0.193982
0.175873
0.160904
0.148804
0.13931
0.132173
0.127137
0.123883
0.122189
0.121794
0.122444
0.123929
0.126069
0.128636
0.131501
0.134519
0.137579
0.140571
0.143433
0.146074
0.148464
0.150541
0.152334
0.153834
0.154948
0.155618
0.155905
0.155812
0.155248
0.154112
0.152487
0.150448
0.147957
0.145024
0.141721
0.138014
0.133913
0.129507
0.124816
0.119816
0.114534
0.109035
0.103285
0.0972692
0.0909474
0.0844569
0.0777941
0.0709427
0.0639139
0.056725
0.0493499
0.041814
0.0340436
0.0259384
0.0173519
0.00860646
0.00221855
1.68912
1.54821
1.50442
1.46081
1.41477
1.37396
1.33414
1.29431
1.25408
1.21303
1.17091
1.12751
1.08284
1.03687
0.989642
0.941109
0.891576
0.840929
0.789634
0.737698
0.68563
0.633743
0.582493
0.532195
0.483331
0.436423
0.39187
0.350041
0.311494
0.276128
0.244484
0.216323
0.191995
0.171204
0.153815
0.139827
0.128715
0.120341
0.114389
0.110533
0.108515
0.108046
0.108812
0.1106
0.113173
0.116336
0.119866
0.123624
0.127478
0.131288
0.134995
0.138495
0.141741
0.144664
0.147235
0.149443
0.15127
0.152665
0.1536
0.154091
0.154122
0.153678
0.152707
0.15125
0.149337
0.146973
0.144168
0.140955
0.137342
0.133343
0.129017
0.124377
0.119419
0.114179
0.108686
0.102928
0.0969145
0.090663
0.0841918
0.0775372
0.0707076
0.0636925
0.056509
0.0491552
0.0416459
0.0339608
0.0259622
0.0173935
0.00862127
0.00216829
1.67303
1.53351
1.49092
1.44854
1.40401
1.36446
1.32547
1.2864
1.24649
1.2055
1.16336
1.11962
1.07453
1.02789
0.979786
0.930279
0.879583
0.827603
0.774967
0.721465
0.668009
0.614395
0.561433
0.509649
0.459348
0.411183
0.365424
0.322856
0.283496
0.247828
0.216028
0.188103
0.16427
0.144128
0.127634
0.114618
0.104699
0.0977078
0.0931517
0.0907823
0.0902429
0.0912294
0.0934442
0.096621
0.10051
0.104866
0.109536
0.114357
0.119187
0.123898
0.128405
0.132655
0.136565
0.140103
0.143227
0.145911
0.148131
0.149876
0.151124
0.151887
0.152138
0.151884
0.151105
0.149825
0.148069
0.145839
0.143174
0.14007
0.136565
0.132679
0.128426
0.123853
0.118957
0.113768
0.1083
0.102566
0.096589
0.0903553
0.0839252
0.0772842
0.0704602
0.0634531
0.0562983
0.0490014
0.0415104
0.0338131
0.0258657
0.0173684
0.00866925
0.00227558
1.65926
1.52045
1.47874
1.43727
1.3937
1.35505
1.31672
1.27802
1.23829
1.19735
1.15487
1.11082
1.06509
1.01767
0.968652
0.917964
0.865959
0.812479
0.75816
0.702928
0.647492
0.592153
0.537367
0.483775
0.431736
0.382034
0.335053
0.291289
0.251204
0.215142
0.183209
0.155539
0.132164
0.112855
0.0974649
0.0857453
0.0773125
0.0718446
0.068932
0.0682469
0.0694083
0.0720798
0.075924
0.0806738
0.08605
0.0918261
0.0978123
0.103826
0.109756
0.115483
0.120918
0.125985
0.13065
0.134866
0.138595
0.141812
0.144515
0.146672
0.148286
0.149363
0.149882
0.149858
0.149307
0.148227
0.146648
0.144594
0.142059
0.139091
0.135703
0.131917
0.127767
0.123264
0.118436
0.113302
0.107877
0.102186
0.0962334
0.0900527
0.0836548
0.0770456
0.070263
0.063316
0.0562094
0.0489529
0.041546
0.0339016
0.0259458
0.0174499
0.0086456
0.00216118
1.64731
1.50885
1.46774
1.42678
1.3838
1.34564
1.30794
1.26949
1.22969
1.18863
1.14593
1.10128
1.0549
1.0065
0.956239
0.904309
0.850671
0.795563
0.73931
0.682128
0.624653
0.567169
0.510191
0.45457
0.400609
0.349139
0.300717
0.255811
0.214945
0.178342
0.146411
0.118991
0.0962552
0.0778334
0.0636689
0.0534438
0.0466557
0.0429644
0.0419399
0.0431617
0.0462391
0.0507837
0.0564619
0.0629658
0.0700033
0.0773612
0.0848015
0.0921859
0.099333
0.10617
0.112627
0.118626
0.124107
0.129054
0.133455
0.137261
0.140477
0.143093
0.145113
0.146545
0.147384
0.147644
0.147333
0.146482
0.145107
0.143219
0.140852
0.138023
0.134764
0.131087
0.127036
0.122623
0.117871
0.112799
0.107429
0.101783
0.0958729
0.0897335
0.0833526
0.0767745
0.0699618
0.062993
0.0559802
0.0486953
0.0412261
0.0337254
0.0258338
0.0173898
0.00868413
0.00215152
1.6366
1.49831
1.45762
1.41698
1.37425
1.33644
1.29901
1.26066
1.22086
1.1795
1.13627
1.09116
1.04378
0.994371
0.942949
0.889372
0.834092
0.777041
0.718668
0.659354
0.599451
0.539632
0.480335
0.422391
0.366344
0.312948
0.262931
0.216714
0.174905
0.137918
0.105802
0.0787428
0.0567001
0.0394393
0.0267861
0.018139
0.0131992
0.0114967
0.0125453
0.0158595
0.0210459
0.0276547
0.0353286
0.0437432
0.0526089
0.0616587
0.0706991
0.0795567
0.0880562
0.0961196
0.103664
0.110654
0.117035
0.122775
0.127879
0.132319
0.136106
0.139228
0.141691
0.143507
0.144683
0.145254
0.145221
0.14461
0.143445
0.141757
0.139561
0.136884
0.133753
0.130207
0.126256
0.121932
0.117265
0.112258
0.106944
0.101368
0.0954992
0.0894022
0.0830792
0.0765315
0.0698024
0.0629156
0.055856
0.0486291
0.041286
0.0336878
0.0257119
0.0172577
0.00857578
0.00217691
1.62691
1.48878
1.44823
1.40776
1.3651
1.32741
1.29023
1.2519
1.21191
1.17021
1.1265
1.08053
1.03218
0.981598
0.928611
0.873465
0.816267
0.757094
0.696497
0.634627
0.572335
0.509865
0.447995
0.387623
0.329113
0.273754
0.221871
0.174384
0.13164
0.0941879
0.0620442
0.035433
0.0142919
-0.00185699
-0.0130096
-0.0197641
-0.0226703
-0.0221846
-0.0188858
-0.0132625
-0.00581931
0.00301852
0.0128496
0.0233085
0.0341064
0.0449858
0.055715
0.0661269
0.0760738
0.0854519
0.0941744
0.102211
0.109542
0.116128
0.121978
0.127088
0.131468
0.135123
0.138053
0.140297
0.141844
0.14274
0.142996
0.142635
0.141709
0.140212
0.138202
0.135691
0.132708
0.129274
0.12544
0.121211
0.116621
0.111699
0.10645
0.100925
0.0951173
0.0890616
0.0827736
0.0762683
0.0695663
0.0626746
0.0556328
0.0484796
0.041075
0.0333975
0.0255382
0.0171865
0.00861004
0.00226262
1.61815
1.47999
1.43949
1.39905
1.35669
1.31903
1.28163
1.24319
1.20298
1.16081
1.11641
1.06948
1.02018
0.968183
0.913702
0.856768
0.797439
0.736031
0.672958
0.60856
0.543411
0.478189
0.413534
0.350506
0.289614
0.231969
0.178333
0.129336
0.0857288
0.0477739
0.0155499
-0.0105442
-0.030837
-0.0454438
-0.0548347
-0.0596699
-0.0603625
-0.0575688
-0.0518579
-0.0438115
-0.0339452
-0.0227496
-0.0106688
0.00196102
0.0147957
0.0275772
0.0400817
0.0521302
0.0635843
0.0743378
0.0843067
0.0934314
0.101751
0.109217
0.115854
0.121654
0.126657
0.13086
0.134289
0.136951
0.138887
0.140124
0.140682
0.140598
0.139904
0.138625
0.136803
0.134447
0.131613
0.12832
0.124587
0.12047
0.115972
0.111121
0.105944
0.100476
0.0947258
0.0887179
0.0824703
0.0759983
0.0693248
0.0624614
0.055381
0.0481939
0.0410036
0.0334342
0.0255113
0.017162
0.0085054
0.00218042
1.61019
1.47194
1.43143
1.39102
1.34868
1.31098
1.2735
1.23473
1.19423
1.15144
1.10633
1.05845
1.00776
0.954497
0.898223
0.839302
0.777866
0.714053
0.648361
0.581228
0.513267
0.445054
0.377599
0.311626
0.248168
0.188214
0.132599
0.0823329
0.0377584
-0.000680447
-0.0328238
-0.0583557
-0.0775144
-0.0907741
-0.0983885
-0.101042
-0.0994172
-0.0941466
-0.0858995
-0.0752901
-0.0629075
-0.0492667
-0.0348125
-0.0199509
-0.00501912
0.00973513
0.0240563
0.0377733
0.0507742
0.0629286
0.0741752
0.0844618
0.0937797
0.102154
0.109593
0.116104
0.121731
0.126509
0.130438
0.13356
0.135886
0.137469
0.138336
0.138525
0.138073
0.137005
0.135371
0.133191
0.130507
0.127343
0.123731
0.119714
0.115299
0.110539
0.105436
0.100023
0.0943278
0.0883667
0.0821728
0.0757437
0.0691095
0.0622969
0.0553099
0.0481734
0.0408723
0.0332576
0.025433
0.0171476
0.00846399
0.0021377
1.6029
1.46468
1.42413
1.38372
1.34131
1.30351
1.26578
1.22674
1.18554
1.14213
1.09612
1.0472
0.995413
0.940511
0.882517
0.821644
0.7579
0.691524
0.623262
0.553092
0.482131
0.410968
0.340357
0.271658
0.205487
0.143168
0.0857582
0.0340753
-0.0114939
-0.0504827
-0.0824885
-0.107409
-0.125473
-0.13701
-0.14271
-0.143177
-0.139121
-0.131297
-0.120437
-0.107204
-0.0922305
-0.0760795
-0.0592253
-0.0420873
-0.0250091
-0.00826353
0.00789183
0.0233255
0.0378741
0.0514393
0.0639762
0.075422
0.0857791
0.0950545
0.103303
0.110544
0.116804
0.122138
0.126564
0.130131
0.132859
0.134806
0.135982
0.136445
0.136238
0.135391
0.133946
0.131937
0.1294
0.126369
0.122878
0.118963
0.114644
0.109949
0.104921
0.0995762
0.093935
0.0880287
0.0818637
0.0754754
0.0688835
0.0620856
0.0551357
0.0479642
0.0406652
0.0331631
0.0253503
0.0170894
0.00849579
0.00216243
1.59633
1.45808
1.4175
1.37708
1.3346
1.29663
1.25852
1.21893
1.17732
1.13316
1.08623
1.03621
0.983041
0.926534
0.866781
0.803735
0.737651
0.668866
0.597663
0.524734
0.450699
0.37633
0.302802
0.231049
0.16223
0.0976266
0.0383797
-0.0147539
-0.0612624
-0.100649
-0.132444
-0.156652
-0.173507
-0.183512
-0.187165
-0.185343
-0.178825
-0.168406
-0.154885
-0.139006
-0.121418
-0.102748
-0.0834828
-0.0640624
-0.0448495
-0.0261201
-0.00812164
0.00898979
0.0250692
0.0400532
0.0538614
0.0664595
0.0778529
0.0880386
0.0970876
0.10504
0.11193
0.117822
0.122759
0.126765
0.129886
0.132169
0.13366
0.134401
0.13443
0.133793
0.132539
0.130694
0.128309
0.12541
0.122031
0.118216
0.113992
0.109383
0.104423
0.0991348
0.0935467
0.0876841
0.0815739
0.0752174
0.0686623
0.0619112
0.0549652
0.0478495
0.0405757
0.0330591
0.0252848
0.0170559
0.00842963
0.00208086
1.59044
1.45218
1.41156
1.37097
1.32833
1.29008
1.25183
1.21177
1.1694
1.12447
1.0766
1.02545
0.970928
0.912847
0.851226
0.786139
0.717761
0.646296
0.572386
0.49643
0.419315
0.342026
0.265329
0.190751
0.119234
0.05245
-0.00858772
-0.0631015
-0.1106
-0.150301
-0.181894
-0.205401
-0.220971
-0.229271
-0.230924
-0.226829
-0.217818
-0.204809
-0.18865
-0.170137
-0.149979
-0.128817
-0.107173
-0.0855186
-0.0642065
-0.0435303
-0.0237334
-0.00497375
0.0126232
0.0289599
0.0440065
0.0577432
0.0701408
0.0812267
0.0910511
0.0996953
0.107199
0.11363
0.119039
0.123484
0.126993
0.129615
0.131414
0.132411
0.132678
0.132262
0.13118
0.129504
0.127256
0.124478
0.121217
0.117503
0.113354
0.108821
0.103931
0.0987081
0.0931773
0.0873629
0.0812883
0.074975
0.0684379
0.0616968
0.0547782
0.0476778
0.0404501
0.0329631
0.0252848
0.0171216
0.0084404
0.00209315
1.58517
1.44683
1.40613
1.36557
1.32278
1.28424
1.24547
1.20493
1.16201
1.11631
1.06745
1.01512
0.959297
0.899583
0.836144
0.768945
0.69826
0.624317
0.547652
0.468912
0.38874
0.308341
0.228809
0.151319
0.0773288
0.00851534
-0.054295
-0.110196
-0.158549
-0.198517
-0.229854
-0.252499
-0.26678
-0.273465
-0.27308
-0.266754
-0.25534
-0.239815
-0.221101
-0.200042
-0.177389
-0.153816
-0.129896
-0.106067
-0.0827428
-0.0601959
-0.0386686
-0.0183322
0.000697086
0.0183529
0.0345874
0.0493838
0.0627524
0.0747072
0.0852785
0.0945966
0.102683
0.109638
0.115513
0.120367
0.124237
0.127186
0.129266
0.130525
0.131013
0.130783
0.129882
0.128361
0.126252
0.123598
0.120435
0.116815
0.112762
0.1083
0.103473
0.0983074
0.0928198
0.087052
0.0810168
0.0747447
0.0682592
0.0615745
0.0547313
0.0476724
0.0403802
0.0329117
0.025231
0.0171114
0.00846424
0.00201407
1.58048
1.44214
1.40145
1.36071
1.31778
1.27886
1.23976
1.19873
1.15512
1.10859
1.05883
1.00546
0.948218
0.887041
0.821844
0.752718
0.679695
0.603407
0.524054
0.442517
0.359566
0.276253
0.193895
0.113724
0.0373895
-0.0333224
-0.0978343
-0.154988
-0.204077
-0.244257
-0.275213
-0.29719
-0.310191
-0.315253
-0.312974
-0.304465
-0.290751
-0.272812
-0.251653
-0.228181
-0.203167
-0.177315
-0.151228
-0.125376
-0.100145
-0.0758405
-0.0526859
-0.0308592
-0.0104634
0.00840771
0.0257634
0.0415662
0.0558361
0.0685913
0.0798833
0.0898114
0.0984654
0.105904
0.112203
0.117446
0.121659
0.124919
0.127265
0.128756
0.129461
0.129421
0.128682
0.1273
0.125315
0.122776
0.119717
0.116176
0.112194
0.107807
0.103041
0.0979241
0.092492
0.0867591
0.0807576
0.0745111
0.0680147
0.06129
0.0544181
0.0474896
0.0403073
0.0327711
0.0250681
0.0170331
0.00846401
0.0020261
1.57639
1.43805
1.39719
1.35632
1.31326
1.27413
1.23464
1.19299
1.14885
1.10169
1.05095
0.996525
0.938073
0.875377
0.808496
0.737451
0.662434
0.58384
0.502045
0.41797
0.332238
0.246307
0.161349
0.078594
0.000432389
-0.0722601
-0.138199
-0.196547
-0.246281
-0.286604
-0.317277
-0.338338
-0.350228
-0.35369
-0.34963
-0.339131
-0.323285
-0.30313
-0.279727
-0.254019
-0.226828
-0.19889
-0.170806
-0.143075
-0.11609
-0.0901689
-0.065525
-0.0423356
-0.0207093
-0.000692944
0.0176692
0.0343899
0.0494869
0.0629841
0.0749433
0.0854581
0.094609
0.102496
0.109192
0.114779
0.119315
0.122837
0.125439
0.127149
0.128037
0.128165
0.127579
0.126328
0.124466
0.122019
0.119055
0.115597
0.111692
0.107363
0.10265
0.0975823
0.0921921
0.086503
0.0805357
0.0743273
0.0678972
0.0612553
0.0544466
0.0474224
0.0401673
0.0327145
0.024999
0.0168663
0.00836925
0.00208137
1.57284
1.43447
1.39348
1.35259
1.30933
1.26992
1.22993
1.18803
1.14328
1.0954
1.04392
0.988504
0.928945
0.864916
0.796542
0.723799
0.646817
0.566131
0.482156
0.395685
0.307639
0.219206
0.131891
0.0470774
-0.0330544
-0.107193
-0.174744
-0.234009
-0.284295
-0.324663
-0.354942
-0.375293
-0.386118
-0.388223
-0.382495
-0.370186
-0.352399
-0.330233
-0.304819
-0.277102
-0.24796
-0.218144
-0.188285
-0.158873
-0.130328
-0.102958
-0.0769818
-0.052566
-0.0298236
-0.00880427
0.0104679
0.0280001
0.0438307
0.0579923
0.0705521
0.0815633
0.0911803
0.0994641
0.106513
0.112411
0.11722
0.120997
0.123812
0.125714
0.126784
0.12706
0.126602
0.125471
0.123701
0.12136
0.118473
0.115082
0.111234
0.106961
0.102295
0.0972726
0.091926
0.0862541
0.0803253
0.0741395
0.0677077
0.0610652
0.0542195
0.0472021
0.0400378
0.0325735
0.0248755
0.0168347
0.00838612
0.00213316
1.56986
1.43145
1.39041
1.34932
1.30602
1.26633
1.22611
1.18372
1.1385
1.0901
1.03782
0.981598
0.920955
0.85575
0.786073
0.711762
0.633169
0.550759
0.46476
0.376226
0.286107
0.195578
0.106196
0.0195833
-0.0621816
-0.137798
-0.206352
-0.266518
-0.317271
-0.357635
-0.387621
-0.40723
-0.417052
-0.41798
-0.410842
-0.396959
-0.377499
-0.353611
-0.326438
-0.296993
-0.266174
-0.234741
-0.203329
-0.172483
-0.142582
-0.113958
-0.0868409
-0.0613785
-0.0376816
-0.0157971
0.00425816
0.0224988
0.03896
0.0536872
0.0667521
0.0782243
0.0882211
0.0968559
0.104208
0.110379
0.115428
0.119407
0.122425
0.124486
0.125696
0.126113
0.125764
0.124736
0.123059
0.120786
0.11797
0.114642
0.110851
0.106624
0.102004
0.0970101
0.0916923
0.0860669
0.0801504
0.0739859
0.0675928
0.0609763
0.0541774
0.0471905
0.0399876
0.0325468
0.0248625
0.0167867
0.00829882
0.00207131
1.56745
1.42899
1.38789
1.3467
1.30323
1.26342
1.22288
1.18017
1.13461
1.08556
1.03283
0.975862
0.914403
0.848287
0.777417
0.701933
0.621912
0.537812
0.450314
0.360037
0.268198
0.175973
0.0849077
-0.00328569
-0.0862406
-0.162976
-0.23259
-0.293523
-0.344581
-0.384853
-0.414477
-0.433571
-0.442637
-0.442489
-0.434171
-0.418969
-0.39813
-0.372819
-0.344215
-0.313354
-0.281131
-0.248372
-0.21571
-0.183652
-0.152653
-0.123011
-0.0949407
-0.068623
-0.0441316
-0.0215328
-0.000827949
0.0179796
0.0349701
0.0501627
0.0636401
0.0754847
0.0858057
0.0947272
0.102323
0.108714
0.113953
0.118119
0.121275
0.123484
0.124816
0.125329
0.125077
0.124129
0.12252
0.120322
0.117558
0.114281
0.110533
0.10634
0.101757
0.0967978
0.0915057
0.0858873
0.0800044
0.0738589
0.067467
0.0608666
0.0540502
0.0470476
0.0398674
0.0324401
0.0248375
0.0168073
0.0082941
0.00207957
1.5656
1.4271
1.38596
1.34469
1.30101
1.2611
1.22058
1.17754
1.13159
1.08222
1.02893
0.971457
0.909242
0.842404
0.770718
0.694128
0.613127
0.527995
0.43911
0.347651
0.25432
0.160822
0.0684645
-0.0209187
-0.104597
-0.182362
-0.252813
-0.314321
-0.365622
-0.405791
-0.435177
-0.453769
-0.462118
-0.461266
-0.452042
-0.435856
-0.413947
-0.387538
-0.357822
-0.325872
-0.292597
-0.258819
-0.22517
-0.192221
-0.160365
-0.129928
-0.101137
-0.0741529
-0.0490599
-0.0259221
-0.0047279
0.0145341
0.0319065
0.0474654
0.0612578
0.0733936
0.0839524
0.0930974
0.100884
0.107444
0.112837
0.117133
0.120411
0.122715
0.124141
0.124732
0.124561
0.123674
0.122125
0.119967
0.117248
0.114015
0.11029
0.106139
0.10157
0.0966281
0.0913551
0.0857732
0.0798953
0.0737669
0.0674002
0.0608117
0.0540366
0.0470603
0.0399156
0.0325175
0.0248804
0.0167957
0.00824886
0.00202192
1.56437
1.42582
1.38466
1.34335
1.29972
1.25965
1.21868
1.17557
1.12946
1.07982
1.02629
0.968375
0.905907
0.838452
0.766181
0.689009
0.607193
0.521146
0.431466
0.339033
0.24484
0.150526
0.0571596
-0.0327843
-0.117183
-0.195379
-0.266523
-0.328458
-0.379843
-0.419933
-0.449066
-0.467467
-0.475433
-0.473928
-0.46411
-0.447262
-0.424632
-0.397483
-0.367038
-0.334344
-0.300345
-0.265871
-0.231573
-0.198003
-0.16557
-0.134613
-0.105339
-0.0779052
-0.0524099
-0.028897
-0.0073683
0.0121883
0.02984
0.0456445
0.0596511
0.0719835
0.082715
0.0919909
0.0999208
0.106577
0.112078
0.116464
0.119813
0.122199
0.123682
0.124332
0.124201
0.123352
0.121849
0.119726
0.117037
0.113829
0.110135
0.105988
0.101446
0.0965303
0.0912559
0.0856833
0.0798113
0.0736934
0.0673165
0.0607456
0.0539396
0.046969
0.0398151
0.0323788
0.0248118
0.0167759
0.00826802
0.00199233
1.56373
1.42521
1.38405
1.34273
1.29909
1.2589
1.21785
1.17459
1.12839
1.07867
1.02492
0.966879
0.904006
0.836404
0.763845
0.686297
0.604182
0.517787
0.42768
0.334773
0.240148
0.145288
0.051508
-0.0388766
-0.124155
-0.202095
-0.273002
-0.335317
-0.387067
-0.427186
-0.4562
-0.474355
-0.482095
-0.480323
-0.47022
-0.453033
-0.430027
-0.402503
-0.37168
-0.338608
-0.30426
-0.269436
-0.234801
-0.200921
-0.168197
-0.13697
-0.107437
-0.0797785
-0.0540854
-0.0303821
-0.00869332
0.0110198
0.028798
0.0447213
0.0588435
0.0712708
0.082083
0.0914423
0.0994317
0.10615
0.111697
0.116131
0.119524
0.121938
0.123456
0.124132
0.124033
0.123204
0.121719
0.119606
0.116934
0.113738
0.110051
0.105926
0.101376
0.0964662
0.0912112
0.0856382
0.0797839
0.0736675
0.0673069
0.0607325
0.0539551
0.0469966
0.03987
0.0324721
0.0248379
0.0167568
0.00823738
0.00202138
1.56369
1.42516
1.38401
1.3427
1.29906
1.25885
1.21785
1.17451
1.12835
1.07857
1.02487
0.966818
0.903977
0.836431
0.76382
0.686302
0.604148
0.517666
0.427585
0.334658
0.24002
0.145178
0.0514237
-0.0389408
-0.124138
-0.202067
-0.273058
-0.3354
-0.387176
-0.427193
-0.456215
-0.474408
-0.482156
-0.480369
-0.470259
-0.453067
-0.430062
-0.402529
-0.371708
-0.338619
-0.304262
-0.26943
-0.234797
-0.200915
-0.168179
-0.136947
-0.107424
-0.0797607
-0.0540563
-0.0303509
-0.00865924
0.0110553
0.0288378
0.0447617
0.0588864
0.0713106
0.0821274
0.0914817
0.0994738
0.106193
0.111742
0.116169
0.11956
0.121971
0.123484
0.124163
0.124052
0.12323
0.121736
0.119631
0.11695
0.113751
0.11006
0.105926
0.101386
0.0964718
0.0912146
0.0856334
0.0797747
0.0736485
0.067277
0.0606963
0.0538943
0.0469115
0.0397684
0.0323424
0.0247469
0.0167479
0.00826425
0.0020531
1.56423
1.4257
1.38458
1.34329
1.29966
1.25957
1.21858
1.17544
1.12933
1.07969
1.02612
0.96824
0.905777
0.838293
0.766129
0.688881
0.607122
0.521145
0.431407
0.338958
0.24481
0.150422
0.0570468
-0.0328878
-0.117348
-0.195583
-0.266522
-0.328464
-0.379858
-0.420039
-0.449225
-0.467539
-0.47551
-0.473983
-0.464159
-0.447313
-0.424671
-0.397517
-0.367057
-0.334349
-0.30036
-0.265874
-0.231569
-0.197987
-0.165552
-0.134578
-0.105293
-0.077854
-0.0523521
-0.028838
-0.00730609
0.0122549
0.0299006
0.045701
0.0597078
0.07204
0.0827716
0.0920519
0.099977
0.106634
0.112133
0.11652
0.119863
0.122248
0.12373
0.124372
0.124247
0.123395
0.12189
0.119758
0.11706
0.11385
0.110143
0.106006
0.101448
0.0965252
0.0912609
0.085675
0.0798127
0.0736812
0.0673176
0.0607373
0.0539575
0.0469858
0.0398358
0.0324524
0.0247967
0.0166883
0.00823606
0.00207204
1.56535
1.42685
1.38574
1.34448
1.30082
1.26089
1.22024
1.17731
1.13131
1.08196
1.02872
0.971184
0.909039
0.84225
0.770513
0.694016
0.613005
0.527736
0.438976
0.347443
0.254221
0.160731
0.0682981
-0.0209863
-0.104845
-0.182558
-0.252868
-0.314263
-0.365625
-0.405893
-0.43523
-0.453895
-0.462218
-0.461329
-0.452116
-0.435926
-0.414007
-0.387581
-0.357869
-0.325887
-0.292604
-0.258811
-0.225154
-0.192196
-0.160321
-0.12988
-0.101091
-0.0740963
-0.0490074
-0.025846
-0.00465224
0.0146029
0.0319869
0.0475422
0.0613384
0.0734714
0.0840334
0.0931738
0.100967
0.107518
0.112914
0.117203
0.120472
0.122776
0.124193
0.124786
0.12461
0.123715
0.122164
0.120007
0.117281
0.114035
0.110314
0.106147
0.10158
0.0966381
0.091359
0.0857647
0.0798896
0.0737454
0.0673661
0.0607769
0.0539708
0.0469683
0.0398092
0.0323768
0.0247909
0.016757
0.00822658
0.00200926
1.56705
1.42859
1.38751
1.34633
1.30282
1.26306
1.22253
1.17982
1.13429
1.0852
1.03246
0.975498
0.914091
0.847937
0.777167
0.701643
0.621675
0.537694
0.450074
0.359845
0.267997
0.175817
0.0847034
-0.00346858
-0.0864622
-0.163264
-0.232733
-0.293544
-0.344564
-0.384997
-0.41464
-0.433744
-0.442765
-0.442563
-0.434272
-0.419068
-0.398202
-0.372879
-0.344254
-0.31337
-0.281146
-0.248368
-0.215686
-0.183616
-0.152603
-0.122945
-0.0948669
-0.0685404
-0.0440391
-0.0214435
-0.000726699
0.0180961
0.0350723
0.0502691
0.063753
0.0755958
0.085917
0.0948354
0.102431
0.108812
0.114059
0.118218
0.121363
0.123573
0.124897
0.125402
0.125147
0.124194
0.122589
0.12038
0.117607
0.114321
0.110565
0.106367
0.101773
0.0968065
0.0915009
0.0858838
0.0799908
0.073832
0.0674473
0.0608389
0.0540456
0.0470544
0.0399057
0.0325224
0.0248811
0.0168184
0.0082552
0.00199105
1.56933
1.43092
1.38988
1.34883
1.30545
1.2658
1.22557
1.18325
1.13803
1.08957
1.03744
0.981119
0.920526
0.855451
0.785757
0.711477
0.632909
0.550375
0.464475
0.375983
0.285867
0.195353
0.105971
0.0193509
-0.0623707
-0.137963
-0.206571
-0.26667
-0.317349
-0.357839
-0.387759
-0.407393
-0.4172
-0.418117
-0.410996
-0.397071
-0.377582
-0.353676
-0.32649
-0.297021
-0.266177
-0.234732
-0.203295
-0.172431
-0.142515
-0.113876
-0.0867525
-0.0612759
-0.0375638
-0.0156745
0.00439028
0.0226301
0.0390961
0.0538324
0.0668973
0.0783672
0.0883652
0.0969988
0.104352
0.110511
0.115553
0.119548
0.122533
0.124602
0.1258
0.126199
0.125857
0.124821
0.123134
0.120859
0.118032
0.114693
0.110892
0.106651
0.102019
0.0970167
0.0916836
0.0860488
0.0801307
0.0739576
0.0675459
0.0609296
0.0540922
0.0470957
0.0398922
0.0324468
0.0248379
0.0167703
0.00823376
0.00198886
1.57216
1.43379
1.39284
1.35189
1.30861
1.26929
1.22934
1.18742
1.14275
1.09479
1.04336
0.987971
0.928406
0.864485
0.796071
0.723376
0.646476
0.565806
0.481854
0.395365
0.307326
0.218996
0.131659
0.0468285
-0.0332714
-0.10754
-0.174852
-0.234258
-0.284445
-0.324845
-0.355172
-0.375442
-0.38632
-0.388309
-0.382631
-0.370293
-0.352462
-0.3303
-0.304853
-0.277121
-0.247952
-0.218121
-0.188236
-0.158798
-0.130235
-0.102849
-0.0768592
-0.0524397
-0.0296803
-0.00866083
0.0106175
0.0281687
0.0439944
0.0581606
0.0707306
0.0817397
0.0913561
0.0996395
0.106672
0.112577
0.117374
0.121146
0.123951
0.125851
0.126908
0.127178
0.126711
0.125569
0.123801
0.121442
0.118542
0.115141
0.111286
0.107002
0.102325
0.0972902
0.0919155
0.0862531
0.0802995
0.0741054
0.0676664
0.0610231
0.0541747
0.0471492
0.0399494
0.0325218
0.0248741
0.0167497
0.00826584
0.00208011
1.57558
1.43723
1.39635
1.35558
1.31257
1.27341
1.23381
1.19224
1.14812
1.10087
1.05037
0.995871
0.937457
0.874872
0.808022
0.736985
0.662016
0.583368
0.501714
0.417558
0.33202
0.245997
0.161013
0.0784459
6.4758e-05
-0.0724466
-0.138452
-0.196786
-0.246441
-0.286817
-0.317459
-0.338506
-0.350407
-0.353878
-0.349807
-0.33928
-0.32337
-0.303192
-0.279763
-0.25403
-0.226815
-0.198853
-0.170738
-0.142991
-0.115982
-0.090039
-0.0653814
-0.0421734
-0.0205224
-0.00050433
0.0178676
0.0345845
0.0496873
0.0631866
0.0751514
0.0856574
0.0948155
0.1027
0.109394
0.114975
0.119498
0.123025
0.125602
0.127307
0.12819
0.128303
0.127708
0.126454
0.124567
0.122117
0.119141
0.115671
0.111745
0.107402
0.102677
0.0975867
0.0921818
0.0864735
0.0805105
0.0742757
0.0678151
0.0611598
0.0543033
0.0472723
0.0400803
0.0326499
0.0249603
0.0168305
0.00828031
0.00200398
1.57958
1.44122
1.40048
1.35982
1.31704
1.27812
1.23878
1.19775
1.15426
1.10783
1.05811
1.0047
0.947593
0.886331
0.821203
0.752091
0.679188
0.602864
0.523641
0.442103
0.359225
0.275912
0.193579
0.113476
0.0371681
-0.0336533
-0.0980228
-0.155289
-0.204321
-0.244545
-0.275492
-0.297323
-0.310387
-0.315305
-0.313061
-0.30455
-0.290782
-0.272843
-0.251662
-0.228161
-0.203121
-0.177253
-0.151145
-0.12525
-0.100005
-0.0756723
-0.0525099
-0.0306656
-0.0102652
0.00862464
0.0259813
0.0417911
0.0560625
0.0688291
0.0801247
0.0900542
0.0987076
0.106138
0.112441
0.117674
0.12188
0.125111
0.127458
0.128937
0.129635
0.129578
0.128828
0.127429
0.125443
0.122884
0.119809
0.116257
0.112262
0.107863
0.103076
0.0979422
0.0924893
0.0867457
0.0807289
0.0744688
0.0679832
0.0612841
0.0543876
0.0473307
0.0401091
0.0327132
0.0250391
0.0169017
0.00831871
0.00196614
1.58412
1.44577
1.40512
1.36454
1.32171
1.2832
1.24456
1.20398
1.16106
1.11535
1.06656
1.01434
0.958411
0.89888
0.835482
0.768312
0.697685
0.623726
0.547173
0.468435
0.388359
0.308055
0.228427
0.150992
0.0770349
0.00821026
-0.0545261
-0.110492
-0.158749
-0.198706
-0.230004
-0.252664
-0.266973
-0.273569
-0.273221
-0.266854
-0.255405
-0.239846
-0.221096
-0.200008
-0.177328
-0.153735
-0.129773
-0.105929
-0.082574
-0.0600124
-0.0384677
-0.0181068
0.000939332
0.0186169
0.0348533
0.0496609
0.0630242
0.0749813
0.0855516
0.0948636
0.102955
0.109903
0.115775
0.120616
0.124485
0.127424
0.129485
0.130729
0.131211
0.130961
0.130055
0.128517
0.126385
0.12372
0.120549
0.116904
0.112833
0.108357
0.103505
0.0983257
0.0928133
0.0870271
0.0809826
0.0746852
0.0681655
0.0614596
0.0545537
0.047479
0.0402768
0.0328098
0.0250662
0.0169237
0.00834008
0.00201342
1.58932
1.45102
1.41039
1.3699
1.32737
1.28905
1.25062
1.21048
1.16833
1.12348
1.07562
1.02455
0.970061
0.912027
0.850446
0.785394
0.716987
0.645701
0.571822
0.495972
0.418955
0.341532
0.264972
0.190393
0.11897
0.0521079
-0.00878657
-0.0634381
-0.110844
-0.150546
-0.182169
-0.20554
-0.221116
-0.229353
-0.230989
-0.226862
-0.217824
-0.204794
-0.188608
-0.170068
-0.149885
-0.128687
-0.107026
-0.0853374
-0.0640054
-0.0433037
-0.023491
-0.00470604
0.0128951
0.0292471
0.0443029
0.0580372
0.070449
0.0815349
0.0913611
0.100003
0.107506
0.113931
0.119338
0.123773
0.127265
0.129875
0.13165
0.132642
0.132896
0.132453
0.131367
0.129664
0.127411
0.124616
0.121337
0.117601
0.113436
0.108896
0.103974
0.0987324
0.0931794
0.0873428
0.0812478
0.074915
0.0683645
0.0616168
0.0546729
0.0475654
0.0402626
0.0327442
0.0250155
0.0168472
0.00837253
0.00213849
1.5951
1.45683
1.4162
1.37582
1.3335
1.29546
1.2572