/*--------------------------------*- C++ -*----------------------------------*\
  =========                 |
  \\      /  F ield         | OpenFOAM: The Open Source CFD Toolbox
   \\    /   O peration     | Website:  https://openfoam.org
    \\  /    A nd           | Version:  11
     \\/     M anipulation  |
\*---------------------------------------------------------------------------*/
FoamFile
{
    format      ascii;
    class       volScalarField;
    location    "0.062";
    object      k;
}
// * * * * * * * * * * * * * * * * * * * * * * * * * * * * * * * * * * * * * //

dimensions      [0 2 -2 0 0 0 0];

internalField   nonuniform List<scalar> 
287084
(
0.381252
0.395292
0.408416
0.417746
0.422779
0.424493
0.424664
0.424624
0.42449
0.42454
0.42474
0.424645
0.424726
0.424775
0.424754
0.424749
0.424643
0.424626
0.424523
0.4246
0.424849
0.424719
0.424803
0.42487
0.424859
0.424857
0.42467
0.424738
0.424892
0.42487
0.424864
0.424838
0.424829
0.424717
0.424629
0.424594
0.424487
0.424496
0.424502
0.424454
0.424306
0.424328
0.42435
0.424293
0.424286
0.424235
0.424085
0.424072
0.424236
0.424118
0.424173
0.42435
0.424346
0.424343
0.424281
0.424127
0.424153
0.42421
0.424079
0.424183
0.424256
0.424181
0.424095
0.424192
0.424462
0.424447
0.424412
0.424229
0.424269
0.424395
0.424405
0.424404
0.424225
0.424263
0.424302
0.424378
0.424421
0.424396
0.424375
0.424321
0.424379
0.424342
0.42445
0.42451
0.424493
0.424481
0.424214
0.424195
0.42427
0.424117
0.381306
0.395214
0.408203
0.417608
0.422737
0.424554
0.424744
0.424594
0.424656
0.424869
0.424881
0.424881
0.424812
0.424809
0.424755
0.424575
0.42458
0.424686
0.42468
0.424657
0.424623
0.424838
0.425086
0.425108
0.425069
0.425028
0.424992
0.424933
0.424742
0.424761
0.424886
0.424781
0.42483
0.424843
0.424764
0.424755
0.424729
0.424592
0.4245
0.424669
0.424746
0.424702
0.424624
0.424491
0.424575
0.424686
0.424612
0.424643
0.424657
0.424633
0.424592
0.424344
0.424345
0.424398
0.424318
0.42432
0.424308
0.424217
0.42417
0.424263
0.424229
0.42436
0.424485
0.42445
0.424445
0.424311
0.424406
0.42456
0.424521
0.424416
0.424379
0.42458
0.424687
0.424669
0.42468
0.424624
0.42437
0.424359
0.424497
0.424455
0.424485
0.424445
0.42437
0.424342
0.424475
0.424546
0.424465
0.424462
0.424445
0.424217
0.381309
0.3952
0.408197
0.417588
0.422624
0.424638
0.424962
0.424933
0.424835
0.424802
0.424871
0.424815
0.424822
0.424824
0.424817
0.424747
0.424844
0.424983
0.424963
0.424952
0.424785
0.424808
0.42485
0.424972
0.425106
0.425106
0.425106
0.424991
0.424984
0.424997
0.425009
0.424968
0.424905
0.424851
0.424807
0.424722
0.424612
0.424581
0.424562
0.424685
0.424735
0.424581
0.424645
0.42467
0.424646
0.424641
0.424488
0.424572
0.42467
0.424654
0.424652
0.424575
0.424541
0.424398
0.424258
0.424348
0.424408
0.424248
0.424261
0.424381
0.424359
0.424386
0.424387
0.424329
0.424268
0.424422
0.42459
0.424597
0.424599
0.424502
0.424499
0.42449
0.424434
0.424299
0.424336
0.424381
0.42428
0.424281
0.424328
0.424325
0.424204
0.424267
0.424492
0.424463
0.424467
0.424443
0.424407
0.424379
0.424327
0.424162
0.381283
0.395236
0.408195
0.417489
0.422617
0.424698
0.425053
0.425026
0.424925
0.424876
0.425015
0.425054
0.425007
0.424888
0.424808
0.424946
0.425058
0.424986
0.424989
0.424989
0.424992
0.424959
0.424953
0.424809
0.424827
0.424849
0.424823
0.42484
0.424748
0.424917
0.425055
0.425046
0.425044
0.42496
0.424945
0.424911
0.424891
0.424833
0.424589
0.424628
0.424701
0.424658
0.424524
0.424532
0.424647
0.424625
0.424626
0.424626
0.424606
0.424389
0.424424
0.424464
0.424453
0.424451
0.424369
0.424356
0.424274
0.424199
0.424369
0.424547
0.424541
0.424534
0.424375
0.424362
0.424294
0.424408
0.42458
0.424388
0.424465
0.424618
0.424538
0.424429
0.424438
0.424471
0.424332
0.424395
0.424586
0.424707
0.424696
0.424682
0.424678
0.424436
0.424428
0.424556
0.424565
0.424552
0.424379
0.424421
0.424459
0.424262
0.38128
0.395244
0.408171
0.417469
0.422702
0.424509
0.424621
0.42471
0.424924
0.424826
0.424756
0.424866
0.424946
0.424901
0.424748
0.424767
0.424866
0.424754
0.424758
0.424761
0.424787
0.424701
0.424755
0.424877
0.424921
0.424895
0.424835
0.424831
0.424883
0.424879
0.424856
0.424846
0.424813
0.424785
0.424746
0.424608
0.424608
0.424893
0.424973
0.42495
0.424936
0.424791
0.424751
0.424693
0.424656
0.424615
0.424566
0.424553
0.424488
0.42433
0.424289
0.424347
0.424361
0.42434
0.424318
0.424307
0.424312
0.424226
0.424307
0.424356
0.424281
0.424274
0.424274
0.424248
0.424191
0.424199
0.424189
0.424302
0.424347
0.424326
0.424273
0.424357
0.424634
0.42464
0.42465
0.424586
0.424539
0.424441
0.424433
0.424401
0.42434
0.424322
0.424319
0.424209
0.424251
0.424459
0.424424
0.42441
0.424367
0.424237
0.381274
0.395222
0.408199
0.417565
0.422568
0.424158
0.424299
0.42442
0.424821
0.42483
0.424839
0.424835
0.424769
0.424587
0.424511
0.424634
0.424642
0.424727
0.424836
0.424828
0.424801
0.424807
0.424694
0.424752
0.424848
0.424659
0.424703
0.42495
0.424992
0.42495
0.424822
0.424802
0.424785
0.424785
0.424666
0.424733
0.424788
0.424691
0.424725
0.424775
0.424738
0.424672
0.424618
0.424532
0.424482
0.424341
0.42434
0.424463
0.424514
0.424485
0.424479
0.424335
0.424316
0.424483
0.424485
0.424485
0.424484
0.424382
0.424394
0.424458
0.424479
0.424482
0.424385
0.42437
0.424252
0.424334
0.424563
0.424582
0.424585
0.424514
0.424502
0.42446
0.424316
0.424378
0.424583
0.424515
0.424529
0.424549
0.424562
0.424498
0.424446
0.424272
0.424291
0.424497
0.424524
0.424527
0.424435
0.424455
0.424414
0.424273
0.381247
0.395239
0.408205
0.417553
0.422589
0.424213
0.424696
0.424714
0.424705
0.424701
0.424476
0.424462
0.424916
0.425155
0.425021
0.425116
0.425338
0.425363
0.425325
0.425169
0.425155
0.42515
0.425058
0.425031
0.425188
0.425227
0.425177
0.424993
0.425025
0.425082
0.424901
0.424845
0.424869
0.424861
0.424908
0.424917
0.42487
0.424662
0.4247
0.424852
0.424867
0.424864
0.424634
0.424679
0.424746
0.424699
0.424544
0.424534
0.424589
0.424608
0.424609
0.424425
0.424469
0.424488
0.424463
0.424416
0.424443
0.424553
0.424483
0.424485
0.424491
0.424477
0.424279
0.424314
0.424473
0.424377
0.424383
0.424384
0.424388
0.424256
0.424312
0.424399
0.424317
0.424266
0.424378
0.424555
0.424497
0.424495
0.424482
0.424331
0.424302
0.424425
0.424446
0.424462
0.424425
0.424304
0.424396
0.424567
0.424529
0.424377
0.381268
0.395241
0.40824
0.417355
0.422543
0.424864
0.425383
0.42556
0.425539
0.425521
0.425478
0.425491
0.425508
0.425501
0.425501
0.425463
0.425357
0.425334
0.425377
0.425257
0.425322
0.425379
0.425339
0.425342
0.425312
0.425225
0.425233
0.425281
0.425236
0.425236
0.425227
0.425232
0.425145
0.424895
0.424838
0.424845
0.424771
0.4247
0.424849
0.424988
0.424969
0.424958
0.424757
0.424796
0.424886
0.424823
0.424831
0.424787
0.424636
0.424607
0.424692
0.42459
0.42469
0.424807
0.424684
0.424677
0.424642
0.424704
0.424722
0.424697
0.424695
0.424636
0.42443
0.424434
0.424441
0.424303
0.424248
0.424376
0.424504
0.424438
0.424467
0.424506
0.424513
0.424483
0.424334
0.424431
0.424641
0.424662
0.424622
0.424543
0.424525
0.424328
0.424358
0.424592
0.424603
0.424567
0.424375
0.424426
0.424504
0.424277
0.381261
0.395227
0.408217
0.417522
0.42253
0.424464
0.424726
0.424731
0.42473
0.424557
0.424528
0.424837
0.425118
0.425167
0.425116
0.425125
0.425116
0.425106
0.425314
0.42543
0.425409
0.425445
0.425406
0.425226
0.425293
0.425349
0.425346
0.425346
0.425315
0.425302
0.425171
0.425106
0.425036
0.424823
0.424841
0.424899
0.424805
0.424753
0.42472
0.424641
0.424751
0.424892
0.424679
0.424731
0.424877
0.424825
0.424819
0.424833
0.424844
0.424805
0.424747
0.424515
0.424444
0.424413
0.424371
0.424247
0.424328
0.424486
0.424488
0.424486
0.42428
0.424357
0.424485
0.424489
0.424489
0.424383
0.424367
0.424227
0.424269
0.424603
0.424632
0.424586
0.424496
0.424382
0.424353
0.424291
0.424388
0.424704
0.424748
0.42472
0.424658
0.424658
0.4246
0.424404
0.424458
0.424566
0.424443
0.424437
0.424428
0.424266
0.381272
0.39515
0.408331
0.417483
0.422503
0.424377
0.424597
0.424585
0.424535
0.424638
0.424912
0.424892
0.424855
0.424679
0.424773
0.424977
0.42492
0.424952
0.424915
0.424874
0.424765
0.424845
0.424939
0.424905
0.424917
0.424889
0.424772
0.424781
0.425
0.425052
0.425014
0.424993
0.424969
0.424791
0.424845
0.424914
0.424893
0.424894
0.424855
0.424848
0.424804
0.424778
0.424723
0.424622
0.424361
0.424282
0.424351
0.424431
0.424397
0.424183
0.424176
0.424315
0.424335
0.424296
0.424111
0.424168
0.424248
0.424057
0.424044
0.424352
0.424463
0.424418
0.424319
0.424238
0.424246
0.424124
0.424137
0.424292
0.424282
0.424326
0.424342
0.424307
0.42417
0.424246
0.424358
0.42417
0.424157
0.424428
0.424505
0.424477
0.424471
0.424319
0.42441
0.424633
0.424626
0.424613
0.424473
0.4244
0.424364
0.424239
0.381277
0.395203
0.408223
0.417487
0.422609
0.424474
0.424683
0.424672
0.424622
0.424682
0.424776
0.424693
0.424661
0.424794
0.424883
0.42474
0.424848
0.425106
0.424991
0.425104
0.425188
0.425164
0.42516
0.424988
0.425063
0.42512
0.424909
0.42498
0.425032
0.425002
0.424916
0.424885
0.425037
0.425107
0.425077
0.424968
0.424922
0.424919
0.424919
0.424892
0.424864
0.424753
0.424456
0.424376
0.424368
0.424228
0.424312
0.424533
0.424532
0.424533
0.424446
0.42449
0.424502
0.424465
0.424308
0.424338
0.424363
0.424235
0.424188
0.424331
0.424447
0.424398
0.42426
0.424212
0.424373
0.424417
0.424368
0.424183
0.424169
0.42433
0.424413
0.424392
0.424297
0.424397
0.424428
0.424368
0.424367
0.424281
0.424366
0.424584
0.424388
0.424372
0.42455
0.424632
0.424587
0.424413
0.424457
0.424506
0.424457
0.424301
0.381252
0.395246
0.408192
0.417508
0.422574
0.424493
0.424889
0.424927
0.424888
0.424835
0.424767
0.424862
0.425101
0.42523
0.425314
0.425181
0.425179
0.425178
0.425064
0.425124
0.425296
0.425162
0.425118
0.425158
0.425139
0.42526
0.425342
0.425297
0.425293
0.425301
0.425314
0.425273
0.425235
0.425158
0.425103
0.425041
0.424982
0.424872
0.424709
0.424591
0.424498
0.424425
0.424395
0.424291
0.424368
0.424432
0.4244
0.424307
0.424293
0.424445
0.424364
0.424458
0.424584
0.424585
0.424584
0.424478
0.42431
0.424316
0.424345
0.424202
0.424173
0.42425
0.424203
0.424313
0.424566
0.424544
0.424505
0.424293
0.424273
0.424528
0.424583
0.42453
0.424339
0.424327
0.424482
0.424523
0.424471
0.424249
0.424227
0.424452
0.424497
0.424461
0.424352
0.424434
0.424552
0.424531
0.424515
0.424383
0.424342
0.424211
0.381269
0.395235
0.408255
0.417316
0.422593
0.424827
0.425225
0.42521
0.42511
0.425193
0.425347
0.425136
0.425178
0.42533
0.425158
0.42524
0.425395
0.425366
0.425364
0.4252
0.425293
0.425447
0.425223
0.425212
0.425424
0.425461
0.4254
0.425415
0.425421
0.425393
0.425223
0.425157
0.425075
0.425034
0.42492
0.424945
0.425011
0.425001
0.42499
0.424731
0.424751
0.424799
0.424773
0.424762
0.42457
0.424629
0.424744
0.424714
0.424707
0.424705
0.424723
0.4247
0.424659
0.42444
0.424368
0.424463
0.424546
0.4245
0.424288
0.424325
0.424541
0.424557
0.424569
0.4245
0.424453
0.424359
0.424274
0.42437
0.42447
0.424407
0.42444
0.424498
0.424464
0.424426
0.424328
0.424431
0.424598
0.4246
0.424598
0.424396
0.424463
0.424555
0.424549
0.424547
0.424415
0.424363
0.424435
0.424472
0.424428
0.424285
0.38127
0.395189
0.408227
0.417593
0.422538
0.424186
0.42458
0.424606
0.424452
0.424553
0.424631
0.424513
0.424586
0.424619
0.424479
0.424554
0.424811
0.424707
0.424822
0.424945
0.424755
0.424738
0.424917
0.424915
0.425052
0.425289
0.425126
0.425203
0.425242
0.425193
0.425045
0.425049
0.425057
0.424984
0.424874
0.424906
0.424962
0.424795
0.424833
0.424884
0.424842
0.424841
0.424846
0.42486
0.424828
0.424799
0.42465
0.424693
0.424727
0.424708
0.424694
0.424483
0.424395
0.424437
0.424524
0.424479
0.424301
0.424269
0.42444
0.424488
0.424444
0.424344
0.424261
0.424356
0.424405
0.424376
0.424295
0.424344
0.424494
0.424443
0.424489
0.424507
0.42447
0.424389
0.424274
0.424308
0.424282
0.424394
0.424626
0.424462
0.424548
0.424702
0.424721
0.424681
0.424558
0.424473
0.424581
0.424703
0.424653
0.424461
0.381269
0.39524
0.408238
0.417357
0.422518
0.424892
0.425383
0.425376
0.425295
0.425356
0.425481
0.425289
0.425365
0.425456
0.425355
0.425387
0.425348
0.4252
0.425254
0.425394
0.425276
0.425339
0.425433
0.425481
0.425448
0.425421
0.425417
0.42535
0.425349
0.425351
0.425315
0.425313
0.425281
0.425242
0.425171
0.425113
0.425051
0.42494
0.424754
0.424663
0.424586
0.424356
0.424339
0.424551
0.424612
0.424582
0.424543
0.424492
0.424275
0.424319
0.424453
0.424254
0.424257
0.4245
0.424539
0.424513
0.424513
0.424438
0.424405
0.42427
0.424299
0.424586
0.424649
0.424614
0.424461
0.424553
0.424622
0.424624
0.424624
0.424383
0.424421
0.424473
0.424464
0.424462
0.424284
0.424415
0.424595
0.424591
0.424585
0.424391
0.424465
0.424597
0.424498
0.424495
0.42449
0.424417
0.424314
0.424385
0.424429
0.424267
0.381296
0.395249
0.408131
0.417492
0.422624
0.42437
0.424915
0.424934
0.42473
0.424694
0.424824
0.424922
0.424882
0.424718
0.424779
0.425018
0.425054
0.425018
0.424858
0.424926
0.424992
0.424855
0.424916
0.425095
0.425093
0.425036
0.425095
0.425166
0.424968
0.425007
0.425109
0.424889
0.424883
0.425015
0.425019
0.42498
0.424909
0.424921
0.424919
0.424875
0.424824
0.424814
0.424737
0.424703
0.424691
0.424625
0.424336
0.424201
0.424267
0.424209
0.424327
0.424428
0.424406
0.424399
0.424302
0.424454
0.424505
0.424546
0.424892
0.424951
0.4249
0.424768
0.424723
0.424781
0.424791
0.424756
0.42481
0.424828
0.424794
0.424791
0.424716
0.424476
0.424437
0.424539
0.424562
0.424558
0.424411
0.424429
0.424441
0.42429
0.424313
0.42456
0.424636
0.424596
0.424526
0.424429
0.424456
0.424478
0.424429
0.42428
0.381272
0.395256
0.408225
0.417358
0.422441
0.424882
0.425577
0.425585
0.425551
0.425556
0.425503
0.425558
0.425601
0.425566
0.425521
0.425476
0.425415
0.4252
0.425223
0.425371
0.425316
0.425282
0.425256
0.425196
0.425307
0.425404
0.425405
0.425403
0.425305
0.425292
0.425227
0.425221
0.425172
0.425073
0.425035
0.424984
0.424954
0.424912
0.424871
0.424825
0.424733
0.424529
0.424314
0.424363
0.424408
0.424357
0.424253
0.424171
0.424197
0.424103
0.424201
0.424374
0.424341
0.424222
0.424217
0.424456
0.424675
0.424697
0.424472
0.424486
0.424633
0.424472
0.424528
0.424664
0.424538
0.424536
0.424539
0.424505
0.42447
0.424447
0.424281
0.42431
0.424499
0.424521
0.424526
0.424473
0.424318
0.424391
0.424553
0.424514
0.424523
0.42454
0.42453
0.424304
0.424282
0.424421
0.4243
0.424313
0.424446
0.424298
0.381268
0.395243
0.408226
0.417397
0.422431
0.424963
0.42557
0.425571
0.425524
0.425564
0.425587
0.425584
0.425585
0.425373
0.425435
0.425505
0.425291
0.42536
0.425498
0.425276
0.425294
0.425443
0.425467
0.42544
0.425475
0.425518
0.425505
0.425502
0.425412
0.425403
0.425361
0.425315
0.425252
0.425189
0.425144
0.425099
0.42503
0.42489
0.424734
0.424632
0.424566
0.424436
0.42433
0.424313
0.424246
0.424209
0.42414
0.424245
0.424427
0.424433
0.424435
0.424372
0.424244
0.42427
0.424396
0.424482
0.424637
0.424497
0.424598
0.42471
0.424583
0.424662
0.424706
0.424665
0.424598
0.424465
0.424485
0.424501
0.424382
0.424403
0.424656
0.424696
0.424674
0.424672
0.424627
0.424498
0.424474
0.42454
0.424527
0.424528
0.424513
0.424366
0.424452
0.424572
0.424568
0.424565
0.424351
0.424398
0.424469
0.424269
0.381272
0.395254
0.408235
0.417328
0.422508
0.424846
0.425369
0.425527
0.425501
0.425325
0.425402
0.425469
0.425431
0.425312
0.425328
0.425417
0.425195
0.425196
0.425325
0.425319
0.425343
0.425312
0.425219
0.42531
0.425378
0.425277
0.425274
0.425262
0.425282
0.425273
0.425278
0.425205
0.424988
0.424851
0.424833
0.424733
0.424813
0.424904
0.424898
0.424894
0.424804
0.424798
0.424742
0.424648
0.424544
0.424435
0.424353
0.424177
0.424053
0.424239
0.424353
0.42435
0.424348
0.424151
0.424164
0.424448
0.424759
0.424741
0.424546
0.424633
0.424741
0.424601
0.424684
0.42474
0.42469
0.424572
0.424514
0.424579
0.424595
0.424494
0.424535
0.4246
0.424427
0.424513
0.424586
0.424542
0.424443
0.424383
0.424509
0.424584
0.424561
0.42456
0.424493
0.424281
0.424234
0.424329
0.424335
0.424336
0.42433
0.424187
0.381253
0.395315
0.408128
0.417423
0.422579
0.424712
0.425055
0.425038
0.424997
0.424919
0.425013
0.425057
0.425012
0.424865
0.42492
0.425089
0.424943
0.425045
0.425138
0.42512
0.425115
0.425087
0.425256
0.42526
0.425394
0.425471
0.425457
0.425454
0.425378
0.425373
0.425335
0.425298
0.425241
0.425181
0.425113
0.425053
0.424962
0.424889
0.424828
0.424728
0.424606
0.424534
0.424396
0.424276
0.424241
0.424163
0.42421
0.424231
0.42419
0.424123
0.424078
0.424534
0.424966
0.424962
0.424916
0.424967
0.425117
0.425112
0.425084
0.424833
0.424806
0.424876
0.424839
0.42482
0.424838
0.424851
0.424814
0.424708
0.424753
0.424837
0.424835
0.424836
0.424786
0.424773
0.424557
0.424593
0.424637
0.424506
0.424512
0.424503
0.424434
0.424351
0.424315
0.424289
0.424323
0.424359
0.424335
0.424312
0.424297
0.424163
0.381278
0.395216
0.408204
0.417511
0.422593
0.424331
0.424516
0.424419
0.424478
0.424702
0.424728
0.424692
0.424642
0.424531
0.424671
0.424904
0.424884
0.424892
0.424799
0.424934
0.425479
0.425553
0.425477
0.425516
0.425523
0.425476
0.425371
0.425316
0.425262
0.425238
0.425232
0.425199
0.42517
0.425101
0.42501
0.424754
0.424757
0.424804
0.424776
0.424762
0.424622
0.424589
0.424563
0.424495
0.424264
0.424245
0.424388
0.424425
0.424394
0.424384
0.424348
0.424306
0.424263
0.424127
0.424102
0.424076
0.424169
0.424233
0.424219
0.424244
0.424176
0.424146
0.424145
0.42414
0.424033
0.424116
0.424286
0.424207
0.42413
0.424236
0.424499
0.424444
0.424516
0.424587
0.424568
0.424556
0.424391
0.424457
0.424626
0.424552
0.424583
0.424545
0.424498
0.424366
0.424384
0.42441
0.424245
0.424315
0.42443
0.424227
0.38127
0.395233
0.40826
0.417303
0.422612
0.424841
0.425203
0.425209
0.425245
0.425204
0.425085
0.425177
0.425348
0.425293
0.425292
0.425269
0.425276
0.425245
0.425246
0.425169
0.425279
0.425519
0.425464
0.425483
0.425549
0.425559
0.425534
0.425517
0.4254
0.425358
0.42527
0.42498
0.424976
0.425015
0.425009
0.424998
0.424846
0.424837
0.42479
0.424703
0.424637
0.424587
0.42453
0.424492
0.42442
0.424262
0.424098
0.424166
0.424302
0.424284
0.424279
0.424133
0.424275
0.424836
0.424871
0.424878
0.424803
0.42493
0.425075
0.424974
0.424979
0.424978
0.424869
0.424938
0.424999
0.42478
0.424743
0.424775
0.424621
0.424656
0.424808
0.424664
0.424738
0.424901
0.424846
0.424891
0.42492
0.42487
0.424903
0.424911
0.424874
0.424839
0.424542
0.424465
0.42453
0.424549
0.424512
0.424436
0.424403
0.42421
0.381268
0.395241
0.408234
0.417372
0.422489
0.424937
0.425422
0.425285
0.425382
0.425514
0.425398
0.425416
0.425375
0.425345
0.425248
0.425344
0.425494
0.425273
0.425281
0.425465
0.425479
0.425468
0.425465
0.425643
0.425724
0.425651
0.425679
0.42564
0.425587
0.425584
0.425529
0.42541
0.425308
0.425237
0.425141
0.424921
0.424848
0.424767
0.42451
0.424493
0.424661
0.424673
0.424652
0.424485
0.42439
0.42437
0.424283
0.424394
0.424493
0.424485
0.42448
0.424268
0.42434
0.424808
0.42481
0.424956
0.425126
0.425064
0.425058
0.425055
0.425052
0.424904
0.424992
0.425073
0.424829
0.424844
0.424935
0.424738
0.424792
0.424942
0.424859
0.424921
0.424946
0.42486
0.424933
0.424962
0.424924
0.424917
0.424748
0.424792
0.42481
0.424752
0.424757
0.424766
0.424733
0.4245
0.42442
0.424502
0.424517
0.424358
0.381285
0.395185
0.408224
0.417575
0.422458
0.424455
0.424736
0.424681
0.424681
0.424604
0.424657
0.424678
0.424512
0.424495
0.424861
0.425067
0.425001
0.425241
0.425568
0.42554
0.425549
0.425529
0.425531
0.425482
0.425482
0.425474
0.425358
0.425402
0.42543
0.425376
0.425385
0.425345
0.425319
0.425266
0.425161
0.425098
0.425008
0.424835
0.424497
0.424486
0.424577
0.424455
0.424519
0.42454
0.424479
0.424496
0.424452
0.424285
0.4243
0.424389
0.424205
0.424168
0.424237
0.424319
0.424288
0.424123
0.424231
0.424388
0.424318
0.424339
0.424337
0.424232
0.424218
0.424537
0.424665
0.42464
0.424624
0.424497
0.424462
0.424402
0.42452
0.424595
0.424564
0.424469
0.424495
0.424567
0.424355
0.424361
0.424515
0.4245
0.424504
0.424496
0.424439
0.424314
0.42444
0.424573
0.424559
0.424558
0.424494
0.424278
0.381256
0.395279
0.408172
0.417403
0.42264
0.424657
0.42516
0.425146
0.425035
0.42501
0.425095
0.425098
0.4251
0.425101
0.425122
0.425101
0.425106
0.425055
0.42512
0.425197
0.425169
0.425081
0.42515
0.425373
0.425184
0.425198
0.425417
0.425471
0.425446
0.425446
0.425358
0.425038
0.424941
0.424946
0.424949
0.42491
0.424869
0.424864
0.424812
0.424753
0.42457
0.424487
0.424424
0.424308
0.424094
0.42409
0.424163
0.424163
0.424162
0.423975
0.424034
0.424327
0.424339
0.424283
0.424072
0.42408
0.424193
0.424025
0.424065
0.424263
0.424204
0.424263
0.424335
0.424281
0.424311
0.424366
0.424336
0.424289
0.424099
0.424149
0.424362
0.424358
0.424293
0.424343
0.424413
0.424196
0.424263
0.424408
0.424373
0.42437
0.424262
0.424395
0.424562
0.424541
0.424537
0.424503
0.424499
0.424455
0.424408
0.424154
0.381269
0.395238
0.408249
0.417328
0.422581
0.424849
0.42523
0.425223
0.425169
0.425265
0.425416
0.425235
0.425323
0.425466
0.425465
0.425451
0.42546
0.425482
0.425395
0.425389
0.425382
0.425313
0.425436
0.4256
0.425584
0.425578
0.425543
0.425537
0.425477
0.425465
0.425385
0.425302
0.425225
0.425156
0.425046
0.424793
0.424714
0.424685
0.4246
0.424591
0.42459
0.424564
0.424564
0.424526
0.424471
0.424384
0.424183
0.42403
0.424143
0.424262
0.424232
0.424177
0.424122
0.424206
0.424281
0.424254
0.424244
0.424098
0.424164
0.424263
0.424188
0.424136
0.424267
0.424468
0.424384
0.424429
0.424443
0.424401
0.424213
0.424196
0.424255
0.42411
0.424116
0.424438
0.424544
0.424503
0.424501
0.424477
0.424485
0.424491
0.424459
0.424275
0.424169
0.424366
0.424476
0.424433
0.424274
0.424293
0.424435
0.424251
0.381268
0.395243
0.408226
0.417399
0.422432
0.424969
0.425572
0.425635
0.425597
0.425386
0.425456
0.425542
0.425368
0.425458
0.425538
0.425333
0.425407
0.425554
0.425334
0.425337
0.425485
0.425487
0.425442
0.425532
0.425679
0.425624
0.425657
0.425607
0.425569
0.425553
0.425548
0.42555
0.425553
0.425473
0.425278
0.425002
0.424881
0.424813
0.424779
0.42474
0.424703
0.424697
0.424639
0.424598
0.424533
0.424323
0.424336
0.424368
0.424358
0.424355
0.424174
0.424125
0.424541
0.42504
0.424922
0.425024
0.425143
0.425082
0.425082
0.42504
0.425052
0.42503
0.42505
0.42504
0.424956
0.424889
0.424837
0.424672
0.424734
0.424894
0.424773
0.42478
0.424769
0.424788
0.424746
0.424577
0.424623
0.424715
0.42467
0.424668
0.424679
0.42467
0.424449
0.42448
0.424656
0.424659
0.424624
0.424609
0.424554
0.424259
0.381268
0.395242
0.408234
0.417371
0.422488
0.424939
0.425424
0.425287
0.425385
0.425518
0.425364
0.425413
0.425469
0.425428
0.425293
0.425355
0.425497
0.425275
0.42528
0.425426
0.425355
0.425482
0.425618
0.425476
0.425569
0.425622
0.425612
0.42561
0.42555
0.425536
0.42548
0.425418
0.4252
0.425092
0.42503
0.424913
0.424864
0.424784
0.424534
0.424493
0.424679
0.4247
0.424645
0.424486
0.424391
0.42437
0.42431
0.424412
0.424478
0.424462
0.424458
0.424276
0.42439
0.424858
0.424873
0.424799
0.42489
0.424977
0.424975
0.424974
0.424728
0.42476
0.424884
0.424684
0.424745
0.424872
0.424744
0.424742
0.424727
0.424618
0.424575
0.42474
0.424832
0.424782
0.42479
0.424794
0.424784
0.424751
0.424671
0.424399
0.424369
0.424499
0.424346
0.424412
0.424557
0.424493
0.424531
0.424545
0.424501
0.424264
0.38127
0.395233
0.408262
0.417302
0.422617
0.424822
0.425185
0.425326
0.42536
0.425218
0.425262
0.425274
0.425122
0.425178
0.425343
0.42536
0.425372
0.425322
0.425307
0.425217
0.425334
0.42546
0.425418
0.425309
0.42526
0.425295
0.425173
0.425152
0.425342
0.425442
0.42541
0.42537
0.425323
0.425284
0.42527
0.425234
0.425183
0.425094
0.424913
0.424649
0.424547
0.424508
0.424437
0.424398
0.42436
0.424297
0.424109
0.424192
0.424347
0.424352
0.424352
0.424171
0.424327
0.424852
0.424871
0.424845
0.424788
0.424891
0.425016
0.425015
0.425013
0.424811
0.42484
0.424905
0.424897
0.424897
0.424835
0.424815
0.424682
0.424562
0.424689
0.424793
0.424789
0.424787
0.424613
0.424573
0.424617
0.424546
0.424658
0.424741
0.424736
0.424736
0.42465
0.424654
0.424607
0.424412
0.424393
0.424498
0.424498
0.424357
0.381281
0.395208
0.40822
0.417496
0.422564
0.424406
0.424665
0.424639
0.424524
0.424596
0.424833
0.424844
0.424847
0.424759
0.424757
0.424682
0.424811
0.424977
0.424806
0.424835
0.425132
0.425393
0.425402
0.425192
0.425192
0.425329
0.425333
0.425255
0.425314
0.425365
0.425344
0.425338
0.425271
0.425255
0.425209
0.425145
0.424892
0.424822
0.424761
0.42456
0.424622
0.424695
0.424592
0.424611
0.424601
0.42458
0.424514
0.424528
0.424547
0.42444
0.424483
0.424525
0.424517
0.424514
0.424369
0.424353
0.424296
0.424181
0.42404
0.424192
0.424383
0.424393
0.424394
0.424209
0.424285
0.424526
0.424539
0.424571
0.424529
0.424381
0.42437
0.42452
0.424478
0.424611
0.424727
0.424549
0.424629
0.424695
0.424539
0.424609
0.424651
0.424612
0.424559
0.424424
0.424503
0.424621
0.424656
0.424624
0.424586
0.424349
0.381302
0.395235
0.40814
0.417503
0.422612
0.42435
0.424898
0.424923
0.424886
0.424884
0.424849
0.424833
0.424627
0.424618
0.424954
0.425069
0.425057
0.425064
0.425012
0.424882
0.424824
0.425149
0.425375
0.425381
0.425379
0.425167
0.425198
0.425288
0.425242
0.425243
0.425192
0.425081
0.42495
0.424973
0.424987
0.424926
0.424735
0.424739
0.424741
0.424656
0.424664
0.424637
0.424595
0.424558
0.424555
0.424559
0.424576
0.424542
0.424491
0.424425
0.42428
0.424126
0.424193
0.424289
0.424264
0.424189
0.424249
0.424351
0.424431
0.424612
0.424614
0.424627
0.42455
0.424587
0.4246
0.424557
0.424423
0.424502
0.424586
0.424395
0.424476
0.424644
0.424665
0.424625
0.424396
0.424415
0.424616
0.424649
0.424616
0.424618
0.424566
0.424345
0.424389
0.424508
0.424493
0.424483
0.424288
0.424335
0.424385
0.424205
0.381296
0.395248
0.408132
0.417494
0.422625
0.424371
0.42491
0.424928
0.424701
0.42476
0.42483
0.424813
0.424812
0.424689
0.424883
0.425064
0.425053
0.425047
0.424889
0.425037
0.425265
0.425259
0.425282
0.425224
0.425272
0.425285
0.42525
0.425206
0.425207
0.42513
0.424945
0.424832
0.424971
0.425066
0.425007
0.424996
0.424979
0.424912
0.424766
0.424713
0.424665
0.42463
0.424565
0.424416
0.424239
0.424266
0.424321
0.424275
0.424187
0.424097
0.424304
0.42442
0.424401
0.424678
0.42483
0.424824
0.424817
0.424592
0.424635
0.424791
0.424699
0.424695
0.424694
0.424641
0.4246
0.424556
0.424424
0.424511
0.424672
0.424633
0.424632
0.424645
0.424638
0.424394
0.424399
0.424542
0.424598
0.424563
0.424472
0.424476
0.424416
0.424401
0.424396
0.424406
0.424389
0.424218
0.424246
0.424427
0.424415
0.424279
0.381268
0.395242
0.408231
0.417378
0.422473
0.42494
0.425454
0.425461
0.425461
0.425332
0.425428
0.425537
0.42541
0.425492
0.425544
0.425499
0.425346
0.425371
0.425484
0.425274
0.425296
0.425447
0.425332
0.425419
0.425495
0.425369
0.425443
0.425464
0.425414
0.425326
0.425268
0.425179
0.424894
0.424905
0.424964
0.424827
0.424746
0.424689
0.424695
0.424703
0.424688
0.424564
0.424477
0.424517
0.424423
0.424515
0.424665
0.42447
0.424542
0.424688
0.424702
0.424662
0.424571
0.424548
0.42433
0.424314
0.424498
0.424471
0.424479
0.424479
0.424504
0.424505
0.42452
0.424509
0.424369
0.424393
0.424522
0.424511
0.424467
0.424446
0.424646
0.424695
0.424674
0.424669
0.42455
0.424503
0.42455
0.424625
0.424592
0.424544
0.424501
0.424307
0.424354
0.4246
0.424607
0.424571
0.424371
0.424424
0.424507
0.42428
0.381272
0.395259
0.40822
0.417372
0.422403
0.424947
0.425523
0.42546
0.425516
0.425528
0.425408
0.425478
0.425545
0.425539
0.425514
0.425539
0.42561
0.425606
0.425642
0.425594
0.425575
0.425572
0.425575
0.425436
0.425503
0.425544
0.425431
0.425431
0.425435
0.425432
0.42542
0.425391
0.425349
0.425281
0.424999
0.424918
0.424918
0.424926
0.424916
0.424701
0.424655
0.424647
0.424639
0.424519
0.424537
0.424582
0.424505
0.424407
0.424466
0.424635
0.424555
0.424573
0.424576
0.42458
0.424454
0.424539
0.42466
0.424653
0.424649
0.424509
0.424507
0.424425
0.4245
0.424742
0.424599
0.424671
0.424843
0.424772
0.424791
0.424795
0.424791
0.424636
0.424605
0.424729
0.424796
0.42476
0.42467
0.424549
0.42454
0.42461
0.42458
0.424578
0.424557
0.42446
0.424287
0.424322
0.424408
0.424403
0.424399
0.424197
0.381256
0.395305
0.408155
0.417371
0.422624
0.424716
0.425007
0.424951
0.424945
0.424932
0.424757
0.424731
0.424861
0.424757
0.424726
0.42487
0.424983
0.424949
0.424833
0.424921
0.425172
0.425119
0.425154
0.425214
0.425202
0.425176
0.425155
0.425028
0.42489
0.42501
0.4251
0.425049
0.424946
0.424852
0.424931
0.424953
0.424884
0.424884
0.42488
0.424842
0.424782
0.424684
0.424468
0.424223
0.42428
0.424348
0.424303
0.424208
0.424149
0.424361
0.424438
0.42442
0.424418
0.424292
0.424282
0.424245
0.424272
0.424655
0.4248
0.424706
0.424719
0.424724
0.424718
0.424609
0.424567
0.424504
0.42461
0.424694
0.424587
0.42459
0.424587
0.424452
0.424507
0.424604
0.42439
0.424454
0.424596
0.424517
0.424404
0.424399
0.424582
0.424612
0.424568
0.424584
0.424567
0.424367
0.424366
0.424502
0.424497
0.42436
0.381268
0.395241
0.408236
0.417363
0.422515
0.424872
0.425471
0.425554
0.425503
0.425518
0.425465
0.425506
0.425528
0.425313
0.425365
0.425457
0.425284
0.425386
0.425519
0.425311
0.425379
0.42551
0.42541
0.425473
0.425501
0.425472
0.425447
0.425252
0.425179
0.425209
0.425156
0.425217
0.425226
0.425191
0.425199
0.42514
0.425003
0.424849
0.424752
0.424683
0.424587
0.424514
0.424363
0.424238
0.424239
0.424168
0.424163
0.424254
0.424198
0.424286
0.424543
0.424565
0.424573
0.424525
0.424372
0.424414
0.42455
0.424524
0.424416
0.424448
0.42455
0.424343
0.424361
0.424492
0.424388
0.424335
0.424386
0.424416
0.424349
0.424416
0.424609
0.424644
0.424629
0.424626
0.424532
0.424469
0.424518
0.424542
0.424498
0.424356
0.424428
0.424583
0.424557
0.424555
0.424509
0.424437
0.424313
0.424379
0.424422
0.424261
0.381263
0.395209
0.408232
0.417544
0.422549
0.424318
0.424506
0.424369
0.424368
0.424662
0.424776
0.424759
0.424751
0.424551
0.424667
0.425025
0.425024
0.424972
0.425015
0.42522
0.425214
0.425173
0.425295
0.425503
0.425397
0.425485
0.425522
0.425503
0.425486
0.425283
0.425244
0.425174
0.425134
0.425067
0.424854
0.424908
0.424945
0.424893
0.424831
0.424778
0.424775
0.424776
0.424744
0.424659
0.424615
0.424485
0.424565
0.424641
0.42463
0.424628
0.42455
0.424517
0.424338
0.424207
0.424348
0.42444
0.4244
0.424326