/*--------------------------------*- C++ -*----------------------------------*\
  =========                 |
  \\      /  F ield         | OpenFOAM: The Open Source CFD Toolbox
   \\    /   O peration     | Website:  https://openfoam.org
    \\  /    A nd           | Version:  11
     \\/     M anipulation  |
\*---------------------------------------------------------------------------*/
FoamFile
{
    format      ascii;
    class       volScalarField;
    location    "0.062";
    object      nut;
}
// * * * * * * * * * * * * * * * * * * * * * * * * * * * * * * * * * * * * * //

dimensions      [0 2 -1 0 0 0 0];

internalField   nonuniform List<scalar> 
287084
(
0.000835811
0.000867422
0.000897746
0.000919969
0.000932382
0.000937111
0.000938052
0.000938289
0.000938165
0.000938338
0.000938775
0.000938548
0.000938703
0.000938772
0.000938675
0.000938596
0.000938289
0.000938175
0.000937875
0.000937977
0.000938465
0.000938126
0.000938268
0.000938386
0.000938352
0.000938343
0.000937938
0.000938108
0.000938456
0.000938438
0.000938499
0.000938598
0.000938787
0.000938734
0.000938717
0.000938812
0.000938746
0.000938935
0.000939115
0.000939172
0.000938997
0.000939191
0.000939377
0.000939373
0.000939471
0.000939462
0.000939216
0.000939264
0.000939695
0.000939492
0.000939654
0.000940061
0.000940057
0.000940056
0.000939912
0.000939562
0.000939605
0.000939717
0.000939412
0.000939634
0.000939784
0.000939601
0.000939395
0.00093959
0.000940162
0.000940113
0.000940007
0.000939564
0.00093963
0.000939897
0.000939901
0.000939853
0.000939437
0.000939515
0.000939588
0.000939748
0.000939824
0.000939753
0.000939698
0.00093956
0.000939679
0.000939587
0.000939806
0.00093993
0.000939874
0.000939818
0.000939213
0.00093918
0.000939353
0.000938983
0.00118147
0.00122468
0.00126543
0.00129511
0.00131149
0.00131749
0.00131829
0.00131794
0.0013182
0.00131888
0.0013189
0.00131885
0.00131858
0.00131848
0.00131822
0.00131755
0.00131746
0.00131768
0.00131755
0.00131739
0.00131719
0.00131779
0.00131849
0.00131853
0.00131839
0.00131826
0.00131818
0.00131807
0.00131757
0.00131773
0.00131827
0.00131812
0.00131846
0.00131871
0.00131868
0.00131889
0.00131904
0.00131885
0.0013188
0.00131955
0.00132001
0.00132008
0.00132002
0.00131979
0.00132021
0.0013207
0.0013206
0.0013208
0.00132093
0.00132094
0.00132087
0.00132016
0.0013202
0.0013204
0.00132017
0.00132018
0.00132014
0.00131984
0.00131967
0.00131995
0.00131983
0.00132022
0.00132058
0.00132045
0.0013204
0.00131995
0.00132022
0.00132067
0.00132053
0.00132017
0.00132004
0.00132065
0.00132095
0.00132088
0.0013209
0.00132072
0.0013199
0.00131984
0.00132026
0.0013201
0.00132017
0.00132003
0.00131977
0.00131966
0.00132007
0.00132028
0.00132003
0.00132001
0.00131996
0.00131924
0.00118153
0.00122484
0.00126564
0.0012953
0.00131136
0.0013179
0.00131907
0.00131906
0.0013188
0.0013187
0.00131888
0.00131866
0.00131859
0.00131851
0.00131838
0.00131805
0.00131824
0.00131856
0.00131839
0.00131825
0.00131764
0.00131763
0.0013177
0.00131804
0.00131844
0.00131845
0.00131849
0.0013182
0.00131828
0.00131845
0.00131864
0.00131868
0.00131867
0.00131871
0.0013188
0.00131877
0.00131867
0.00131881
0.00131899
0.0013196
0.00131998
0.00131971
0.0013201
0.00132036
0.00132044
0.00132057
0.00132022
0.00132059
0.00132099
0.00132102
0.00132107
0.00132088
0.00132082
0.0013204
0.00131999
0.00132028
0.00132048
0.00131997
0.00131999
0.00132035
0.00132026
0.00132034
0.00132031
0.00132011
0.0013199
0.00132034
0.00132084
0.00132084
0.00132082
0.0013205
0.00132047
0.00132043
0.00132023
0.00131979
0.00131988
0.00132
0.00131967
0.00131965
0.00131978
0.00131976
0.00131936
0.00131954
0.00132023
0.00132012
0.00132013
0.00132005
0.00131993
0.00131983
0.00131967
0.00131911
0.00118147
0.00122507
0.00126589
0.00129534
0.0013117
0.00131842
0.00131962
0.00131955
0.00131922
0.00131902
0.00131939
0.00131943
0.00131919
0.00131871
0.00131835
0.00131865
0.00131888
0.00131854
0.00131843
0.00131832
0.00131824
0.00131805
0.00131797
0.00131748
0.00131752
0.0013176
0.00131756
0.00131768
0.00131749
0.00131815
0.00131874
0.00131889
0.00131908
0.00131904
0.00131922
0.00131937
0.00131955
0.00131962
0.00131911
0.00131946
0.00131992
0.00132
0.00131978
0.00131998
0.0013205
0.00132058
0.0013207
0.00132081
0.00132084
0.00132024
0.00132041
0.00132058
0.00132058
0.00132061
0.00132036
0.00132034
0.00132009
0.00131985
0.00132037
0.00132091
0.00132087
0.00132083
0.00132031
0.00132025
0.00132001
0.00132034
0.00132085
0.00132022
0.00132044
0.00132089
0.00132061
0.00132025
0.00132025
0.00132033
0.00131988
0.00132005
0.00132063
0.00132098
0.00132093
0.00132087
0.00132084
0.00132007
0.00132004
0.00132042
0.00132044
0.00132039
0.00131984
0.00131997
0.00132008
0.00131942
0.00118148
0.00122519
0.00126594
0.00129542
0.00131212
0.00131796
0.00131839
0.00131866
0.00131928
0.00131891
0.00131862
0.00131886
0.001319
0.00131874
0.00131814
0.00131807
0.00131825
0.00131778
0.00131766
0.00131756
0.00131753
0.00131718
0.00131728
0.00131761
0.00131773
0.00131766
0.00131751
0.00131757
0.00131784
0.00131797
0.00131806
0.00131823
0.00131834
0.00131848
0.00131861
0.00131844
0.0013187
0.00131985
0.00132035
0.00132053
0.00132072
0.00132048
0.00132055
0.00132056
0.0013206
0.00132062
0.00132059
0.00132065
0.00132054
0.00132011
0.00132005
0.00132027
0.00132035
0.00132031
0.00132025
0.00132022
0.00132024
0.00131996
0.0013202
0.00132034
0.00132008
0.00132004
0.00132002
0.00131991
0.0013197
0.0013197
0.00131965
0.00131997
0.00132008
0.00131999
0.00131979
0.00132003
0.00132087
0.00132086
0.00132087
0.00132065
0.00132048
0.00132016
0.00132011
0.00132
0.00131979
0.00131972
0.0013197
0.00131935
0.00131947
0.00132011
0.00131999
0.00131993
0.00131979
0.00131935
0.00118147
0.00122514
0.00126608
0.00129582
0.00131183
0.00131701
0.0013175
0.00131786
0.00131904
0.00131898
0.0013189
0.00131878
0.00131845
0.00131775
0.00131738
0.00131762
0.00131751
0.00131763
0.00131784
0.00131769
0.00131749
0.00131742
0.00131699
0.00131712
0.0013174
0.00131683
0.001317
0.00131786
0.00131809
0.00131812
0.00131789
0.00131804
0.00131821
0.00131847
0.00131836
0.00131884
0.00131929
0.00131926
0.00131964
0.00132005
0.00132018
0.00132019
0.00132023
0.00132014
0.00132015
0.00131985
0.00131997
0.00132046
0.0013207
0.00132068
0.00132071
0.0013203
0.00132027
0.00132081
0.00132082
0.00132083
0.00132082
0.00132049
0.00132051
0.00132069
0.00132073
0.00132071
0.00132038
0.00132031
0.00131991
0.00132014
0.00132082
0.00132085
0.00132083
0.00132058
0.00132052
0.00132036
0.00131989
0.00132005
0.00132067
0.00132044
0.00132046
0.0013205
0.00132052
0.0013203
0.00132013
0.00131957
0.00131962
0.00132024
0.00132032
0.00132032
0.00132002
0.00132008
0.00131994
0.00131946
0.00118138
0.00122522
0.00126614
0.00129584
0.00131197
0.00131725
0.00131881
0.00131883
0.00131872
0.00131861
0.00131779
0.00131762
0.0013189
0.0013195
0.00131893
0.00131907
0.00131961
0.00131954
0.00131928
0.00131866
0.00131849
0.00131838
0.00131801
0.00131787
0.00131834
0.00131847
0.00131836
0.00131787
0.0013181
0.00131843
0.00131807
0.00131811
0.00131844
0.00131869
0.00131912
0.00131944
0.00131959
0.00131923
0.00131963
0.00132037
0.00132067
0.00132089
0.00132038
0.00132071
0.00132108
0.00132107
0.00132071
0.00132077
0.00132103
0.00132115
0.0013212
0.00132066
0.00132082
0.00132089
0.00132082
0.00132066
0.00132074
0.00132106
0.00132083
0.00132081
0.0013208
0.00132073
0.00132008
0.00132016
0.00132062
0.00132029
0.00132028
0.00132025
0.00132023
0.00131979
0.00131994
0.00132018
0.0013199
0.00131971
0.00132004
0.00132056
0.00132036
0.00132033
0.00132027
0.00131979
0.00131968
0.00132005
0.0013201
0.00132014
0.00132001
0.00131963
0.0013199
0.00132043
0.0013203
0.00131978
0.00118145
0.00122523
0.00126628
0.00129526
0.00131187
0.00131932
0.001321
0.0013215
0.00132135
0.00132118
0.00132092
0.00132082
0.00132072
0.00132054
0.00132038
0.00132009
0.0013196
0.00131937
0.00131934
0.00131882
0.00131889
0.00131896
0.00131875
0.0013187
0.00131858
0.00131833
0.0013184
0.00131864
0.00131863
0.00131881
0.00131899
0.00131925
0.00131926
0.00131877
0.00131891
0.00131925
0.00131933
0.00131942
0.00132018
0.0013209
0.0013211
0.0013213
0.00132089
0.00132119
0.00132164
0.00132158
0.00132172
0.00132168
0.00132128
0.00132125
0.00132156
0.00132126
0.00132159
0.00132196
0.00132157
0.00132154
0.00132142
0.00132159
0.00132162
0.00132151
0.00132147
0.00132126
0.00132058
0.00132056
0.00132055
0.00132008
0.00131988
0.00132024
0.00132061
0.00132037
0.00132043
0.00132052
0.00132052
0.0013204
0.00131991
0.00132018
0.00132082
0.00132086
0.00132072
0.00132045
0.00132038
0.00131975
0.00131983
0.00132055
0.00132057
0.00132044
0.00131984
0.00131999
0.00132022
0.00131947
0.00118143
0.0012252
0.00126622
0.00129581
0.00131186
0.00131812
0.00131899
0.00131896
0.00131886
0.0013182
0.00131796
0.00131877
0.00131949
0.00131946
0.00131913
0.00131898
0.00131877
0.00131856
0.00131904
0.00131924
0.00131903
0.00131903
0.00131881
0.00131819
0.00131836
0.00131855
0.00131859
0.0013187
0.00131874
0.0013189
0.00131872
0.00131879
0.00131887
0.00131853
0.00131892
0.00131945
0.0013195
0.00131967
0.00131988
0.00131993
0.00132054
0.00132123
0.00132078
0.00132113
0.00132175
0.00132172
0.00132182
0.00132195
0.00132205
0.00132198
0.00132183
0.00132113
0.00132091
0.00132082
0.00132068
0.00132027
0.0013205
0.00132097
0.00132094
0.0013209
0.00132022
0.00132042
0.00132079
0.00132076
0.00132072
0.00132035
0.00132027
0.0013198
0.00131989
0.0013209
0.00132096
0.00132078
0.00132047
0.00132009
0.00131997
0.00131976
0.00132004
0.001321
0.00132111
0.00132101
0.0013208
0.00132078
0.00132059
0.00131996
0.00132012
0.00132044
0.00132005
0.00132002
0.00131998
0.00131943
0.00118146
0.00122496
0.00126658
0.0012957
0.0013118
0.00131787
0.00131861
0.00131852
0.00131826
0.00131845
0.00131915
0.00131892
0.00131863
0.0013179
0.001318
0.00131845
0.00131807
0.00131798
0.00131768
0.00131738
0.00131689
0.00131701
0.00131719
0.00131702
0.00131702
0.00131694
0.00131664
0.00131678
0.00131762
0.001318
0.00131813
0.00131836
0.00131862
0.00131842
0.00131895
0.00131953
0.00131984
0.00132019
0.00132041
0.0013207
0.00132085
0.00132102
0.00132107
0.00132095
0.00132029
0.00132018
0.0013205
0.00132083
0.00132079
0.00132016
0.00132017
0.00132061
0.00132067
0.00132054
0.00131995
0.0013201
0.00132032
0.00131969
0.00131961
0.00132053
0.00132084
0.00132065
0.0013203
0.00132001
0.00131999
0.00131957
0.00131957
0.00132002
0.00131995
0.00132005
0.00132007
0.00131993
0.00131947
0.00131967
0.00132
0.00131939
0.00131932
0.00132014
0.00132036
0.00132026
0.00132022
0.00131973
0.00132
0.00132068
0.00132065
0.00132059
0.00132015
0.00131991
0.00131979
0.00131936
0.00118148
0.00122513
0.00126625
0.00129572
0.00131214
0.00131819
0.00131889
0.0013188
0.00131853
0.00131857
0.00131871
0.00131827
0.00131799
0.0013182
0.00131828
0.00131763
0.00131775
0.00131835
0.00131779
0.00131795
0.00131804
0.00131782
0.00131769
0.00131708
0.00131728
0.00131747
0.00131688
0.00131722
0.00131757
0.0013177
0.00131771
0.00131795
0.00131878
0.00131938
0.00131969
0.00131975
0.00132
0.00132037
0.00132073
0.00132097
0.00132118
0.0013211
0.0013204
0.00132035
0.00132048
0.00132018
0.00132054
0.0013213
0.00132135
0.00132139
0.00132113
0.00132127
0.0013213
0.00132117
0.00132065
0.00132071
0.00132075
0.00132031
0.00132012
0.00132052
0.00132083
0.00132064
0.00132016
0.00131996
0.00132042
0.00132051
0.00132032
0.0013197
0.00131961
0.00132008
0.00132031
0.0013202
0.00131988
0.00132016
0.00132023
0.00132001
0.00131998
0.00131969
0.00131994
0.00132059
0.00131997
0.0013199
0.00132044
0.00132068
0.00132053
0.00131997
0.0013201
0.00132024
0.00132008
0.00131955
0.0011814
0.00122526
0.00126615
0.00129579
0.00131204
0.00131825
0.00131953
0.00131959
0.00131935
0.00131904
0.00131866
0.00131876
0.00131931
0.00131949
0.00131953
0.0013189
0.00131867
0.00131844
0.00131787
0.00131785
0.0013182
0.00131763
0.00131737
0.00131741
0.00131731
0.0013177
0.00131803
0.00131802
0.00131821
0.00131848
0.00131884
0.00131907
0.00131935
0.00131953
0.00131979
0.00132003
0.00132028
0.00132034
0.00132021
0.00132019
0.00132021
0.00132025
0.00132039
0.00132026
0.00132066
0.00132098
0.00132098
0.00132075
0.00132076
0.00132125
0.00132101
0.00132129
0.00132167
0.00132164
0.0013216
0.00132123
0.00132066
0.00132063
0.00132067
0.00132017
0.00132003
0.00132022
0.00132002
0.00132031
0.00132105
0.00132094
0.00132077
0.00132006
0.00131996
0.00132071
0.00132085
0.00132065
0.00132002
0.00131995
0.0013204
0.0013205
0.00132032
0.0013196
0.00131951
0.00132019
0.00132031
0.00132018
0.00131982
0.00132006
0.00132042
0.00132034
0.00132028
0.00131986
0.00131972
0.00131927
0.00118145
0.00122523
0.00126635
0.00129519
0.0013121
0.00131929
0.00132057
0.00132046
0.00132002
0.00132013
0.00132043
0.00131957
0.00131949
0.00131973
0.00131896
0.00131898
0.00131922
0.00131889
0.00131865
0.00131792
0.00131801
0.00131832
0.00131749
0.00131736
0.00131798
0.0013181
0.001318
0.00131819
0.00131843
0.00131862
0.00131844
0.00131862
0.0013188
0.00131914
0.00131925
0.0013198
0.00132047
0.00132087
0.00132123
0.00132079
0.00132117
0.0013216
0.00132176
0.00132191
0.00132147
0.00132177
0.00132222
0.00132219
0.0013222
0.00132221
0.00132226
0.00132217
0.00132201
0.00132129
0.00132102
0.00132127
0.00132147
0.00132127
0.00132055
0.00132061
0.00132122
0.00132122
0.0013212
0.00132093
0.00132073
0.00132039
0.00132007
0.00132032
0.00132059
0.00132036
0.00132042
0.00132056
0.00132042
0.00132027
0.00131993
0.00132022
0.00132072
0.0013207
0.00132067
0.00132002
0.00132021
0.00132048
0.00132044
0.00132042
0.00131999
0.00131982
0.00132004
0.00132014
0.00132
0.00131951
0.00118145
0.00122509
0.00126626
0.00129606
0.00131193
0.00131729
0.00131856
0.00131857
0.00131796
0.00131811
0.00131816
0.00131758
0.00131758
0.00131745
0.00131677
0.00131675
0.00131728
0.00131671
0.00131681
0.00131696
0.00131615
0.00131591
0.00131633
0.00131621
0.0013166
0.00131735
0.00131694
0.00131734
0.00131769
0.00131786
0.00131777
0.00131821
0.00131871
0.00131898
0.00131915
0.00131975
0.00132042
0.00132036
0.0013209
0.00132143
0.00132164
0.00132192
0.00132217
0.00132241
0.00132246
0.00132248
0.0013221
0.00132229
0.00132241
0.00132236
0.0013223
0.00132162
0.0013213
0.00132139
0.00132161
0.0013214
0.00132079
0.00132062
0.00132109
0.00132118
0.00132097
0.0013206
0.00132028
0.00132052
0.00132061
0.00132047
0.00132016
0.00132027
0.00132069
0.00132048
0.00132059
0.0013206
0.00132045
0.00132016
0.00131977
0.00131985
0.00131974
0.00132006
0.00132076
0.00132023
0.00132048
0.00132094
0.00132098
0.00132084
0.00132044
0.00132016
0.00132049
0.00132086
0.0013207
0.00132005
0.00118145
0.00122525
0.0012663
0.00129532
0.00131185
0.00131947
0.00132104
0.00132094
0.00132055
0.00132057
0.00132076
0.00131995
0.00131994
0.00131997
0.0013194
0.00131922
0.00131883
0.00131809
0.00131799
0.00131817
0.00131757
0.00131757
0.0013177
0.00131774
0.00131759
0.00131753
0.00131762
0.00131759
0.00131785
0.00131819
0.00131849
0.00131895
0.00131936
0.00131978
0.00132011
0.00132047
0.0013208
0.00132094
0.00132081
0.00132092
0.00132103
0.0013206
0.00132079
0.00132164
0.00132198
0.001322
0.00132194
0.00132182
0.00132116
0.0013213
0.00132169
0.00132103
0.00132099
0.00132169
0.00132175
0.00132159
0.00132152
0.00132122
0.00132104
0.00132055
0.00132057
0.0013214
0.00132153
0.00132136
0.00132082
0.00132105
0.00132121
0.00132116
0.00132111
0.00132032
0.00132039
0.00132051
0.00132044
0.0013204
0.00131981
0.00132019
0.00132072
0.00132069
0.00132064
0.00132001
0.00132022
0.00132061
0.00132029
0.00132027
0.00132023
0.00132
0.00131966
0.00131987
0.00132
0.00131945
0.00118154
0.00122528
0.00126596
0.00129574
0.00131218
0.00131784
0.00131957
0.00131955
0.00131877
0.00131848
0.00131868
0.00131875
0.00131838
0.0013176
0.00131751
0.00131796
0.00131778
0.00131738
0.0013166
0.00131654
0.0013165
0.00131586
0.00131587
0.00131632
0.00131626
0.00131611
0.0013164
0.00131682
0.00131649
0.00131698
0.00131774
0.00131756
0.0013181
0.00131909
0.00131969
0.00132014
0.00132047
0.00132102
0.00132148
0.00132176
0.00132195
0.00132222
0.00132222
0.00132231
0.00132241
0.00132231
0.00132147
0.00132108
0.00132129
0.00132109
0.00132143
0.00132169
0.00132156
0.00132147
0.00132109
0.0013215
0.00132158
0.00132162
0.00132262
0.00132273
0.00132249
0.00132201
0.0013218
0.00132191
0.00132188
0.00132171
0.00132182
0.00132182
0.00132166
0.0013216
0.00132132
0.00132053
0.00132037
0.00132065
0.00132069
0.00132064
0.00132016
0.00132018
0.0013202
0.0013197
0.00131975
0.0013205
0.00132072
0.00132058
0.00132035
0.00132003
0.00132011
0.00132017
0.00132001
0.00131949
0.00118146
0.0012253
0.00126626
0.00129531
0.0013116
0.00131942
0.00132161
0.00132155
0.0013213
0.00132113
0.00132075
0.00132068
0.00132054
0.00132016
0.00131972
0.00131928
0.00131878
0.00131781
0.00131757
0.00131774
0.00131731
0.00131698
0.00131672
0.00131641
0.0013167
0.00131703
0.00131715
0.00131736
0.00131737
0.00131773
0.00131801
0.00131853
0.00131897
0.00131928
0.00131979
0.00132024
0.00132073
0.00132113
0.00132149
0.00132177
0.00132185
0.00132152
0.00132109
0.00132143
0.00132171
0.00132165
0.00132138
0.00132114
0.00132122
0.0013209
0.00132116
0.00132164
0.00132147
0.00132102
0.00132092
0.00132158
0.00132218
0.00132216
0.00132137
0.00132133
0.00132171
0.00132113
0.00132123
0.00132158
0.00132112
0.00132105
0.001321
0.00132083
0.00132067
0.00132055
0.00131998
0.00132003
0.00132057
0.00132061
0.00132059
0.00132039
0.00131987
0.00132007
0.00132055
0.00132041
0.00132041
0.00132044
0.0013204
0.00131967
0.00131959
0.00132001
0.00131963
0.00131966
0.00132006
0.00131955
0.00118145
0.00122526
0.00126625
0.00129543
0.00131156
0.00131967
0.00132158
0.00132149
0.00132118
0.00132112
0.00132096
0.0013207
0.00132043
0.00131948
0.00131937
0.00131926
0.00131828
0.00131816
0.00131827
0.00131728
0.00131706
0.00131728
0.00131716
0.00131695
0.00131701
0.00131717
0.00131727
0.00131749
0.00131754
0.00131794
0.00131833
0.00131877
0.0013192
0.00131966
0.00132018
0.00132068
0.00132108
0.0013212
0.00132122
0.00132134
0.00132151
0.00132141
0.00132132
0.00132145
0.00132138
0.00132135
0.00132119
0.00132153
0.00132208
0.00132206
0.00132201
0.00132174
0.00132126
0.00132126
0.00132156
0.00132173
0.00132213
0.0013216
0.00132182
0.00132208
0.00132159
0.00132176
0.00132182
0.00132161
0.00132133
0.00132085
0.00132085
0.00132084
0.00132041
0.00132042
0.00132116
0.00132124
0.00132113
0.00132109
0.00132091
0.00132047
0.00132037
0.00132054
0.00132047
0.00132045
0.00132039
0.0013199
0.00132015
0.00132052
0.00132049
0.00132046
0.00131978
0.00131991
0.00132013
0.00131946
0.00118146
0.00122529
0.00126628
0.00129521
0.00131179
0.00131929
0.00132094
0.00132133
0.00132109
0.00132034
0.00132034
0.00132029
0.00131989
0.00131922
0.00131895
0.00131889
0.00131787
0.00131752
0.00131759
0.00131725
0.00131704
0.00131668
0.00131619
0.00131634
0.0013165
0.00131623
0.00131636
0.00131658
0.001317
0.00131742
0.00131799
0.00131838
0.00131836
0.00131863
0.00131926
0.00131963
0.00132051
0.00132137
0.00132187
0.00132231
0.00132241
0.0013227
0.00132277
0.00132266
0.00132247
0.00132221
0.00132199
0.00132145
0.00132104
0.00132157
0.00132186
0.00132178
0.00132168
0.00132097
0.00132091
0.0013217
0.00132257
0.00132241
0.00132171
0.00132188
0.00132213
0.0013216
0.00132178
0.00132187
0.00132164
0.0013212
0.00132096
0.0013211
0.00132109
0.00132072
0.0013208
0.00132095
0.00132037
0.0013206
0.00132079
0.00132062
0.00132028
0.00132006
0.00132042
0.00132063
0.00132054
0.00132051
0.00132029
0.00131961
0.00131945
0.00131973
0.00131974
0.00131973
0.0013197
0.00131921
0.00118141
0.00122548
0.00126595
0.0012955
0.00131201
0.00131886
0.00131995
0.00131979
0.0013195
0.00131905
0.0013191
0.00131897
0.00131853
0.00131777
0.0013176
0.00131778
0.00131697
0.00131693
0.00131687
0.00131649
0.00131617
0.00131582
0.00131614
0.00131601
0.00131638
0.00131666
0.00131677
0.00131702
0.00131717
0.00131764
0.0013181
0.00131862
0.00131914
0.00131968
0.00132019
0.0013207
0.00132107
0.00132144
0.00132178
0.00132193
0.00132194
0.00132203
0.00132184
0.00132165
0.00132166
0.0013215
0.00132168
0.00132174
0.00132158
0.00132131
0.0013211
0.00132244
0.00132369
0.00132358
0.00132333
0.00132338
0.00132374
0.00132362
0.00132343
0.00132254
0.00132236
0.00132249
0.00132229
0.00132215
0.00132213
0.0013221
0.00132191
0.00132152
0.0013216
0.0013218
0.00132174
0.0013217
0.0013215
0.00132141
0.0013207
0.00132078
0.00132088
0.00132044
0.00132044
0.00132039
0.00132015
0.00131987
0.00131973
0.00131964
0.00131973
0.00131983
0.00131974
0.00131966
0.0013196
0.00131914
0.00118148
0.00122518
0.00126618
0.00129577
0.00131205
0.00131767
0.00131826
0.00131785
0.00131786
0.00131835
0.00131818
0.00131779
0.00131734
0.00131667
0.00131676
0.00131713
0.0013167
0.00131636
0.00131571
0.00131579
0.00131716
0.00131712
0.00131667
0.00131665
0.00131661
0.00131652
0.00131636
0.00131647
0.0013167
0.00131713
0.00131771
0.00131829
0.00131892
0.00131945
0.00131991
0.00131983
0.00132051
0.00132128
0.00132173
0.00132216
0.00132211
0.00132233
0.00132249
0.00132246
0.00132186
0.00132187
0.00132234
0.00132245
0.00132231
0.00132222
0.00132203
0.0013218
0.00132157
0.00132104
0.00132085
0.00132065
0.00132083
0.00132092
0.00132077
0.00132074
0.00132043
0.00132025
0.00132015
0.00132005
0.00131964
0.00131982
0.00132028
0.00131997
0.00131967
0.00131994
0.00132071
0.00132049
0.00132066
0.00132084
0.00132074
0.00132067
0.00132012
0.0013203
0.00132079
0.00132054
0.00132061
0.00132047
0.00132031
0.00131988
0.00131992
0.00131999
0.00131946
0.00131967
0.00132002
0.00131934
0.00118146
0.00122523
0.00126635
0.00129512
0.0013121
0.00131925
0.00132038
0.00132029
0.00132022
0.00131988
0.00131926
0.00131926
0.00131949
0.00131898
0.00131863
0.00131819
0.00131784
0.00131737
0.001317
0.00131641
0.00131642
0.00131689
0.00131649
0.00131641
0.00131656
0.00131665
0.00131675
0.00131699
0.00131704
0.00131744
0.00131779
0.00131758
0.00131831
0.0013192
0.00131994
0.00132065
0.00132086
0.00132146
0.00132187
0.00132207
0.00132226
0.00132242
0.00132249
0.00132255
0.00132245
0.00132202
0.00132153
0.00132173
0.00132211
0.00132198
0.00132188
0.00132133
0.00132166
0.0013233
0.00132329
0.0013232
0.00132285
0.00132313
0.00132347
0.00132305
0.00132296
0.00132286
0.00132243
0.00132256
0.00132267
0.0013219
0.00132172
0.00132175
0.00132121
0.00132126
0.00132168
0.00132118
0.00132136
0.00132183
0.00132162
0.00132172
0.00132177
0.00132159
0.00132166
0.00132166
0.00132152
0.00132139
0.00132044
0.00132019
0.00132037
0.00132042
0.00132029
0.00132005
0.00131994
0.00131929
0.00118145
0.00122525
0.00126627
0.00129533
0.00131171
0.00131954
0.00132105
0.00132052
0.00132064
0.00132083
0.00132021
0.00131998
0.00131954
0.00131911
0.00131845
0.00131838
0.00131846
0.00131739
0.00131703
0.00131724
0.00131695
0.00131663
0.0013164
0.00131681
0.00131701
0.00131684
0.00131712
0.0013173
0.00131756
0.00131809
0.00131855
0.0013189
0.00131934
0.00131991
0.00132039
0.00132045
0.00132092
0.00132131
0.00132107
0.0013215
0.00132242
0.00132278
0.00132295
0.00132261
0.00132243
0.00132243
0.00132218
0.0013225
0.00132277
0.00132267
0.00132256
0.0013218
0.00132191
0.00132325
0.00132314
0.00132347
0.00132388
0.00132357
0.00132344
0.00132332
0.00132321
0.00132265
0.00132282
0.00132299
0.00132215
0.00132211
0.00132232
0.00132164
0.00132175
0.00132216
0.00132184
0.00132198
0.00132201
0.0013217
0.00132189
0.00132194
0.00132179
0.00132174
0.00132118
0.00132129
0.00132132
0.00132112
0.00132112
0.00132113
0.00132101
0.00132027
0.00132001
0.00132025
0.00132029
0.00131975
0.0011815
0.00122508
0.00126624
0.00129597
0.00131161
0.00131804
0.00131892
0.00131863
0.00131845
0.00131799
0.00131789
0.00131767
0.00131684
0.00131644
0.00131722
0.00131748
0.00131689
0.00131724
0.00131787
0.00131742
0.00131711
0.00131676
0.00131654
0.00131624
0.00131618
0.00131623
0.00131605
0.0013165
0.00131702
0.0013174
0.00131808
0.00131868
0.00131938
0.00132001
0.00132047
0.00132103
0.00132146
0.00132156
0.00132108
0.00132152
0.00132221
0.00132215
0.00132259
0.00132283
0.00132276
0.00132287
0.00132275
0.00132221
0.0013222
0.00132241
0.00132174
0.00132152
0.00132162
0.00132176
0.00132153
0.00132089
0.00132111
0.00132148
0.00132115
0.00132111
0.00132099
0.00132056
0.00132042
0.00132133
0.00132164
0.00132149
0.00132136
0.0013209
0.00132072
0.00132048
0.00132079
0.00132097
0.00132083
0.00132049
0.00132053
0.00132071
0.00132002
0.00132001
0.00132046
0.00132038
0.00132037
0.00132033
0.00132013
0.00131972
0.00132009
0.0013205
0.00132044
0.00132042
0.00132021
0.00131949
0.00118141
0.00122537
0.00126608
0.00129543
0.00131218
0.00131866
0.00132023
0.00132007
0.00131955
0.00131924
0.00131925
0.00131897
0.00131865
0.00131831
0.00131801
0.00131757
0.0013172
0.00131664
0.00131646
0.00131632
0.0013159
0.00131533
0.00131532
0.00131587
0.00131523
0.00131535
0.0013162
0.00131668
0.00131704
0.0013176
0.00131799
0.00131773
0.0013182
0.00131902
0.00131982
0.00132046
0.00132105
0.00132168
0.00132208
0.00132238
0.00132221
0.00132227
0.00132232
0.00132214
0.00132158
0.00132163
0.00132187
0.00132185
0.00132179
0.00132113
0.00132122
0.00132203
0.00132195
0.00132165
0.00132087
0.00132077
0.001321
0.00132036
0.00132037
0.00132087
0.00132058
0.00132067
0.00132079
0.00132053
0.00132054
0.00132063
0.00132047
0.00132025
0.00131959
0.00131969
0.0013203
0.00132024
0.00131998
0.0013201
0.00132027
0.00131956
0.00131973
0.00132015
0.00132002
0.00131998
0.00131962
0.00132001
0.00132051
0.00132043
0.0013204
0.00132028
0.00132025
0.00132011
0.00131995
0.00131911
0.00118145
0.00122524
0.00126632
0.00129519
0.001312
0.00131926
0.00132045
0.00132031
0.00131996
0.00132004
0.00132025
0.00131939
0.00131934
0.00131944
0.00131908
0.00131866
0.00131829
0.00131797
0.00131731
0.00131692
0.00131656
0.00131605
0.00131621
0.00131657
0.00131647
0.00131652
0.00131659
0.00131688
0.00131714
0.00131766
0.00131807
0.00131855
0.00131909
0.00131967
0.00132012
0.0013201
0.00132056
0.00132112
0.00132142
0.00132188
0.00132227
0.00132251
0.00132276
0.00132282
0.00132276
0.00132255
0.00132194
0.00132144
0.00132174
0.00132203
0.00132184
0.00132156
0.00132128
0.00132142
0.00132152
0.00132132
0.00132116
0.00132059
0.00132068
0.00132088
0.00132053
0.00132027
0.00132058
0.00132112
0.00132077
0.00132083
0.0013208
0.0013206
0.00131995
0.00131984
0.00131997
0.00131946
0.00131943
0.00132039
0.00132068
0.00132052
0.00132047
0.00132037
0.00132037
0.00132035
0.00132023
0.00131964
0.00131929
0.00131988
0.00132021
0.00132006
0.00131956
0.0013196
0.00132004
0.00131941
0.00118145
0.00122526
0.00126625
0.00129542
0.00131153
0.00131963
0.00132152
0.0013216
0.0013213
0.00132042
0.00132038
0.00132035
0.00131949
0.00131943
0.00131932
0.00131831
0.00131815
0.00131821
0.00131715
0.00131679
0.00131691
0.00131663
0.00131627
0.00131639
0.0013168
0.00131669
0.00131698
0.00131713
0.00131745
0.00131795
0.00131859
0.00131932
0.0013201
0.00132065
0.00132083
0.00132073
0.00132106
0.0013215
0.00132195
0.00132232
0.0013226
0.0013229
0.00132297
0.00132302
0.00132293
0.00132233
0.00132239
0.00132247
0.00132239
0.0013223
0.00132164
0.00132138
0.00132257
0.001324
0.00132351
0.00132371
0.00132396
0.00132365
0.00132353
0.00132329
0.00132322
0.00132305
0.00132302
0.00132289
0.00132255
0.00132226
0.00132203
0.00132144
0.00132157
0.00132201
0.00132158
0.00132155
0.00132147
0.00132148
0.00132131
0.00132074
0.00132085
0.00132111
0.00132094
0.00132091
0.00132092
0.00132087
0.00132016
0.00132024
0.00132077
0.00132076
0.00132064
0.00132059
0.00132041
0.00131944
0.00118145
0.00122525
0.00126627
0.00129533
0.00131171
0.00131955
0.00132106
0.00132053
0.00132065
0.00132085
0.00132011
0.00131997
0.00131983
0.00131937
0.00131859
0.00131841
0.00131847
0.0013174
0.00131703
0.00131712
0.00131657
0.00131667
0.00131687
0.00131629
0.00131652
0.00131675
0.0013169
0.0013172
0.00131744
0.00131794
0.0013184
0.00131892
0.00131901
0.00131945
0.00132004
0.00132043
0.00132097
0.00132136
0.00132114
0.0013215
0.00132247
0.00132286
0.00132293
0.00132261
0.00132243
0.00132243
0.00132226
0.00132256
0.00132272
0.0013226
0.00132249
0.00132182
0.00132207
0.00132341
0.00132334
0.00132298
0.00132315
0.0013233
0.00132318
0.00132307
0.0013222
0.0013222
0.00132249
0.00132178
0.00132189
0.0013222
0.00132173
0.00132165
0.00132154
0.00132115
0.00132096
0.00132142
0.00132166
0.00132146
0.00132144
0.00132142
0.00132135
0.00132122
0.00132094
0.00132007
0.00131995
0.00132033
0.00131984
0.00132002
0.00132046
0.00132025
0.00132035
0.00132039
0.00132024
0.00131945
0.00118146
0.00122523
0.00126636
0.00129512
0.00131211
0.00131919
0.00132033
0.00132066
0.00132058
0.00131992
0.00131981
0.00131957
0.00131879
0.00131863
0.00131879
0.00131848
0.00131814
0.00131761
0.00131719
0.00131656
0.00131659
0.0013167
0.00131635
0.00131587
0.00131567
0.00131584
0.00131563
0.00131586
0.00131686
0.0013177
0.00131822
0.00131879
0.00131939
0.00132004
0.00132076
0.00132138
0.00132191
0.00132226
0.00132225
0.0013219
0.00132198
0.00132218
0.0013222
0.00132226
0.00132226
0.00132213
0.00132156
0.00132181
0.00132225
0.0013222
0.00132211
0.00132144
0.00132182
0.00132335
0.00132329
0.00132309
0.0013228
0.001323
0.00132328
0.00132318
0.00132307
0.00132234
0.00132234
0.00132245
0.00132235
0.00132227
0.001322
0.00132187
0.0013214
0.00132096
0.00132131
0.00132158
0.00132152
0.00132147
0.00132089
0.00132073
0.00132083
0.00132058
0.0013209
0.00132113
0.00132109
0.00132107
0.00132078
0.00132078
0.00132061
0.00131999
0.00131992
0.00132024
0.00132023
0.00131974
0.00118149
0.00122515
0.00126623
0.00129573
0.00131196
0.0013179
0.00131872
0.00131853
0.001318
0.00131801
0.0013185
0.00131826
0.00131797
0.00131737
0.00131703
0.00131644
0.00131647
0.00131663
0.00131573
0.00131548
0.00131608
0.00131662
0.00131643
0.00131564
0.00131559
0.00131607
0.00131625
0.00131628
0.00131686
0.00131753
0.00131806
0.00131872
0.00131923
0.00131993
0.00132053
0.00132105
0.00132093
0.00132133
0.00132168
0.00132153
0.00132211
0.00132266
0.00132258
0.00132282
0.00132291
0.00132291
0.00132274
0.00132277
0.00132279
0.00132239
0.00132245
0.00132249
0.00132236
0.00132224
0.00132168
0.00132152
0.00132123
0.00132076
0.00132021
0.00132058
0.00132108
0.00132102
0.00132093
0.00132027
0.00132042
0.0013211
0.00132107
0.0013211
0.00132091
0.00132039
0.0013203
0.00132072
0.00132055
0.00132092