/*--------------------------------*- C++ -*----------------------------------*\
  =========                 |
  \\      /  F ield         | OpenFOAM: The Open Source CFD Toolbox
   \\    /   O peration     | Website:  https://openfoam.org
    \\  /    A nd           | Version:  11
     \\/     M anipulation  |
\*---------------------------------------------------------------------------*/
FoamFile
{
    format      ascii;
    class       volScalarField;
    location    "0.062";
    object      omega;
}
// * * * * * * * * * * * * * * * * * * * * * * * * * * * * * * * * * * * * * //

dimensions      [0 0 -1 0 0 0 0];

internalField   nonuniform List<scalar> 
287084
(
54.9931
56.0058
56.9116
57.5248
57.838
57.934
57.9411
57.9381
57.9289
57.9341
57.9479
57.9414
57.9461
57.9487
57.9468
57.946
57.9378
57.9371
57.9321
57.9385
57.9554
57.9458
57.9512
57.955
57.9538
57.9536
57.9419
57.9469
57.9569
57.9544
57.9542
57.9551
57.9543
57.9428
57.9352
57.9328
57.9285
57.9299
57.9303
57.9277
57.9173
57.9189
57.9203
57.9158
57.9156
57.9124
57.9022
57.9035
57.9161
57.9062
57.9103
57.9226
57.9226
57.9219
57.9142
57.9045
57.9075
57.9112
57.9034
57.9104
57.9144
57.9078
57.9026
57.9117
57.9266
57.9271
57.927
57.9131
57.9163
57.925
57.9243
57.9237
57.9126
57.9148
57.9161
57.9218
57.9254
57.9238
57.9196
57.918
57.9255
57.9221
57.9284
57.9316
57.9299
57.9286
57.9109
57.9116
57.9174
57.9055
54.997
55.9996
56.897
57.5164
57.8357
57.9381
57.9457
57.936
57.9411
57.956
57.9558
57.9553
57.9489
57.9481
57.9449
57.9336
57.9356
57.9433
57.9426
57.938
57.9366
57.9546
57.9669
57.9671
57.9671
57.964
57.9587
57.9553
57.9447
57.9477
57.9565
57.9495
57.9516
57.9522
57.9488
57.9489
57.9449
57.9321
57.9286
57.9427
57.9465
57.9428
57.9343
57.9282
57.936
57.9429
57.9394
57.9399
57.94
57.9409
57.9366
57.9187
57.9201
57.9239
57.9193
57.9201
57.9175
57.9079
57.9068
57.917
57.9135
57.9219
57.9293
57.9259
57.9257
57.918
57.9247
57.9345
57.9317
57.9214
57.9211
57.9375
57.9429
57.9411
57.9388
57.9369
57.9206
57.9219
57.9325
57.9261
57.9255
57.9253
57.9195
57.9184
57.9292
57.9329
57.929
57.9295
57.9272
57.9101
54.9972
55.9987
56.8967
57.5146
57.8285
57.9454
57.9613
57.9589
57.9491
57.949
57.9574
57.9524
57.9534
57.9532
57.9495
57.9451
57.9536
57.9623
57.96
57.9563
57.9474
57.9498
57.9516
57.9611
57.9705
57.9699
57.9698
57.9636
57.9642
57.9626
57.9603
57.9572
57.9528
57.9493
57.9462
57.9401
57.936
57.9369
57.9358
57.9431
57.9456
57.9362
57.94
57.9413
57.9393
57.939
57.93
57.9359
57.9418
57.9402
57.9399
57.9339
57.9297
57.9191
57.9125
57.9205
57.9237
57.9138
57.9154
57.9242
57.9226
57.9249
57.9241
57.9166
57.9134
57.9265
57.9366
57.9364
57.9364
57.9316
57.9322
57.929
57.9216
57.9151
57.9188
57.9216
57.9162
57.9166
57.9202
57.9202
57.9107
57.9157
57.9313
57.9267
57.9242
57.9224
57.9199
57.9179
57.9148
57.906
54.9954
56.0014
56.896
57.5078
57.829
57.9502
57.9679
57.9655
57.9553
57.9541
57.9654
57.9669
57.9643
57.9527
57.9493
57.9609
57.9673
57.9639
57.9647
57.9647
57.9649
57.9595
57.957
57.9494
57.9509
57.9523
57.9502
57.9482
57.9448
57.9591
57.9671
57.9658
57.9655
57.9591
57.9561
57.9538
57.953
57.951
57.9352
57.9386
57.9433
57.9404
57.9312
57.9333
57.9418
57.9407
57.941
57.9383
57.9349
57.922
57.9251
57.9275
57.9265
57.9263
57.9198
57.9187
57.9123
57.9088
57.9232
57.9339
57.9325
57.9315
57.9193
57.917
57.9152
57.9252
57.936
57.9229
57.9287
57.9385
57.931
57.9242
57.9256
57.9278
57.9195
57.9241
57.9346
57.9415
57.943
57.9419
57.9416
57.9256
57.9267
57.9364
57.9362
57.9337
57.9215
57.9246
57.9269
57.914
54.9952
56.0019
56.8942
57.507
57.8341
57.9348
57.9361
57.9435
57.9587
57.9497
57.9458
57.9551
57.9596
57.9564
57.9456
57.9481
57.9549
57.9476
57.9488
57.9464
57.9447
57.9416
57.9467
57.952
57.9572
57.956
57.9518
57.9521
57.9531
57.9542
57.9525
57.949
57.9467
57.9448
57.9417
57.9354
57.9384
57.9576
57.9619
57.9598
57.958
57.9471
57.9433
57.9394
57.937
57.9366
57.9331
57.9317
57.9262
57.9173
57.9175
57.9223
57.9203
57.9187
57.9198
57.9164
57.9159
57.9122
57.9175
57.9202
57.9167
57.9168
57.9162
57.9113
57.9082
57.9117
57.9109
57.9173
57.9193
57.918
57.9144
57.9221
57.9409
57.9394
57.9368
57.9321
57.9312
57.9239
57.9219
57.9194
57.9182
57.9198
57.9194
57.9109
57.9146
57.9295
57.9238
57.9201
57.9192
57.9123
54.9947
56.0005
56.8968
57.5129
57.8228
57.9097
57.9134
57.9237
57.9538
57.9537
57.9516
57.9516
57.9472
57.9312
57.9288
57.9414
57.9409
57.9452
57.9489
57.9507
57.9486
57.9465
57.9413
57.9464
57.9524
57.94
57.9442
57.9593
57.9621
57.9594
57.9506
57.9516
57.9477
57.9461
57.9404
57.9455
57.9488
57.9438
57.945
57.9452
57.9454
57.9402
57.934
57.9281
57.926
57.9189
57.9204
57.927
57.931
57.9285
57.9257
57.9183
57.9194
57.9323
57.9316
57.9316
57.9312
57.9233
57.9243
57.9289
57.9286
57.9284
57.9207
57.9205
57.9141
57.9204
57.9358
57.9356
57.9355
57.9299
57.9267
57.9237
57.9166
57.9229
57.9366
57.9328
57.9344
57.9332
57.931
57.9262
57.9232
57.9137
57.9172
57.9322
57.9314
57.9313
57.9242
57.9234
57.9232
57.9152
54.9927
56.0019
56.8971
57.5122
57.8246
57.9154
57.9413
57.9432
57.9424
57.9421
57.9275
57.9285
57.9622
57.9747
57.9658
57.9727
57.9843
57.9848
57.9849
57.9756
57.9758
57.975
57.9651
57.9644
57.9769
57.9782
57.9753
57.9621
57.9647
57.9683
57.9538
57.9517
57.9566
57.9559
57.957
57.9574
57.9557
57.9404
57.9443
57.9549
57.9546
57.9541
57.9392
57.9426
57.9469
57.9436
57.9328
57.9337
57.938
57.9375
57.9373
57.9257
57.9282
57.9292
57.9269
57.9239
57.9271
57.9346
57.9308
57.9315
57.9292
57.9265
57.9146
57.9186
57.9297
57.9231
57.9244
57.9218
57.9188
57.9124
57.9176
57.923
57.916
57.9132
57.9231
57.9342
57.9316
57.9319
57.93
57.9158
57.9157
57.9281
57.9261
57.9239
57.9224
57.9165
57.924
57.9349
57.9321
57.9213
54.9942
56.0021
56.8986
57.498
57.8255
57.9637
57.9895
57.9993
57.9999
57.9987
57.9959
57.997
57.9981
57.9973
57.9973
57.9947
57.9875
57.9878
57.9912
57.9819
57.9855
57.9888
57.9854
57.9851
57.9831
57.9779
57.9792
57.9825
57.9809
57.9813
57.978
57.9752
57.9697
57.9518
57.9514
57.9551
57.9463
57.9423
57.9551
57.9633
57.9613
57.9599
57.9477
57.9507
57.9567
57.9514
57.9512
57.9503
57.9374
57.9371
57.9466
57.9379
57.9445
57.9516
57.9442
57.9448
57.9421
57.9446
57.9453
57.9432
57.9432
57.9395
57.925
57.9253
57.9258
57.9147
57.9121
57.923
57.9306
57.9275
57.9278
57.9279
57.928
57.9283
57.9195
57.9267
57.9376
57.9378
57.9378
57.9317
57.9303
57.9182
57.9219
57.936
57.9367
57.9363
57.9218
57.9252
57.9301
57.9147
54.9937
56.0011
56.8978
57.5097
57.8219
57.9331
57.9451
57.9443
57.9441
57.9306
57.9303
57.9559
57.9698
57.9746
57.9731
57.9742
57.9705
57.9699
57.9866
57.9926
57.9906
57.9901
57.99
57.979
57.9833
57.9865
57.986
57.9859
57.9834
57.9821
57.9719
57.9661
57.962
57.9501
57.9523
57.9563
57.9486
57.943
57.9407
57.9385
57.9482
57.957
57.9426
57.9469
57.9568
57.9543
57.9544
57.953
57.9523
57.9491
57.9447
57.9276
57.9228
57.9208
57.9174
57.9119
57.9195
57.9297
57.9291
57.9287
57.9154
57.9213
57.9294
57.9291
57.929
57.9206
57.9194
57.9117
57.9164
57.9382
57.9389
57.9359
57.9265
57.921
57.9219
57.9173
57.9245
57.9435
57.9439
57.9446
57.9399
57.9373
57.9338
57.9227
57.9276
57.9345
57.9272
57.9278
57.9265
57.9142
54.9941
55.9961
56.9061
57.5063
57.8198
57.9266
57.936
57.9349
57.9314
57.9402
57.9552
57.9555
57.9552
57.9418
57.949
57.9621
57.9567
57.9564
57.9563
57.9531
57.9459
57.9528
57.9584
57.9553
57.9534
57.9511
57.946
57.949
57.9626
57.9628
57.9629
57.9643
57.9611
57.9485
57.953
57.9574
57.9556
57.9553
57.9524
57.9516
57.9484
57.9453
57.9413
57.9347
57.9161
57.9144
57.9206
57.9225
57.9226
57.9089
57.9098
57.9179
57.9187
57.9179
57.904
57.908
57.913
57.9004
57.901
57.9229
57.9278
57.9242
57.9143
57.9114
57.915
57.9055
57.9071
57.9186
57.9173
57.9182
57.9189
57.9187
57.9083
57.9133
57.9204
57.9078
57.9084
57.9272
57.9302
57.9277
57.9239
57.9164
57.9252
57.9397
57.9381
57.9355
57.925
57.9222
57.9226
57.9131
54.9948
55.9993
56.8982
57.5076
57.8276
57.9333
57.9419
57.94
57.9366
57.9421
57.948
57.9409
57.9394
57.9503
57.9551
57.9463
57.9544
57.9712
57.9635
57.971
57.9756
57.9732
57.9729
57.9623
57.9672
57.9704
57.9565
57.9614
57.9644
57.9623
57.9566
57.9568
57.9666
57.9673
57.968
57.9596
57.9576
57.9605
57.9595
57.9548
57.9527
57.9444
57.9223
57.9208
57.9233
57.9126
57.919
57.9337
57.9322
57.9321
57.9282
57.9298
57.9303
57.9296
57.9179
57.9193
57.9207
57.9103
57.9082
57.9201
57.9268
57.9234
57.9106
57.9098
57.9228
57.9243
57.9215
57.9082
57.9091
57.9192
57.9211
57.9221
57.9175
57.9236
57.9248
57.9227
57.9231
57.9164
57.9224
57.937
57.9228
57.9231
57.9347
57.939
57.9364
57.9238
57.9272
57.9301
57.9267
57.9158
54.9931
56.0023
56.8959
57.5091
57.8251
57.9357
57.9542
57.9549
57.955
57.9508
57.9466
57.9554
57.9687
57.9768
57.9848
57.9767
57.9776
57.9771
57.9683
57.9727
57.9842
57.9718
57.97
57.9759
57.974
57.9811
57.9857
57.9846
57.9848
57.9828
57.9818
57.9788
57.9752
57.97
57.9665
57.9624
57.9584
57.9505
57.9394
57.9317
57.9256
57.921
57.9189
57.9149
57.9218
57.9255
57.9233
57.9169
57.918
57.9297
57.9226
57.9286
57.9364
57.9359
57.9357
57.9266
57.9162
57.9175
57.9194
57.908
57.9072
57.916
57.9117
57.9191
57.9326
57.9328
57.9322
57.9162
57.9166
57.9341
57.9357
57.9321
57.9186
57.9198
57.9291
57.9313
57.9286
57.9124
57.9131
57.9282
57.9296
57.9272
57.9197
57.9262
57.9336
57.9314
57.9281
57.9184
57.917
57.9102
54.9943
56.0018
56.8995
57.4955
57.829
57.9603
57.9801
57.9786
57.9713
57.9778
57.9876
57.9732
57.9769
57.9873
57.9748
57.9806
57.9905
57.9901
57.9901
57.9773
57.9838
57.9935
57.978
57.9788
57.9926
57.9935
57.9914
57.9932
57.9907
57.9858
57.9738
57.9694
57.9641
57.9613
57.9568
57.9598
57.9644
57.9634
57.9626
57.9456
57.9473
57.9505
57.9483
57.9472
57.9354
57.94
57.9474
57.9445
57.9443
57.9448
57.9461
57.9442
57.9392
57.9225
57.9206
57.9288
57.9336
57.9312
57.9157
57.92
57.9354
57.9341
57.9316
57.9265
57.9254
57.9181
57.9138
57.9221
57.9281
57.9255
57.9262
57.9268
57.927
57.9265
57.9193
57.9266
57.9371
57.9365
57.9361
57.9232
57.928
57.9337
57.9328
57.9326
57.922
57.9198
57.9259
57.9278
57.9252
57.9151
54.9941
55.9983
56.8991
57.5147
57.8208
57.9133
57.9329
57.9358
57.9265
57.9334
57.9379
57.931
57.9351
57.9366
57.9283
57.9343
57.9519
57.944
57.9516
57.9589
57.9462
57.9464
57.9603
57.9585
57.9675
57.9825
57.9715
57.9765
57.9786
57.9752
57.9652
57.9657
57.9664
57.9604
57.9537
57.9572
57.961
57.9507
57.9528
57.9561
57.9555
57.9559
57.9538
57.9531
57.9507
57.9478
57.9403
57.944
57.9459
57.9442
57.9429
57.9263
57.9225
57.9266
57.9322
57.93
57.914
57.914
57.9277
57.9294
57.9267
57.9166
57.9131
57.921
57.9236
57.9216
57.916
57.9204
57.9305
57.928
57.9295
57.9303
57.9293
57.9202
57.9135
57.9194
57.9171
57.9244
57.9394
57.9281
57.9343
57.9414
57.9418
57.9418
57.932
57.9272
57.9367
57.944
57.9404
57.9268
54.9943
56.002
56.8985
57.4981
57.8239
57.9658
57.9914
57.9904
57.9844
57.9886
57.9967
57.9839
57.9891
57.9946
57.9863
57.9863
57.9862
57.9775
57.9812
57.9905
57.9826
57.9861
57.9892
57.9918
57.992
57.9908
57.9876
57.9853
57.9857
57.986
57.9834
57.9807
57.9785
57.9765
57.9717
57.9675
57.9632
57.9552
57.9427
57.9371
57.9327
57.9194
57.921
57.9349
57.9381
57.9355
57.93
57.9287
57.9151
57.919
57.928
57.9142
57.9158
57.9318
57.9331
57.9308
57.9289
57.9233
57.9211
57.9143
57.9185
57.9369
57.9375
57.9376
57.9285
57.9347
57.9385
57.9383
57.9382
57.9222
57.9248
57.9281
57.9271
57.9269
57.9158
57.9258
57.937
57.9358
57.9348
57.9228
57.9285
57.9368
57.9312
57.9319
57.9306
57.9219
57.9162
57.9224
57.9248
57.9147
54.9965
56.002
56.8915
57.5085
57.8281
57.9271
57.9566
57.9584
57.9422
57.9416
57.9524
57.958
57.9558
57.9438
57.9494
57.9628
57.9632
57.9633
57.9536
57.9578
57.9615
57.9531
57.9576
57.9697
57.9682
57.9642
57.9687
57.9732
57.9604
57.9634
57.9704
57.9553
57.9564
57.9639
57.9642
57.9641
57.9565
57.9554
57.9552
57.9551
57.9515
57.9483
57.946
57.9465
57.9435
57.9362
57.9146
57.9091
57.9175
57.9124
57.9199
57.9257
57.9235
57.9199
57.9161
57.9287
57.9297
57.9348
57.9588
57.9614
57.9578
57.9457
57.9451
57.9525
57.9522
57.9494
57.9518
57.9525
57.9497
57.9493
57.9436
57.9274
57.9276
57.9358
57.9351
57.9328
57.9238
57.9249
57.9255
57.9164
57.9191
57.935
57.9393
57.9362
57.9282
57.9242
57.9268
57.9281
57.9249
57.9144
54.9947
56.0031
56.8975
57.4979
57.8185
57.9664
58.0029
58.0031
58.0031
58.0009
57.9973
58.002
58.0044
58.0012
57.9951
57.9918
57.9888
57.9759
57.9791
57.9895
57.9828
57.9777
57.9756
57.9744
57.9838
57.9895
57.9891
57.989
57.9814
57.9805
57.9759
57.9741
57.9706
57.9641
57.9621
57.9589
57.9578
57.955
57.9518
57.9486
57.9423
57.9274
57.9163
57.9214
57.9241
57.9202
57.9101
57.9073
57.9124
57.9048
57.9114
57.9224
57.919
57.9109
57.913
57.9294
57.9406
57.9438
57.9288
57.9311
57.9418
57.9293
57.9333
57.9423
57.9341
57.935
57.9324
57.93
57.9301
57.9266
57.9147
57.9185
57.932
57.9313
57.931
57.9266
57.9166
57.9235
57.934
57.9329
57.934
57.9334
57.9317
57.9163
57.9168
57.9277
57.9173
57.9188
57.9288
57.9169
54.9943
56.0022
56.8978
57.5005
57.818
57.972
58.0048
58.0046
58.001
58.0022
58.0035
58.0031
58.003
57.9891
57.9934
57.9975
57.9831
57.9882
57.9969
57.9816
57.9838
57.9946
57.9934
57.9913
57.9943
57.9969
57.9958
57.9955
57.9887
57.9881
57.985
57.9804
57.9762
57.9723
57.9696
57.9666
57.9619
57.952
57.9416
57.9352
57.9307
57.9217
57.915
57.9142
57.9126
57.9126
57.9077
57.9147
57.9262
57.9259
57.9258
57.9203
57.9121
57.9152
57.9212
57.9274
57.9406
57.9314
57.9383
57.9451
57.9373
57.9421
57.9444
57.9409
57.9331
57.9269
57.9291
57.93
57.9233
57.9255
57.9419
57.9434
57.9414
57.9413
57.9377
57.9292
57.9298
57.935
57.934
57.9342
57.9311
57.9205
57.9275
57.935
57.9342
57.9337
57.9199
57.9232
57.9277
57.9145
54.9947
56.003
56.8981
57.496
57.8231
57.9626
57.9885
57.9998
57.9998
57.9864
57.9916
57.9954
57.9927
57.9844
57.9864
57.9925
57.9764
57.9777
57.9873
57.9836
57.9821
57.9814
57.9773
57.9835
57.9873
57.9819
57.9827
57.9819
57.9838
57.9803
57.9777
57.9741
57.958
57.9518
57.9541
57.9468
57.9519
57.9576
57.957
57.9567
57.9499
57.9476
57.9434
57.9368
57.9296
57.9222
57.9169
57.9043
57.8991
57.9147
57.9208
57.92
57.9197
57.9071
57.9096
57.9298
57.9466
57.9467
57.9342
57.9406
57.9472
57.9384
57.9437
57.9467
57.9433
57.9321
57.9305
57.9359
57.9364
57.9312
57.933
57.9372
57.9258
57.9317
57.9359
57.9329
57.923
57.9213
57.9317
57.9357
57.9335
57.9305
57.927
57.9114
57.911
57.9213
57.9209
57.9209
57.9197
57.9088
54.9935
56.0069
56.8907
57.5035
57.8269
57.9516
57.9681
57.9659
57.9599
57.9569
57.9649
57.9669
57.9639
57.9536
57.9585
57.9696
57.9597
57.9664
57.9717
57.9705
57.967
57.9669
57.9829
57.9817
57.9897
57.9937
57.9923
57.992
57.9864
57.9857
57.983
57.9792
57.9755
57.9716
57.9673
57.9634
57.9574
57.9528
57.9487
57.9417
57.9336
57.9287
57.919
57.9114
57.9092
57.9069
57.9111
57.912
57.9094
57.9019
57.9011
57.939
57.9645
57.964
57.9606
57.9642
57.9744
57.9732
57.9694
57.9528
57.9532
57.9589
57.953
57.9519
57.9535
57.9542
57.9516
57.9444
57.9481
57.9534
57.9528
57.9528
57.9489
57.9478
57.9341
57.9365
57.9392
57.9315
57.9332
57.9303
57.9222
57.9189
57.9192
57.9175
57.9178
57.9181
57.919
57.9189
57.9157
57.9063
54.9949
56.0001
56.8969
57.5093
57.8257
57.9226
57.9302
57.9246
57.929
57.9419
57.9443
57.9416
57.9349
57.9297
57.9421
57.9567
57.9567
57.9573
57.9498
57.9608
57.9963
57.9995
57.9959
57.9968
57.9969
57.9946
57.9842
57.9794
57.979
57.9804
57.9804
57.9753
57.9707
57.966
57.9596
57.9454
57.9472
57.9507
57.9484
57.9471
57.9366
57.9333
57.9314
57.9277
57.914
57.915
57.9236
57.9256
57.9229
57.9195
57.9191
57.9158
57.9104
57.904
57.9053
57.9036
57.9086
57.9121
57.9108
57.9094
57.9074
57.9081
57.908
57.9057
57.8981
57.905
57.9159
57.9086
57.9039
57.9138
57.9309
57.9281
57.9318
57.936
57.9341
57.9309
57.9219
57.928
57.939
57.9326
57.9324
57.9321
57.9286
57.92
57.9218
57.9234
57.9131
57.9179
57.9253
57.9115
54.9944
56.0017
56.8998
57.4947
57.8304
57.961
57.9783
57.9774
57.9768
57.9764
57.9702
57.9766
57.9875
57.985
57.9853
57.9833
57.9839
57.9813
57.9813
57.9751
57.9826
57.9979
57.9951
57.9956
57.9974
57.9994
57.9982
57.9948
57.9857
57.9842
57.9786
57.9599
57.9613
57.9644
57.9635
57.9627
57.9514
57.9498
57.9464
57.9404
57.9362
57.933
57.9292
57.9266
57.9217
57.9102
57.9022
57.9088
57.9176
57.9155
57.9123
57.9048
57.9188
57.9576
57.9563
57.9562
57.953
57.9617
57.9705
57.9646
57.9658
57.9654
57.957
57.9611
57.9647
57.947
57.9464
57.9518
57.9395
57.9425
57.9532
57.9424
57.9476
57.9582
57.9557
57.9572
57.9587
57.9573
57.9577
57.958
57.9549
57.9514
57.9289
57.9267
57.9322
57.9329
57.9322
57.9238
57.9204
57.9093
54.9943
56.0021
56.8983
57.499
57.822
57.9692
57.994
57.9839
57.9907
57.9989
57.9893
57.9884
57.9883
57.9888
57.9814
57.9875
57.9968
57.9814
57.9832
57.994
57.9942
57.993
57.9928
58.0071
58.011
58.005
58.0046
58.0042
58.0006
57.9984
57.9946
57.9864
57.9798
57.9754
57.969
57.954
57.9496
57.9453
57.93
57.9316
57.9447
57.9442
57.9411
57.9266
57.9226
57.9242
57.9176
57.9248
57.9306
57.9294
57.9289
57.9152
57.9226
57.9565
57.9544
57.9639
57.9742
57.9713
57.9713
57.9683
57.9673
57.9588
57.9651
57.9699
57.9531
57.9551
57.9615
57.9472
57.9515
57.9615
57.9564
57.9594
57.9606
57.9564
57.9603
57.9616
57.9585
57.958
57.9477
57.9502
57.951
57.9491
57.95
57.9479
57.9436
57.9261
57.9236
57.9305
57.9307
57.921
54.9953
55.998
56.8988
57.513
57.8166
57.9329
57.9458
57.943
57.9436
57.9376
57.9398
57.9407
57.9303
57.9304
57.9571
57.9678
57.9642
57.9821
58.0022
58.001
58.0017
58
58.0002
57.9963
57.9967
57.9937
57.9855
57.9892
57.9909
57.9868
57.9858
57.9832
57.9826
57.9805
57.9717
57.9666
57.9602
57.9474
57.9281
57.9302
57.9371
57.9289
57.9325
57.9334
57.9287
57.9283
57.9272
57.9166
57.9184
57.9247
57.9083
57.9075
57.9134
57.9153
57.9156
57.9056
57.9135
57.9233
57.9198
57.922
57.9193
57.9118
57.913
57.9356
57.9419
57.9393
57.9349
57.9261
57.9258
57.9242
57.9326
57.9366
57.9344
57.9278
57.9301
57.9348
57.9205
57.9222
57.9337
57.9321
57.9326
57.9293
57.9219
57.9161
57.9271
57.9352
57.9335
57.9334
57.929
57.9139
54.9935
56.0046
56.8939
57.5022
57.831
57.9479
57.9761
57.9746
57.9634
57.9634
57.9729
57.9723
57.9723
57.9722
57.9737
57.9717
57.9721
57.9679
57.9708
57.9752
57.9732
57.9669
57.9731
57.9881
57.9745
57.9767
57.9906
57.9936
57.9916
57.9887
57.9843
57.9606
57.9578
57.9591
57.9596
57.9594
57.9541
57.9532
57.9494
57.9442
57.9314
57.9259
57.9216
57.913
57.9017
57.9035
57.9088
57.9074
57.9071
57.8953
57.9009
57.9188
57.9195
57.9159
57.9009
57.903
57.9112
57.8987
57.9024
57.9165
57.9119
57.9146
57.919
57.9171
57.9175
57.9179
57.9184
57.9167
57.9027
57.9076
57.9224
57.9214
57.9165
57.9197
57.924
57.9094
57.9146
57.924
57.9232
57.9233
57.9149
57.9243
57.9345
57.9321
57.932
57.9321
57.9317
57.9254
57.9203
57.905
54.9943
56.0019
56.8991
57.4963
57.8282
57.9618
57.9803
57.9793
57.9755
57.9827
57.9922
57.9801
57.9864
57.9953
57.9943
57.9932
57.9939
57.9951
57.988
57.9851
57.9841
57.9821
57.9927
58.0027
58.0007
58.0005
58.0007
58.0004
57.9932
57.9917
57.9857
57.9792
57.9743
57.9697
57.9622
57.9449
57.9407
57.9389
57.9363
57.9364
57.9365
57.9345
57.9319
57.9291
57.9251
57.9192
57.9047
57.8976
57.9076
57.9148
57.9127
57.9059
57.9042
57.9112
57.9156
57.9131
57.9091
57.9019
57.9081
57.9143
57.9077
57.9047
57.9161
57.9287
57.9239
57.9255
57.926
57.9247
57.9107
57.911
57.9157
57.9043
57.9058
57.9283
57.9332
57.9322
57.9324
57.9305
57.9314
57.9288
57.9238
57.9103
57.9062
57.9226
57.9284
57.9252
57.9141
57.917
57.9272
57.9133
54.9943
56.0022
56.8978
57.5007
57.8181
57.9724
58.0024
58.0037
58.0037
57.9903
57.9953
58.0005
57.9892
57.9952
57.9998
57.9861
57.9914
58.0007
57.9854
57.9868
57.9977
57.9942
57.991
57.9988
58.0081
58.0033
58.003
58.0025
58.0027
58.0021
58.0022
57.9999
57.9972
57.9924
57.9779
57.9588
57.9517
57.9478
57.9458
57.9454
57.943
57.9408
57.9368
57.934
57.9302
57.9182
57.9197
57.9217
57.9207
57.9205
57.9061
57.9045
57.9394
57.9699
57.9611
57.9679
57.9752
57.9698
57.9698
57.9692
57.971
57.9691
57.9708
57.9676
57.9586
57.9533
57.9514
57.9421
57.9473
57.9577
57.9502
57.9518
57.9483
57.9466
57.946
57.9359
57.939
57.9448
57.9436
57.9439
57.942
57.9403
57.9263
57.9298
57.9393
57.9404
57.9377
57.9338
57.9324
57.9127
54.9943
56.0021
56.8983
57.499
57.822
57.9694
57.9941
57.9841
57.9909
57.9992
57.9893
57.9919
57.9953
57.9924
57.9828
57.9879
57.997
57.9815
57.9831
57.9938
57.9877
57.9959
58.004
57.995
58.001
58.0038
58.0029
58.0027
57.9982
57.9981
57.9938
57.9868
57.9718
57.9653
57.9614
57.9537
57.9508
57.9462
57.9316
57.9318
57.9442
57.9443
57.9413
57.9268
57.9227
57.9242
57.9197
57.9258
57.9294
57.9278
57.9273
57.916
57.9263
57.9561
57.9561
57.953
57.9584
57.9635
57.9629
57.9627
57.9462
57.9494
57.9579
57.9436
57.948
57.9562
57.9482
57.9492
57.9463
57.9355
57.9347
57.9482
57.953
57.9513
57.9524
57.9499
57.9461
57.9439
57.9388
57.9219
57.9227
57.9329
57.9203
57.9248
57.9342
57.9311
57.9321
57.9327
57.9314
57.9135
54.9944
56.0016
56.8999
57.4946
57.8307
57.9596
57.9749
57.9832
57.9878
57.9794
57.9813
57.9817
57.9725
57.9766
57.9878
57.9873
57.9864
57.9824
57.9818
57.9777
57.9858
57.9932
57.9902
57.9795
57.9784
57.9842
57.9716
57.9714
57.987
57.9923
57.9895
57.9842
57.984
57.9815
57.9785
57.9762
57.9728
57.9664
57.9534
57.9357
57.9299
57.9275
57.9228
57.9203
57.9192
57.9148
57.9033
57.9109
57.9207
57.9204
57.9203
57.9088
57.9224
57.9553
57.9554
57.956
57.9523
57.9587
57.9663
57.9656
57.9653
57.9523
57.9542
57.9584
57.9573
57.9571
57.9522
57.95
57.9396
57.9335
57.9444
57.9504
57.9496
57.9493
57.9355
57.9345
57.9408
57.9349
57.9419
57.9466
57.9458
57.9458
57.9391
57.9387
57.9369
57.9239
57.9244
57.9327
57.9312
57.9205
54.9951
55.9996
56.898
57.5081
57.8241
57.9287
57.9408
57.9386
57.9305
57.9371
57.9531
57.9522
57.9521
57.9451
57.9447
57.9417
57.951
57.9611
57.9496
57.9527
57.973
57.9864
57.9886
57.975
57.9763
57.9867
57.9866
57.9806
57.9836
57.9868
57.9852
57.9848
57.9799
57.9794
57.976
57.9706
57.9525
57.9482
57.946
57.9343
57.9395
57.944
57.9359
57.9353
57.9345
57.9328
57.9312
57.9327
57.9339
57.9281
57.9299
57.9324
57.9315
57.931
57.9197
57.9188
57.9146
57.9045
57.8978
57.9112
57.9229
57.9228
57.9227
57.9109
57.9173
57.9337
57.9328
57.9318
57.9305
57.9223
57.9231
57.9347
57.9305
57.9391
57.9459
57.9341
57.9395
57.9433
57.9336
57.9379
57.9401
57.9367
57.9298
57.9236
57.931
57.9357
57.9404
57.9402
57.9355
57.9187
54.9969
56.0011
56.8923
57.5091
57.8271
57.9257
57.9555
57.9576
57.9546
57.9544
57.9517
57.9505
57.9376
57.9389
57.9625
57.9676
57.966
57.9655
57.9621
57.9506
57.949
57.9755
57.9878
57.9872
57.9868
57.9732
57.9758
57.9819
57.9776
57.9772
57.9752
57.965
57.9583
57.9611
57.9622
57.9583
57.9453
57.946
57.9463
57.9426
57.9441
57.9392
57.9367
57.9368
57.9366
57.9343
57.9329
57.9302
57.9265
57.9225
57.9116
57.9039
57.9103
57.9162
57.9145
57.9093
57.914
57.9179
57.9242
57.9393
57.9381
57.9358
57.9331
57.9364
57.9369
57.9345
57.925
57.9311
57.9361
57.9235
57.9296
57.9377
57.9381
57.9381
57.9231
57.9258
57.9379
57.94
57.9373
57.9346
57.933
57.9192
57.9229
57.9307
57.9289
57.9274
57.9154
57.9188
57.9219
57.9102
54.9965
56.002
56.8917
57.5086
57.8281
57.9271
57.9563
57.9579
57.943
57.9473
57.9515
57.9498
57.9493
57.9426
57.9571
57.9676
57.9657
57.9626
57.954
57.9666
57.9808
57.9791
57.9787
57.9772
57.9802
57.9802
57.9804
57.975
57.9723
57.9672
57.9541
57.9499
57.9621
57.9677
57.9657
57.9657
57.9617
57.9539
57.9441
57.9412
57.9381
57.9369
57.9332
57.9211
57.9116
57.9148
57.9183
57.9147
57.9057
57.9022
57.9193
57.9225
57.9233
57.9456
57.9538
57.9525
57.9517
57.937
57.9411
57.9518
57.9457
57.9461
57.9457
57.9387
57.9336
57.9331
57.9258
57.9321
57.9424
57.9413
57.9415
57.9398
57.9386
57.9227
57.9245
57.9325
57.9336
57.9338
57.9268
57.9264
57.9248
57.9253
57.925
57.9258
57.9226
57.9102
57.9139
57.9269
57.9252
57.915
54.9943
56.0022
56.8981
57.4994
57.8209
57.9697
57.9964
57.9946
57.9943
57.9872
57.9938
58.0003
57.9926
57.9975
58.0003
57.9971
57.9863
57.989
57.9967
57.9815
57.9839
57.9948
57.9858
57.9911
57.9955
57.9882
57.9924
57.9933
57.9894
57.9807
57.9767
57.9713
57.9543
57.9565
57.9608
57.9497
57.9425
57.9421
57.9457
57.9439
57.94
57.931
57.9282
57.9345
57.9269
57.933
57.9425
57.9293
57.9346
57.9413
57.9413
57.9413
57.9343
57.9326
57.9189
57.9198
57.9339
57.9306
57.9314
57.9314
57.9333
57.933
57.9342
57.9313
57.9212
57.9241
57.9332
57.9323
57.9262
57.926
57.9419
57.9434
57.9414
57.941
57.9315
57.9296
57.9338
57.9385
57.9361
57.9299
57.9287
57.9168
57.9216
57.9361
57.9369
57.9366
57.9215
57.9252
57.9304
57.915
54.9946
56.0033
56.8972
57.4987
57.8161
57.9708
58.0014
57.9967
57.9989
57.9993
57.9927
57.9967
58.0007
57.9997
57.9979
58.0001
58.0046
58.004
58.0033
58.0025
58.0039
58.0037
58.0038
57.9927
57.9966
57.9988
57.9927
57.9938
57.9934
57.9904
57.9877
57.9876
57.987
57.9818
57.9592
57.9572
57.9605
57.9603
57.9593
57.9411
57.9404
57.9428
57.9411
57.9323
57.9336
57.9367
57.9295
57.9235
57.9293
57.9404
57.9361
57.9382
57.9356
57.9324
57.9265
57.9342
57.9418
57.9406
57.9401
57.9292
57.9273
57.9244
57.9319
57.9481
57.9381
57.9433
57.9546
57.9506
57.9527
57.9501
57.9463
57.9385
57.939
57.9464
57.9474
57.9474
57.9399
57.9324
57.9337
57.9389
57.9375
57.9376
57.9335
57.9231
57.914
57.9179
57.9236
57.9227
57.9223
57.9094
54.9936
56.0063
56.8924
57.5
57.8303
57.9514
57.9646
57.9617
57.9617
57.96
57.9468
57.9469
57.9571
57.9449
57.9436
57.9554
57.9617
57.9593
57.951
57.9586
57.9751
57.9721
57.9726
57.9735
57.9753
57.9741
57.9704
57.9599
57.9533
57.964
57.9692
57.9654
57.9554
57.952
57.959
57.96
57.9575
57.9584
57.9554
57.9499
57.9456
57.9387
57.923
57.9099
57.9158
57.9201
57.9171
57.9075
57.9058
57.923
57.9264
57.9246
57.9241
57.9172
57.9178
57.915
57.9172
57.9443
57.9514
57.9461
57.9479
57.9455
57.9418
57.934
57.9312
57.9299
57.9388
57.9435
57.9375
57.9387
57.9379
57.9276
57.9311
57.9373
57.9229
57.9277
57.9369
57.9295
57.9224
57.9245
57.9356
57.9374
57.9366
57.9382
57.9352
57.9205
57.9222
57.9324
57.9313
57.9209
54.9943
56.0021
56.8983
57.4985
57.8235
57.9649
57.9955
58.0014
57.9998
58.0015
57.9972
57.9982
57.9993
57.9852
57.9887
57.9945
57.9831
57.9905
57.9986
57.9843
57.9892
57.9974
57.9917
57.9948
57.996
57.9935
57.9905
57.9759
57.9736
57.9792
57.9751
57.9778
57.978
57.9755
57.9735
57.9705
57.9603
57.9492
57.9431
57.9385
57.932
57.9272
57.9165
57.9114
57.9148
57.9093
57.9095
57.9166
57.9116
57.9179
57.9354
57.9349
57.9345
57.9314
57.9214
57.9255
57.9346
57.9324
57.9247
57.9276
57.9345
57.92
57.9222
57.9317
57.9209
57.9182
57.9225
57.9241
57.9215
57.9258
57.9361
57.9398
57.9384
57.9376
57.9301
57.9272
57.9314
57.9326
57.9302
57.9201
57.9259
57.936
57.9332
57.9331
57.93
57.9219
57.9161
57.922
57.9244
57.9143
54.9937
55.9998
56.8991
57.5113
57.8224
57.922
57.9296
57.9209
57.9219
57.9424
57.9481
57.9461
57.9449
57.9325
57.9426
57.9666
57.9659
57.9619
57.9655
57.98
57.9764
57.9736
57.9842
57.9973
57.9907
57.9959
57.9977
57.996
57.9942
57.9788
57.9754
57.9707
57.9682
57.9648
57.9526
57.9575
57.9597
57.9554
57.9487
57.9484
57.9513
57.9488
57.9435
57.9375
57.9343
57.9285
57.9357
57.9402
57.939
57.9388
57.9326
57.9295
57.9158
57.9094
57.9214
57.9264
57.9231
57.915
57.9122
57.9202
57.925
57.9223
57.9128
57.919
57.9252
57.9242
57.9241
57.9129
57.9164
57.9265
57.9196
57.9233
57.9268
57.926
57.9255
57.915
57.9195
57.9243
57.9098
57.9089
57.9276
57.9356
57.9344
57.9358
57.9336
57.9296
57.9285
57.9263
57.9223
57.9082
54.9943
56.0019
56.899
57.4962
57.8283
57.9598
57.9755
57.9854
57.9964
57.9953
57.9942
57.9805
57.9847
57.9901
57.9796
57.9841
57.988
57.9835
57.9846
57.9847
57.9748
57.9777
57.9859
57.9829
57.9839
57.9874
57.9874
57.9859
57.984
57.9673
57.9631
57.9718
57.9738
57.97
57.9583
57.9546
57.9558
57.9475
57.9523
57.958
57.9576
57.9572
57.9445
57.9393
57.9393
57.9305
57.9313
57.9466
57.9489
57.9456
57.9375
57.9332
57.931
57.9287
57.9257
57.9234
57.9231
57.914
57.9155
57.9175
57.9205
57.9204
57.9155
57.9129
57.9139
57.911
57.9188
57.9316
57.9217
57.918
57.9298
57.9362
57.9346
57.9339
57.9216
57.9277
57.9368
57.9355
57.9345
57.9227
57.9287
57.937
57.9313
57.9319
57.9307
57.9221
57.9164
57.9226
57.9249
57.9147
54.9931
56.0024
56.8959
57.5091
57.8251
57.9357
57.9541
57.9548
57.9549
57.9507
57.9468
57.9545
57.9657
57.9716
57.9911
57.9911
57.9881
57.9745
57.974
57.9822
57.9703
57.9722
57.9816
57.9802
57.9831
57.984
57.9781
57.9819
57.9843
57.9832
57.9829
57.9776
57.9766
57.971
57.9693
57.9638
57.9516
57.939
57.9376
57.9319
57.938
57.9482
57.9388
57.9334
57.9409
57.9463
57.9455
57.9454
57.9413
57.9281
57.9293
57.9323
57.9239
57.9245
57.924
57.9194
57.914
57.914
57.9142
57.9071
57.9118
57.9234
57.9218
57.9139
57.9163
57.9211
57.9188
57.9125
57.913
57.9282
57.9304
57.9304
57.9171
57.9179
57.9295
57.9296
57.9268
57.913
57.9114
57.9324
57.9388
57.9364
57.9324
57.925
57.9223
57.9148
57.9161
57.9294
57.9301
57.9228
54.9942
55.998
56.9001
57.5122
57.8238
57.9149
57.919
57.9162
57.933
57.9616
57.9523
57.9589
57.971
57.9588
57.9649
57.9709
57.9586
57.965
57.9721
57.9583
57.9637
57.9725
57.9615
57.9663
57.9685
57.9657
57.957
57.9564
57.9679
57.9703
57.9679
57.9654
57.9651
57.9616
57.9592
57.9584
57.9578
57.9558
57.953
57.9494
57.9472
57.9443
57.9381
57.9227
57.914
57.9181
57.9194
57.9128
57.9174
57.9227
57.9095
57.9091
57.9278
57.9328
57.9312
57.9308
57.9192
57.9225
57.93
57.9294
57.9294
57.926
57.9205
57.9119
57.9155
57.9175
57.9094
57.9131
57.9306
57.9331
57.9338
57.932
57.9275
57.9152
57.9105
57.9191
57.9168
57.9227
57.9428
57.9433
57.944
57.9435
57.9396
57.9317
57.9249
57.9224
57.9177
57.9163
57.9161
57.9096
54.9943
56.0021
56.8959
57.5081
57.8243
57.922
57.9469
57.9459
57.9436
57.9358
57.9388
57.9575
57.9575
57.9581
57.956
57.9563
57.9503
57.9581
57.9675
57.967
57.9669
57.9551
57.962
57.9741
57.9706
57.9699
57.9677
57.967
57.9547
57.9574
57.9626
57.9591
57.951
57.9468
57.9484
57.9442
57.9437
57.9409
57.9337
57.9347
57.935
57.9315
57.9207
57.9218
57.9227
57.9116
57.9173
57.9405
57.9408
57.9387
57.9396
57.9373
57.9343
57.9301
57.9169
57.9191
57.9272
57.9244
57.9162
57.9122
57.9265
57.9317
57.9297
57.9289
57.9178
57.9195
57.9449
57.9478
57.9468
57.946
57.9469
57.9476
57.9431
57.9428
57.9381
57.9259
57.9214
57.9372
57.9444
57.9412
57.93
57.9319
57.9381
57.937
57.9368
57.9231
57.9212
57.9243
57.9242
57.9149
54.9956
55.9994
56.8985
57.5069
57.8209
57.9381
57.9521
57.9524
57.9523
57.9416
57.9367
57.9521
57.9653
57.974
57.9835
57.9703
57.9757
57.9856
57.9734
57.9797
57.988
57.9879
57.9878
57.9743