/*--------------------------------*- C++ -*----------------------------------*\
  =========                 |
  \\      /  F ield         | OpenFOAM: The Open Source CFD Toolbox
   \\    /   O peration     | Website:  https://openfoam.org
    \\  /    A nd           | Version:  11
     \\/     M anipulation  |
\*---------------------------------------------------------------------------*/
FoamFile
{
    format      ascii;
    class       volScalarField;
    location    "0.062";
    object      p;
}
// * * * * * * * * * * * * * * * * * * * * * * * * * * * * * * * * * * * * * //

dimensions      [0 2 -2 0 0 0 0];

internalField   nonuniform List<scalar> 
287084
(
1.7106
1.42467
1.36473
1.29704
1.22755
1.17539
1.12592
1.08018
1.03627
0.992495
0.949313
0.906832
0.864001
0.820333
0.775625
0.730262
0.684715
0.638962
0.59315
0.547528
0.502275
0.45775
0.414093
0.371776
0.330345
0.290913
0.256661
0.226264
0.198505
0.173998
0.151239
0.13184
0.114238
0.0986282
0.0872631
0.0790954
0.0736993
0.0707576
0.0699592
0.0710043
0.0736079
0.0774917
0.0823723
0.0880165
0.0941818
0.100676
0.1073
0.113855
0.120342
0.125997
0.131467
0.138213
0.144173
0.147624
0.151312
0.154865
0.157889
0.160217
0.161779
0.16269
0.162936
0.1626
0.161498
0.160059
0.158052
0.155575
0.152622
0.149175
0.145377
0.14088
0.136622
0.132613
0.127325
0.120964
0.114834
0.108546
0.102063
0.0946788
0.0870381
0.0797329
0.072372
0.0651281
0.0572086
0.0485769
0.0389749
0.0281663
0.019185
0.0139209
0.00715165
0.00253788
1.5747
1.38338
1.33436
1.27664
1.21603
1.16757
1.12063
1.07633
1.03329
0.990182
0.947534
0.905178
0.861796
0.817629
0.772956
0.727687
0.682041
0.636108
0.590089
0.544228
0.498769
0.45402
0.410193
0.367907
0.326549
0.287608
0.25416
0.22421
0.194822
0.167939
0.144259
0.123991
0.107112
0.0931708
0.0824563
0.0747261
0.0696726
0.0670466
0.0665461
0.067881
0.07076
0.0749092
0.0800418
0.0859246
0.0923149
0.0990165
0.105847
0.112658
0.119331
0.125734
0.131809
0.137696
0.142928
0.146635
0.150358
0.154723
0.157552
0.159528
0.161196
0.16213
0.162399
0.162133
0.161291
0.159852
0.157965
0.155538
0.152517
0.149182
0.145372
0.141304
0.136631
0.131814
0.126937
0.121072
0.114697
0.108367
0.102104
0.094957
0.0874042
0.0800878
0.0724871
0.0647745
0.0568655
0.0479316
0.0388938
0.0307786
0.0226539
0.015847
0.0091595
0.00329007
1.54853
1.37682
1.32671
1.27096
1.21262
1.16444
1.11778
1.07349
1.03023
0.987236
0.944375
0.901357
0.857783
0.813508
0.768538
0.722941
0.676878
0.63049
0.583996
0.537636
0.491683
0.446492
0.402325
0.359657
0.318802
0.280261
0.244697
0.21229
0.183032
0.156695
0.13375
0.114021
0.0973599
0.0838555
0.073547
0.0662461
0.0616994
0.0595973
0.0596434
0.061528
0.0649479
0.069617
0.0752579
0.0816162
0.0884548
0.0955754
0.102785
0.109949
0.116893
0.123502
0.129673
0.135525
0.141049
0.145726
0.149827
0.153664
0.156616
0.158934
0.16055
0.161514
0.161903
0.161684
0.160856
0.159504
0.157563
0.155224
0.1524
0.149027
0.145231
0.141074
0.136412
0.131559
0.126432
0.120607
0.114521
0.108333
0.101781
0.0949252
0.0878638
0.0805401
0.073169
0.0655975
0.0575915
0.0492852
0.0405124
0.0318755
0.0239483
0.0160236
0.00793889
0.00251096
1.50128
1.34255
1.29813
1.24784
1.19525
1.15079
1.10707
1.0648
1.02289
0.980792
0.938365
0.895398
0.851668
0.80708
0.761759
0.7157
0.669082
0.622068
0.574876
0.527788
0.481099
0.43515
0.390322
0.347027
0.305602
0.266571
0.230667
0.197815
0.167964
0.141397
0.118211
0.0985084
0.0822968
0.0695051
0.0599452
0.05345
0.0497098
0.048452
0.0493422
0.052072
0.0563135
0.0617721
0.0681623
0.0752314
0.0827327
0.0904654
0.0982448
0.105917
0.113353
0.120437
0.127116
0.133339
0.139023
0.143919
0.148199
0.152096
0.155279
0.157706
0.159479
0.160624
0.161096
0.160979
0.160305
0.159011
0.157229
0.154923
0.15202
0.148739
0.145017
0.140852
0.136303
0.131401
0.126168
0.120469
0.114465
0.108189
0.101652
0.0948357
0.0877254
0.0804736
0.0730678
0.0654034
0.0576547
0.0496451
0.041297
0.0330014
0.024707
0.0163577
0.0081655
0.00282486
1.47839
1.3279
1.28605
1.23769
1.18716
1.14352
1.10039
1.05834
1.01646
0.974269
0.931639
0.888316
0.844144
0.799055
0.753101
0.706321
0.658904
0.610977
0.562847
0.514752
0.467039
0.420101
0.374287
0.330101
0.2879
0.248173
0.21137
0.177781
0.147571
0.120862
0.0978911
0.0786274
0.0630058
0.0509405
0.0422484
0.036693
0.0339858
0.0337969
0.0357796
0.0395973
0.0449127
0.0514113
0.0587968
0.0668001
0.0751768
0.0837181
0.0922426
0.100599
0.108644
0.116291
0.123442
0.130044
0.136068
0.141406
0.146088
0.150184
0.153525
0.156165
0.158125
0.159421
0.160083
0.16011
0.159508
0.158346
0.156609
0.154347
0.151627
0.148392
0.144706
0.140606
0.136084
0.131189
0.125966
0.120326
0.114345
0.10811
0.101612
0.0948281
0.0878195
0.0805785
0.0731674
0.0655978
0.0578104
0.0498668
0.0417558
0.0335588
0.0252474
0.0166541
0.0080994
0.00266249
1.45429
1.30562
1.26552
1.2195
1.17154
1.12996
1.08859
1.04785
1.00684
0.965166
0.922693
0.879214
0.83469
0.789026
0.742366
0.694723
0.646298
0.597296
0.54796
0.498624
0.449637
0.401397
0.354366
0.308973
0.265724
0.225043
0.187447
0.153194
0.122585
0.0957853
0.0729362
0.0540608
0.0390928
0.0279237
0.020298
0.0159552
0.0145391
0.015707
0.0190677
0.0242617
0.0309196
0.0387093
0.0473222
0.0564813
0.0659343
0.0754719
0.0849074
0.0940891
0.102892
0.111212
0.118977
0.126125
0.132622
0.138398
0.143455
0.147825
0.151472
0.154385
0.156578
0.158072
0.158888
0.159053
0.158606
0.157554
0.155942
0.153795
0.151102
0.147913
0.144284
0.140209
0.135734
0.130871
0.125659
0.120079
0.114165
0.107965
0.101484
0.0947554
0.0877846
0.0806032
0.0732488
0.0656949
0.0579747
0.0501234
0.0420835
0.0339312
0.0255939
0.0168942
0.00822517
0.00277469
1.43635
1.29018
1.25178
1.20708
1.16049
1.11974
1.07897
1.0385
0.997603
0.955811
0.913052
0.869124
0.823955
0.777511
0.729893
0.681146
0.631515
0.581137
0.530378
0.47952
0.42898
0.379211
0.330642
0.283851
0.239274
0.197471
0.158893
0.12392
0.0928975
0.0659831
0.0433755
0.0250474
0.0109217
0.000822088
-0.00552953
-0.00844901
-0.0083327
-0.00556273
-0.000572042
0.00623791
0.0144795
0.0237948
0.0338576
0.0443801
0.0551
0.0658023
0.0763084
0.0864663
0.0961447
0.105258
0.113727
0.121504
0.128549
0.134826
0.140332
0.145082
0.149049
0.152249
0.154703
0.156436
0.157467
0.157819
0.157528
0.156621
0.155124
0.153061
0.150481
0.147397
0.143842
0.139837
0.135412
0.130587
0.1254
0.119859
0.113988
0.10782
0.10138
0.09468
0.0877479
0.0806008
0.0732667
0.0657542
0.0580703
0.0502538
0.0422597
0.0341282
0.0257535
0.0169946
0.00827984
0.00279647
1.41978
1.274
1.23626
1.19266
1.1471
1.10729
1.06727
1.02737
0.986754
0.945002
0.902005
0.857581
0.811729
0.764373
0.715673
0.665668
0.614596
0.562687
0.510234
0.457631
0.405291
0.353697
0.303387
0.254897
0.208825
0.165687
0.126038
0.0902895
0.0588069
0.0318277
0.0094877
-0.00820467
-0.021374
-0.0302264
-0.0350881
-0.0363442
-0.0344343
-0.0298027
-0.0229242
-0.014239
-0.00417272
0.00689391
0.0186179
0.0306927
0.0428547
0.0548878
0.0666062
0.0778616
0.0885381
0.098548
0.107819
0.116304
0.123982
0.13082
0.136821
0.141994
0.146346
0.14989
0.152644
0.154632
0.155889
0.156441
0.156323
0.155572
0.154207
0.152268
0.149791
0.14679
0.143307
0.139366
0.134999
0.130231
0.125091
0.119597
0.113773
0.107649
0.101245
0.0945852
0.0876873
0.0805753
0.073272
0.0657942
0.0581486
0.0503627
0.0423901
0.0342456
0.025838
0.0170541
0.00836501
0.00287634
1.40528
1.26017
1.22316
1.18019
1.13531
1.09595
1.05627
1.01645
0.97582
0.933755
0.890276
0.845178
0.798419
0.749991
0.699996
0.648521
0.595827
0.542107
0.487759
0.433142
0.378738
0.325103
0.272762
0.222405
0.174587
0.129973
0.0891215
0.0525011
0.0205694
-0.00648566
-0.0284473
-0.0453872
-0.0574204
-0.0648288
-0.0679957
-0.0673556
-0.0634251
-0.0566958
-0.0476978
-0.0369138
-0.0248019
-0.0117809
0.00178885
0.0155967
0.0293597
0.0428614
0.0559227
0.0683948
0.0801677
0.091159
0.101307
0.110579
0.118949
0.126406
0.132955
0.13861
0.143381
0.147291
0.15037
0.152647
0.154158
0.154932
0.15501
0.154423
0.153208
0.151397
0.14903
0.146131
0.142739
0.138876
0.134573
0.129861
0.124767
0.119322
0.113541
0.107458
0.101097
0.0944691
0.0876053
0.0805238
0.0732502
0.0657998
0.0581751
0.0504109
0.0424792
0.0343688
0.0260399
0.0172642
0.00836549
0.00279705
1.392
1.24706
1.21037
1.1678
1.1233
1.08428
1.04478
1.00501
0.964203
0.921802
0.877746
0.831835
0.784073
0.734404
0.682978
0.629868
0.575336
0.519647
0.463155
0.406325
0.349641
0.293702
0.239153
0.186661
0.136956
0.0906848
0.0485199
0.011
-0.0214424
-0.0485006
-0.0700449
-0.086101
-0.0968583
-0.102646
-0.103899
-0.101149
-0.0949565
-0.0859011
-0.0745549
-0.0614578
-0.0471099
-0.0319488
-0.0163621
-0.000679274
0.0148242
0.0299248
0.0444357
0.0582242
0.0711813
0.0832363
0.0943375
0.104448
0.113564
0.12168
0.12881
0.134976
0.140198
0.144507
0.147941
0.150526
0.152303
0.153312
0.153595
0.153195
0.152137
0.150463
0.148217
0.145423
0.142119
0.138335
0.134104
0.129457
0.124421
0.119027
0.113293
0.107251
0.100927
0.094338
0.0875075
0.0804593
0.0732127
0.0657908
0.0581931
0.0504516
0.0425096
0.0344073
0.0260031
0.0171692
0.00840484
0.00287915
1.37983
1.23504
1.19856
1.15626
1.11197
1.07304
1.03354
0.993552
0.952401
0.909522
0.864731
0.817895
0.76896
0.717925
0.664886
0.60997
0.553443
0.495553
0.436747
0.377463
0.318275
0.259849
0.20284
0.148084
0.096278
0.048247
0.00467416
-0.0338327
-0.0667417
-0.0938055
-0.114802
-0.129859
-0.139168
-0.143145
-0.142303
-0.13723
-0.128582
-0.116997
-0.103121
-0.0875349
-0.0707758
-0.0533221
-0.035578
-0.0178827
-0.000527314
0.0162643
0.0323207
0.0474981
0.0617055
0.0748781
0.0869767
0.0979815
0.107885
0.1167
0.124448
0.131159
0.136857
0.141583
0.145385
0.148293
0.150355
0.151611
0.152114
0.151901
0.151011
0.149482
0.147361
0.144677
0.141473
0.137777
0.133619
0.129038
0.12406
0.118717
0.113031
0.107033
0.100745
0.0941895
0.0873952
0.0803742
0.0731534
0.0657578
0.0581762
0.0504483
0.0425329
0.0344415
0.0260549
0.0172278
0.0084248
0.00288804
1.36856
1.22382
1.18745
1.14524
1.10098
1.06205
1.0224
0.98215
0.940507
0.896974
0.851359
0.803451
0.753249
0.700697
0.645935
0.589068
0.530371
0.470155
0.40883
0.346949
0.285072
0.223953
0.164358
0.107117
0.05312
0.00318627
-0.0418664
-0.0813676
-0.114779
-0.14175
-0.162157
-0.176082
-0.18381
-0.185819
-0.182689
-0.175119
-0.163824
-0.149539
-0.132957
-0.114726
-0.0954251
-0.0755526
-0.0555435
-0.0357503
-0.0164601
0.002102
0.0197579
0.0363874
0.0519017
0.0662405
0.0793766
0.0913024
0.102024
0.111559
0.119942
0.127208
0.1334
0.138564
0.142743
0.145986
0.148343
0.149858
0.150584
0.150569
0.149848
0.148469
0.146476
0.14391
0.140806
0.137196
0.133116
0.1286
0.123684
0.118396
0.112758
0.106802
0.10055
0.0940334
0.0872717
0.0802808
0.0730858
0.0657042
0.0581475
0.050438
0.0425279
0.0344516
0.0260985
0.0172604
0.00840868
0.00286245
1.35813
1.21338
1.17701
1.13485
1.09054
1.05146
1.01156
0.970891
0.928668
0.88441
0.837821
0.788771
0.737171
0.683018
0.626398
0.567466
0.506483
0.443768
0.379813
0.315136
0.250443
0.186493
0.124132
0.0643382
0.00800012
-0.0438854
-0.0904689
-0.130991
-0.164837
-0.191702
-0.211385
-0.224076
-0.230077
-0.22996
-0.224402
-0.214181
-0.200111
-0.182994
-0.163598
-0.142617
-0.120674
-0.0983045
-0.0759564
-0.0539978
-0.0327167
-0.0123419
0.00696113
0.0250705
0.0419116
0.0574388
0.0716331
0.0844978
0.09605
0.106326
0.115361
0.123201
0.129895
0.135496
0.140063
0.143646
0.1463
0.148074
0.149027
0.149207
0.148663
0.147438
0.145582
0.14313
0.140125
0.136605
0.132604
0.128163
0.123305
0.118067
0.11248
0.106568
0.100358
0.0938707
0.0871347
0.0801731
0.073004
0.0656492
0.0581052
0.0504096
0.0425146
0.0344374
0.0260494
0.0172247
0.00844259
0.00291991
1.34844
1.20367
1.16727
1.12505
1.08056
1.04127
1.00102
0.959853
0.917
0.871918
0.824316
0.774008
0.720958
0.6651
0.606565
0.545469
0.482105
0.416822
0.350101
0.282578
0.214918
0.148049
0.0828463
0.0203671
-0.0383413
-0.0922488
-0.140371
-0.181888
-0.216165
-0.242819
-0.261728
-0.273068
-0.277242
-0.274896
-0.266793
-0.253818
-0.236867
-0.216831
-0.194536
-0.170742
-0.14611
-0.121201
-0.0964828
-0.0723306
-0.0490425
-0.0268374
-0.00587764
0.0137277
0.0319075
0.0486299
0.0638861
0.0776941
0.0900855
0.101098
0.110781
0.119189
0.126387
0.132434
0.137384
0.141304
0.144252
0.146288
0.147472
0.147853
0.14748
0.146408
0.144683
0.14235
0.139447
0.136015
0.132094
0.127719
0.122923
0.117739
0.112199
0.106328
0.100153
0.0937061
0.0870001
0.0800612
0.0729168
0.0655765
0.0580499
0.0503677
0.0424735
0.034416
0.0260203
0.0171936
0.00844027
0.00292602
1.3395
1.19468
1.15818
1.11587
1.0712
1.03159
0.990936
0.949226
0.905649
0.859668
0.810994
0.759414
0.704847
0.647257
0.586728
0.523425
0.457617
0.38969
0.320175
0.249688
0.179061
0.109184
0.0410933
-0.024074
-0.0852012
-0.141104
-0.190752
-0.233233
-0.267859
-0.294258
-0.312287
-0.322206
-0.324462
-0.319803
-0.30909
-0.293304
-0.273436
-0.250455
-0.225249
-0.19863
-0.171306
-0.143859
-0.116773
-0.0904417
-0.0651566
-0.0411389
-0.0185394
0.00254128
0.0220432
0.0399488
0.0562549
0.0709919
0.0842049
0.0959456
0.106268
0.115241
0.122932
0.129411
0.134745
0.139001
0.142248
0.144539
0.145943
0.146516
0.146316
0.145395
0.1438
0.141579
0.138774
0.135432
0.13159
0.127285
0.122548
0.117415
0.111922
0.106092
0.099956
0.0935357
0.0868579
0.0799496
0.0728254
0.0655103
0.0579978
0.050334
0.0424539
0.0343974
0.0260124
0.0171921
0.0084506
0.00293632
1.33125
1.1864
1.1498
1.10733
1.06238
1.02246
0.981332
0.939054
0.894734
0.847865
0.798083
0.745186
0.689088
0.629738
0.56723
0.501696
0.43345
0.362881
0.290535
0.217138
0.143481
0.0706419
-0.0003423
-0.0681925
-0.131693
-0.189565
-0.240678
-0.284067
-0.318986
-0.345046
-0.36215
-0.370581
-0.370881
-0.363888
-0.350555
-0.331963
-0.309192
-0.283285
-0.255203
-0.225806
-0.195834
-0.165902
-0.136508
-0.108044
-0.0808117
-0.0550237
-0.0308247
-0.00830425
0.0124834
0.0315334
0.0488627
0.0645032
0.0785152
0.0909577
0.101904
0.111426
0.119596
0.126495
0.132195
0.13677
0.140293
0.142832
0.144459
0.145224
0.145188
0.144412
0.142946
0.140836
0.13813
0.134872
0.131101
0.12686
0.122186
0.117103
0.111651
0.105858
0.0997556
0.0933683
0.086719
0.079832
0.0727302
0.0654283
0.0579313
0.0502739
0.0424039
0.0343425
0.0259838
0.0171907
0.00845065
0.00294623
1.32373
1.17883
1.14211
1.09946
1.05427
1.01398
0.97239
0.929451
0.884424
0.836649
0.785756
0.731553
0.673946
0.612857
0.548378
0.480662
0.409996
0.336823
0.26172
0.185415
0.108845
0.0330589
-0.0407211
-0.111179
-0.176967
-0.236712
-0.289217
-0.33341
-0.368551
-0.394211
-0.410337
-0.417261
-0.415605
-0.406293
-0.390385
-0.369049
-0.343455
-0.314718
-0.283858
-0.251782
-0.219268
-0.186947
-0.155332
-0.124828
-0.0957305
-0.0682509
-0.0425264
-0.0186335
0.00338022
0.0235222
0.0418216
0.0583232
0.0730895
0.0862071
0.0977459
0.107788
0.116414
0.12371
0.129762
0.13465
0.138444
0.141221
0.143052
0.143994
0.144115
0.143476
0.142131
0.140127
0.137514
0.134337
0.130639
0.126463
0.121838
0.116804
0.111394
0.105638
0.0995713
0.0932125
0.0865888
0.0797261
0.072639
0.0653604
0.057876
0.0502432
0.0423841
0.0343354
0.0259693
0.0171631
0.00844271
0.00293946
1.31697
1.172
1.13514
1.09234
1.04683
1.00621
0.964116
0.920629
0.874833
0.826137
0.774187
0.718739
0.659656
0.596905
0.530537
0.460704
0.387736
0.312058
0.234288
0.155229
0.075818
-0.0027356
-0.0792244
-0.152135
-0.220092
-0.281591
-0.335355
-0.380275
-0.415544
-0.440767
-0.455893
-0.461329
-0.457769
-0.446228
-0.427856
-0.403905
-0.375632
-0.344213
-0.310725
-0.276123
-0.241209
-0.20664
-0.172944
-0.140524
-0.109678
-0.0806128
-0.0534552
-0.0282799
-0.00511867
0.0160443
0.0352511
0.0525577
0.0680418
0.0817814
0.0938694
0.104397
0.113447
0.121117
0.127498
0.132668
0.136713
0.13971
0.141731
0.142843
0.143112
0.142606
0.141373
0.139467
0.136941
0.133843
0.13021
0.126086
0.121513
0.116522
0.111152
0.105431
0.0993917
0.0930581
0.0864561
0.0796127
0.0725439
0.0652805
0.057812
0.0501867
0.042338
0.0343233
0.0259845
0.0171997
0.0084181
0.00288576
1.31097
1.16593
1.12893
1.08596
1.0402
0.999204
0.956665
0.912591
0.8661
0.816573
0.763594
0.706949
0.646505
0.582168
0.514023
0.442212
0.367054
0.289038
0.208777
0.127114
0.0450922
-0.0360931
-0.115044
-0.190253
-0.260182
-0.323262
-0.37816
-0.423664
-0.459012
-0.483742
-0.497894
-0.501898
-0.496537
-0.482897
-0.462223
-0.435845
-0.405091
-0.371202
-0.335301
-0.298381
-0.261269
-0.224645
-0.189042
-0.15487
-0.122424
-0.091905
-0.0634433
-0.0370958
-0.0128829
0.00921545
0.0292478
0.0472899
0.0634161
0.0777326
0.0903292
0.101299
0.11074
0.118748
0.125428
0.130863
0.135139
0.138336
0.140535
0.141799
0.142203
0.14181
0.140681
0.138864
0.136417
0.133386
0.129814
0.125745
0.121217
0.116269
0.110933
0.105242
0.0992309
0.0929249
0.0863476
0.0795219
0.0724674
0.0652206
0.0577627
0.0501566
0.0423264
0.0343076
0.0259837
0.0171573
0.0083948
0.00290779
1.30573
1.16067
1.12357
1.08038
1.03437
0.993049
0.950094
0.905509
0.858346
0.808
0.754121
0.696404
0.634696
0.568934
0.49917
0.425552
0.348438
0.268267
0.185747
0.101735
0.0173071
-0.0662017
-0.147429
-0.224655
-0.296362
-0.360831
-0.416684
-0.462694
-0.498026
-0.522281
-0.535497
-0.538173
-0.531164
-0.515627
-0.492881
-0.464327
-0.431356
-0.395253
-0.357192
-0.318197
-0.279123
-0.240661
-0.203358
-0.167622
-0.133749
-0.101941
-0.0723118
-0.0449224
-0.0197798
0.00314946
0.0239291
0.0426267
0.0593314
0.0741471
0.0871838
0.0985458
0.108333
0.116646
0.123589
0.129255
0.133736
0.137111
0.139464
0.140867
0.14139
0.141104
0.140063
0.138329
0.135954
0.132983
0.129463
0.125437
0.120952
0.116037
0.110736
0.105074
0.099083
0.0927944
0.0862332
0.0794246
0.0723862
0.0651494
0.0577052
0.0501011
0.0422741
0.0342674
0.0259348
0.0171305
0.00839452
0.00292182
1.30137
1.15621
1.11895
1.0757
1.02941
0.987828
0.944471
0.899438
0.851684
0.800656
0.745965
0.68729
0.624488
0.557455
0.486271
0.411075
0.332206
0.250173
0.165672
0.0796025
-0.0068888
-0.0924753
-0.175627
-0.254625
-0.327843
-0.393479
-0.450132
-0.496499
-0.531804
-0.555581
-0.567952
-0.569452
-0.560989
-0.543793
-0.519246
-0.488803
-0.453912
-0.415907
-0.37599
-0.335217
-0.294456
-0.25442
-0.215655
-0.178579
-0.143483
-0.110561
-0.0799367
-0.0516513
-0.0257084
-0.00206626
0.0193375
0.0385933
0.0557964
0.0710572
0.0844794
0.09618
0.106266
0.114841
0.122015
0.127879
0.132535
0.136062
0.138552
0.140071
0.140698
0.140501
0.139538
0.137868
0.135555
0.13264
0.129166
0.125181
0.12073
0.115847
0.110567
0.104928
0.098963
0.0926955
0.0861516
0.0793556
0.0723305
0.0651052
0.0576668
0.0500808
0.0422584
0.0342539
0.0259362
0.0171343
0.00839703
0.00291508
1.2978
1.15262
1.11528
1.07187
1.02541
0.98356
0.939915
0.894465
0.846218
0.794601
0.739244
0.679777
0.616048
0.547975
0.475604
0.399084
0.318791
0.235182
0.149034
0.0612475
-0.0269887
-0.114246
-0.199037
-0.279449
-0.353924
-0.420497
-0.477745
-0.524404
-0.55963
-0.582999
-0.594651
-0.595149
-0.585479
-0.566911
-0.54088
-0.508888
-0.472426
-0.432853
-0.391413
-0.349172
-0.307028
-0.265697
-0.225734
-0.187557
-0.151457
-0.117632
-0.0861804
-0.0571588
-0.0305594
-0.0063333
0.0155929
0.035311
0.0529252
0.0685362
0.0822704
0.0942456
0.104575
0.113366
0.120724
0.126752
0.131549
0.135203
0.137801
0.139419
0.140125
0.139999
0.139102
0.137491
0.135222
0.132349
0.128913
0.124962
0.120544
0.115685
0.110431
0.10481
0.0988574
0.0926031
0.0860695
0.0792866
0.0722704
0.0650491
0.0576221
0.050034
0.0422193
0.0341981
0.025883
0.0171175
0.00840148
0.0029319
1.29511
1.14991
1.11248
1.06898
1.02235
0.980339
0.93641
0.890675
0.842054
0.790001
0.7341
0.674015
0.609574
0.540672
0.467379
0.389844
0.308413
0.223608
0.136186
0.04708
-0.0424812
-0.131054
-0.217078
-0.29858
-0.374063
-0.441248
-0.498947
-0.545804
-0.580979
-0.604001
-0.615077
-0.614812
-0.604201
-0.584575
-0.557401
-0.524221
-0.486552
-0.445789
-0.403185
-0.359829
-0.316628
-0.274313
-0.233436
-0.194419
-0.157552
-0.12303
-0.0909583
-0.0613738
-0.034273
-0.00959869
0.0127223
0.0327917
0.0507161
0.0666047
0.0805793
0.0927691
0.10328
0.11223
0.119734
0.125888
0.130797
0.134546
0.13723
0.138916
0.13969
0.139622
0.138774
0.137203
0.134974
0.132134
0.128726
0.124803
0.1204
0.115562
0.110323
0.104718
0.09878
0.0925359
0.0860168
0.0792431
0.0722372
0.0650267
0.0576028
0.0500246
0.0422065
0.0341989
0.0258633
0.0170761
0.00840729
0.00295122
1.29332
1.14808
1.1106
1.06703
1.02029
0.97814
0.934056
0.888101
0.839236
0.786874
0.730615
0.670108
0.605174
0.535736
0.461815
0.383576
0.301397
0.215762
0.127462
0.0374553
-0.0530361
-0.14247
-0.229381
-0.311599
-0.387843
-0.455467
-0.513217
-0.560195
-0.595395
-0.618192
-0.628887
-0.628086
-0.616846
-0.596503
-0.568559
-0.534576
-0.496096
-0.454526
-0.411135
-0.367024
-0.323112
-0.280128
-0.238632
-0.199049
-0.161666
-0.126675
-0.09418
-0.0642181
-0.036775
-0.0118031
0.0107849
0.0310918
0.0492231
0.0652938
0.0794343
0.0917644
0.102407
0.11147
0.119071
0.125309
0.130289
0.134106
0.136848
0.138588
0.1394
0.139365
0.138546
0.137007
0.134801
0.131981
0.128596
0.124687
0.120304
0.115479
0.110253
0.104656
0.098724
0.0924934
0.0859768
0.0792063
0.0722039
0.0649951
0.0575809
0.0500018
0.0422019
0.0342046
0.0259185
0.0171523
0.00837001
0.00289011
1.29241
1.14717
1.10966
1.06606
1.01927
0.977047
0.932873
0.886787
0.837825
0.785346
0.728864
0.668136
0.602961
0.533223
0.458982
0.380395
0.297817
0.211775
0.123038
0.0325802
-0.0583561
-0.148256
-0.235563
-0.318203
-0.394807
-0.462678
-0.520355
-0.567467
-0.602681
-0.625339
-0.635837
-0.634774
-0.623206
-0.602502
-0.574167
-0.539781
-0.500891
-0.458917
-0.415133
-0.370649
-0.326377
-0.283057
-0.241251
-0.201382
-0.163736
-0.128509
-0.0958025
-0.0656497
-0.0380392
-0.0129102
0.00981705
0.0302435
0.0484782
0.0646405
0.0788613
0.0912651
0.101965
0.111083
0.118735
0.125015
0.130034
0.13388
0.136647
0.138408
0.139248
0.139234
0.138434
0.136907
0.134716
0.13191
0.128531
0.124632
0.120253
0.115436
0.110213
0.104624
0.0987016
0.0924683
0.0859574
0.0791902
0.0721935
0.064993
0.0575771
0.0500035
0.0421969
0.0341971
0.0258951
0.0170933
0.00836898
0.00291554
1.29242
1.14717
1.10966
1.06606
1.01928
0.977043
0.932868
0.886777
0.837835
0.785358
0.728864
0.668145
0.602962
0.533238
0.458996
0.380408
0.297839
0.211786
0.123052
0.0325922
-0.0583495
-0.148242
-0.235558
-0.318191
-0.394791
-0.462666
-0.520333
-0.567454
-0.602661
-0.625322
-0.635818
-0.634753
-0.623188
-0.602484
-0.574152
-0.539765
-0.500875
-0.458899
-0.415116
-0.370632
-0.326361
-0.283044
-0.241239
-0.201372
-0.163729
-0.128505
-0.0957993
-0.065644
-0.0380319
-0.0129079
0.0098131
0.0302354
0.048473
0.0646365
0.0788591
0.0912602
0.101963
0.111083
0.118735
0.125014
0.130033
0.133886
0.136652
0.138415
0.139252
0.139238
0.138433
0.136907
0.134712
0.131903
0.128528
0.124629
0.120256
0.115437
0.110214
0.104625
0.0986982
0.092467
0.0859535
0.0791869
0.0721875
0.0649824
0.057575
0.0499985
0.0421925
0.0341954
0.025873
0.0170898
0.00838659
0.00292711
1.29332
1.14809
1.11061
1.06704
1.02032
0.978152
0.93407
0.888093
0.839259
0.78692
0.730639
0.670119
0.605193
0.535742
0.461816
0.383591
0.301398
0.215779
0.127478
0.0374884
-0.052994
-0.142432
-0.229325
-0.311548
-0.387798
-0.455397
-0.513137
-0.560153
-0.595337
-0.618129
-0.628822
-0.628027
-0.61679
-0.596453
-0.568512
-0.534532
-0.496051
-0.454484
-0.411097
-0.366992
-0.323085
-0.280101
-0.238608
-0.199026
-0.161646
-0.126659
-0.0941643
-0.064203
-0.0367642
-0.0117903
0.0107988
0.0311089
0.0492431
0.0653085
0.0794436
0.0917719
0.102408
0.111468
0.119069
0.125308
0.130288
0.134103
0.13684
0.138575
0.139392
0.139359
0.138543
0.137003
0.134799
0.131979
0.12859
0.124684
0.120298
0.115474
0.110245
0.104652
0.0987265
0.0924887
0.0859727
0.0792021
0.0722017
0.0649976
0.0575809
0.0500102
0.0422014
0.0342061
0.0258875
0.0170815
0.00836607
0.00291901
1.29512
1.14991
1.1125
1.06898
1.02237
0.980333
0.936428
0.890684
0.842069
0.790037
0.734119
0.674041
0.609593
0.540705
0.467414
0.389879
0.308464
0.223651
0.136235
0.0471356
-0.0424305
-0.130981
-0.21702
-0.298502
-0.373983
-0.441151
-0.498846
-0.545718
-0.580874
-0.603905
-0.614975
-0.614714
-0.604106
-0.584484
-0.557316
-0.524141
-0.486479
-0.445721
-0.403121
-0.359771
-0.316574
-0.274264
-0.233392
-0.194379
-0.157515
-0.122999
-0.0909313
-0.0613511
-0.0342537
-0.00958272
0.0127351
0.0328003
0.0507222
0.0666054
0.0805785
0.0927642
0.103279
0.112232
0.119738
0.125891
0.130797
0.134551
0.137229
0.138917
0.139694
0.139622
0.138767
0.137199
0.134966
0.132123
0.128721
0.124796
0.120396
0.115556
0.110317
0.104711
0.0987722
0.0925293
0.086006
0.0792315
0.0722303
0.0650165
0.0576004
0.0500189
0.0422155
0.0342185
0.0259145
0.0171285
0.00837642
0.00291413
1.29781
1.15264
1.1153
1.07189
1.02543
0.983577
0.939931
0.894485
0.846257
0.794651
0.739284
0.679809
0.616086
0.548016
0.475637
0.399136
0.318824
0.235242
0.149092
0.0613194
-0.0268984
-0.114164
-0.198926
-0.279356
-0.353798
-0.420382
-0.477613
-0.524265
-0.559487
-0.582858
-0.594511
-0.595015
-0.585351
-0.56679
-0.540763
-0.50878
-0.472322
-0.432761
-0.391331
-0.349096
-0.306958
-0.26563
-0.225674
-0.187501
-0.151408
-0.117591
-0.0861463
-0.0571294
-0.0305344
-0.00631025
0.0156099
0.0353261
0.0529394
0.0685484
0.0822793
0.0942509
0.104577
0.113366
0.120727
0.126755
0.131549
0.135201
0.137798
0.139412
0.140124
0.139994
0.139096
0.137483
0.135213
0.132342
0.128907
0.124956
0.120531
0.115673
0.110419
0.104803
0.0988533
0.0925961
0.0860654
0.0792812
0.0722662
0.0650504
0.0576237
0.050043
0.0422202
0.034225
0.0258952
0.0170899
0.00838165
0.00292529
1.30137
1.15623
1.119
1.0757
1.02945
0.98783
0.944506
0.899463
0.851711
0.800703
0.746002
0.687335
0.62453
0.557507
0.486327
0.411133
0.332289
0.250247
0.165757
0.0796998
-0.00679496
-0.0923512
-0.175516
-0.254489
-0.327698
-0.393329
-0.449959
-0.496343
-0.531622
-0.555415
-0.567777
-0.569282
-0.560822
-0.543636
-0.519098
-0.488669
-0.45379
-0.415793
-0.375886
-0.335119
-0.294361
-0.254334
-0.215576
-0.178506
-0.143419
-0.110509
-0.079891
-0.0516123
-0.0256748
-0.00203639
0.0193641
0.0386139
0.0558132
0.0710644
0.0844813
0.0961796
0.106262
0.11484
0.122017
0.127886
0.132539
0.136067
0.13855
0.14007
0.1407
0.1405
0.139531
0.137862
0.135543
0.132623
0.129154
0.125171
0.120719
0.115836
0.110558
0.104918
0.09895
0.0926781
0.0861338
0.0793419
0.0723184
0.0650892
0.0576564
0.0500641
0.0422497
0.0342457
0.0259303
0.0171414
0.00838596
0.00290765
1.30576
1.1607
1.12358
1.08041
1.03439
0.993078
0.950126
0.905552
0.858383
0.808048
0.754171
0.696451
0.634755
0.569003
0.499236
0.425636
0.34851
0.268356
0.185846
0.101837
0.0174471
-0.066084
-0.147265
-0.224516
-0.296184
-0.360661
-0.416495
-0.462496
-0.497829
-0.522078
-0.535301
-0.537976
-0.530973
-0.515442
-0.492705
-0.464164
-0.431202
-0.395111
-0.357063
-0.318074
-0.27901
-0.240557
-0.203263
-0.167537
-0.133676
-0.101878
-0.0722585
-0.0448795
-0.0197443
0.00317764
0.0239418
0.0426354
0.0593414
0.0741579
0.0871915
0.0985508
0.108338
0.116653
0.123599
0.129263
0.133737
0.13711
0.139464
0.140864
0.141388
0.141097
0.140058
0.138322
0.135941
0.132971
0.129453
0.125429
0.12094
0.116025
0.11072
0.105064
0.0990756
0.092785
0.0862232
0.079415
0.0723759
0.0651422
0.0576983
0.0500987
0.04226
0.0342475
0.0258856
0.0170812
0.00841048
0.00294124
1.31099
1.16596
1.12897
1.08599
1.04022
0.999222
0.956697
0.912637
0.866156
0.816603
0.763642
0.707015
0.646569
0.582245
0.514111
0.442299
0.367165
0.289143
0.208897
0.127257
0.0452293
-0.0359244
-0.114885
-0.19007
-0.259989
-0.323068
-0.37794
-0.423458
-0.458781
-0.483523
-0.497667
-0.50167
-0.496313
-0.482685
-0.462025
-0.435662
-0.404923
-0.371048
-0.335157
-0.298248
-0.261143
-0.224531
-0.188938
-0.154776
-0.122337
-0.0918275
-0.0633756
-0.0370405
-0.012838
0.00925642
0.0292845
0.047319
0.0634458
0.0777514
0.090334
0.101299
0.110736
0.118749
0.12543
0.130864
0.135137
0.138335
0.140529
0.141793
0.142201
0.141809
0.140675
0.13886
0.136409
0.133374
0.129801
0.125729
0.1212
0.116251
0.110919
0.105227
0.0992133
0.0929024
0.0863236
0.0794997
0.0724473
0.0651974
0.0577421
0.0501316
0.042286
0.0342619
0.0258856
0.0170825
0.00842313
0.00295684
1.31702
1.17203
1.13514
1.09239
1.04687
1.00624
0.964158
0.920572
0.874887
0.826283
0.774267
0.718806
0.659741
0.596992
0.530628
0.460807
0.387844
0.312169
0.234426
0.155353
0.0759936
-0.0025886
-0.0790242
-0.151956
-0.219876
-0.281376
-0.335123
-0.380031
-0.415305
-0.440517
-0.455651
-0.461083
-0.457536
-0.445998
-0.427636
-0.403701
-0.375436
-0.344029
-0.310557
-0.275968
-0.24107
-0.206512
-0.172829
-0.140419
-0.109584
-0.0805259
-0.0533817
-0.0282222
-0.00506661
0.0160884
0.0352834
0.0525823
0.0680582
0.0817932
0.0938757
0.104401
0.113454
0.121123
0.127502
0.132668
0.136713
0.139706
0.141728
0.142838
0.14311
0.1426
0.141367
0.139458
0.13693
0.133831
0.130197
0.126072
0.121495
0.116504
0.111133
0.105416
0.0993739
0.0930399
0.0864372
0.0795956
0.0725265
0.065264
0.057798
0.0501744
0.0423262
0.0342964
0.0259636
0.0171711
0.00841433
0.00291601
1.32377
1.17887
1.14215
1.09951
1.0543
1.01403
0.972422
0.929532
0.884469
0.836721
0.785817
0.731637
0.674025
0.612947
0.548486
0.480769
0.410126
0.336962
0.261863
0.185586
0.109015
0.0332508
-0.0405185
-0.110971
-0.176736
-0.236484
-0.288963
-0.33316
-0.368288
-0.393947
-0.410075
-0.416997
-0.415352
-0.406051
-0.390156
-0.36883
-0.343249
-0.314528
-0.283681
-0.251622
-0.219114
-0.18681
-0.155212
-0.12472
-0.0956295
-0.0681582
-0.0424445
-0.0185642
0.00344191
0.0235754
0.0418629
0.0583591
0.0731203
0.0862254
0.0977556
0.107794
0.116416
0.123712
0.129762
0.134646
0.13844
0.141215
0.143048
0.14399
0.144111
0.143476
0.142127
0.14012
0.137505
0.134324
0.130622
0.126443
0.121818
0.116783
0.111371
0.105614
0.0995435
0.0931837
0.0865609
0.0796965
0.0726096
0.0653302
0.0578459
0.0502095
0.0423514
0.0343061
0.0259605
0.0171293
0.00841115
0.00294005
1.33131
1.18644
1.14981
1.10739
1.06243
1.02251
0.981388
0.939114
0.894797
0.84792
0.798152
0.74527
0.689178
0.629842
0.56734
0.50182
0.433584
0.363007
0.290705
0.217281
0.143685
0.0708152
-0.000124322
-0.0679791
-0.131452
-0.18932
-0.24042
-0.283795
-0.318713
-0.344764
-0.361875
-0.370303
-0.370621
-0.363626
-0.350307
-0.331727
-0.30897
-0.28308
-0.255015
-0.225635
-0.195678
-0.16576
-0.136382
-0.107926
-0.0807018
-0.0549211
-0.0307332
-0.00822968
0.0125519
0.0315895
0.0489041
0.0645363
0.0785387
0.090977
0.101918
0.111434
0.119606
0.1265
0.132195
0.136768