# vtk DataFile Version 2.0
tracks
ASCII
DATASET POLYDATA
POINTS 824 float
-0.2 -0.2 -0.01 -0.199978 -0.200001 -0.00999584 -0.193106 -0.200377 -0.00872103 -0.187865 -0.200631
-0.00767688 -0.186628 -0.200687 -0.00742075 -0.177184 -0.201112 -0.00546549 -0.17611 -0.201161 -0.00518813
-0.162607 -0.201784 -0.00159994 -0.15336 -0.202544 0.00185316 -0.151017 -0.202915 0.0028988 -0.1377
-0.205146 0.0089361 -0.130612 -0.207409 0.0132168 -0.125281 -0.209572 0.0168668 -0.112861 -0.216025
0.0258987 -0.112838 -0.216047 0.0259186 -0.10318 -0.225367 0.0344804 -0.10067 -0.227825 0.0366506
-0.0983276 -0.23018 0.0386829 -0.0903921 -0.23822 0.0452278 -0.0885417 -0.239857 0.046533 -0.0815551
-0.245873 0.0512904 -0.0760788 -0.250382 0.0546825 -0.0757234 -0.250661 0.0548856 -0.0638153 -0.260022
0.0617745 -0.0597865 -0.263019 0.064147 -0.0593701 -0.263332 0.0644135 -0.0514632 -0.26926 0.0695066
-0.0423288 -0.275876 0.0753332 -0.039519 -0.277857 0.0771694 -0.0390474 -0.278192 0.0774791 -0.0267485
-0.286902 0.0855812 -0.0242375 -0.288577 0.0874096 -0.0212092 -0.290575 0.089675 -0.0144204 -0.295182
0.0948009 -0.00443096 -0.301467 0.101691 -0.00401268 -0.301646 0.101867 -0.00150819 -0.302713 0.102913
0.0117044 -0.307216 0.108033 0.0244848 -0.308241 0.109031 0.0497407 -0.308309 0.108007 0.0748367
-0.308344 0.103167 0.0856498 -0.308896 0.100165 0.0999073 -0.309781 0.0961747 0.149967 -0.313463
0.0823559 0.199985 -0.316769 0.0733 0.299998 -0.323703 0.0612391 0.4 -0.325829 0.0546391
0.5 -0.327479 0.0514289 0.6 -0.328587 0.0493488 0.7 -0.329152 0.0478978 0.8
-0.329408 0.046845 0.9 -0.329497 0.0460566 1 -0.329498 0.0454502 1.1 -0.329456
0.0449729 1.2 -0.329396 0.0445893 1.3 -0.329332 0.0442753 1.4 -0.329268 0.0440141
1.5 -0.32921 0.0437937 1.6 -0.329157 0.0436053 1.7 -0.32911 0.0434425 1.8
-0.32907 0.0433003 1.9 -0.329034 0.0431751 2 -0.329004 0.0430639 2.1 -0.328977
0.0429646 2.2 -0.328955 0.0428752 2.3 -0.328935 0.0427944 2.4 -0.328918 0.042721
2.5 -0.328904 0.0426541 2.6 -0.328892 0.0425929 2.7 -0.328881 0.0425368 2.8
-0.328871 0.0424851 2.9 -0.328863 0.0424374 3 -0.328856 0.0423934 3.1 -0.32885
0.0423527 3.2 -0.328845 0.042315 3.3 -0.328841 0.04228 3.4 -0.328837 0.0422475
3.5 -0.328833 0.0422174 3.6 -0.32883 0.0421894 3.7 -0.328828 0.0421634 3.8
-0.328825 0.0421393 3.9 -0.328824 0.0421169 4 -0.328822 0.0420961 4.1 -0.32882
0.0420768 4.2 -0.328819 0.0420589 4.3 -0.328818 0.0420424 4.4 -0.328817 0.0420271
4.5 -0.328816 0.042013 4.6 -0.328815 0.042 4.7 -0.328815 0.0419881 4.8
-0.328814 0.0419772 4.9 -0.328814 0.0419672 5 -0.328813 0.0419582 5.1 -0.328813
0.04195 5.2 -0.328813 0.0419428 5.3 -0.328812 0.0419363 5.4 -0.328812 0.0419306
5.5 -0.328812 0.0419257 5.6 -0.328812 0.0419216 5.7 -0.328812 0.0419182 5.8
-0.328812 0.0419155 5.9 -0.328812 0.0419135 6 -0.328812 0.0419123 -6.91738e-17 -0.2
-0.01 0.000139804 -0.200025 -0.0100021 0.0499746 -0.209061 -0.0107453 0.0999895 -0.215859 -0.0119617
0.199997 -0.225381 -0.0146199 0.3 -0.230025 -0.0178541 0.4 -0.232705 -0.0196213 0.5
-0.234453 -0.0209028 0.6 -0.23547 -0.0219289 0.7 -0.236008 -0.0227559 0.8 -0.236273
-0.0234218 0.9 -0.236387 -0.0239611 1 -0.236417 -0.0244021 1.1 -0.236403 -0.0247666
1.2 -0.23637 -0.0250709 1.3 -0.236328 -0.0253278 1.4 -0.236285 -0.0255469 1.5
-0.236244 -0.0257358 1.6 -0.236206 -0.0259001 1.7 -0.236172 -0.0260442 1.8 -0.236142
-0.0261717 1.9 -0.236116 -0.0262852 2 -0.236094 -0.0263869 2.1 -0.236074 -0.0264786
2.2 -0.236058 -0.0265617 2.3 -0.236043 -0.0266373 2.4 -0.236031 -0.0267063 2.5
-0.23602 -0.0267696 2.6 -0.236011 -0.0268277 2.7 -0.236003 -0.0268813 2.8 -0.235996
-0.0269307 2.9 -0.23599 -0.0269765 3 -0.235984 -0.0270188 3.1 -0.23598 -0.0270581
3.2 -0.235976 -0.0270946 3.3 -0.235973 -0.0271285 3.4 -0.23597 -0.02716 3.5
-0.235967 -0.0271893 3.6 -0.235965 -0.0272165 3.7 -0.235963 -0.0272418 3.8 -0.235961
-0.0272654 3.9 -0.23596 -0.0272873 4 -0.235959 -0.0273076 4.1 -0.235958 -0.0273265
4.2 -0.235957 -0.027344 4.3 -0.235956 -0.0273602 4.4 -0.235955 -0.0273752 4.5
-0.235954 -0.027389 4.6 -0.235954 -0.0274017 4.7 -0.235953 -0.0274134 4.8 -0.235953
-0.0274242 4.9 -0.235953 -0.0274339 5 -0.235952 -0.0274428 5.1 -0.235952 -0.0274508
5.2 -0.235952 -0.0274579 5.3 -0.235952 -0.0274643 5.4 -0.235952 -0.0274699 5.5
-0.235952 -0.0274747 5.6 -0.235951 -0.0274788 5.7 -0.235951 -0.0274821 5.8 -0.235951
-0.0274848 5.9 -0.235951 -0.0274868 6 -0.235951 -0.0274879 0.2 -0.2 -0.01
0.200024 -0.200001 -0.0100008 0.3 -0.203678 -0.0131316 0.4 -0.206186 -0.015057 0.5
-0.207832 -0.0164402 0.6 -0.208775 -0.0175279 0.7 -0.20928 -0.0183924 0.8 -0.209534
-0.0190824 0.9 -0.209646 -0.0196377 1 -0.20968 -0.0200896 1.1 -0.209673 -0.0204618
1.2 -0.209646 -0.0207718 1.3 -0.209611 -0.021033 1.4 -0.209574 -0.0212554 1.5
-0.209538 -0.0214468 1.6 -0.209505 -0.0216131 1.7 -0.209475 -0.0217589 1.8 -0.209449
-0.0218876 1.9 -0.209426 -0.0220022 2 -0.209406 -0.0221048 2.1 -0.209388 -0.0221972
2.2 -0.209373 -0.0222808 2.3 -0.20936 -0.0223569 2.4 -0.209349 -0.0224263 2.5
-0.20934 -0.0224899 2.6 -0.209332 -0.0225483 2.7 -0.209324 -0.0226022 2.8 -0.209318
-0.0226518 2.9 -0.209313 -0.0226977 3 -0.209308 -0.0227403 3.1 -0.209304 -0.0227797
3.2 -0.209301 -0.0228163 3.3 -0.209298 -0.0228503 3.4 -0.209295 -0.0228818 3.5
-0.209293 -0.0229112 3.6 -0.209291 -0.0229385 3.7 -0.209289 -0.0229639 3.8 -0.209288
-0.0229875 3.9 -0.209287 -0.0230094 4 -0.209285 -0.0230298 4.1 -0.209284 -0.0230487
4.2 -0.209284 -0.0230663 4.3 -0.209283 -0.0230825 4.4 -0.209282 -0.0230975 4.5
-0.209282 -0.0231114 4.6 -0.209281 -0.0231241 4.7 -0.209281 -0.0231358 4.8 -0.20928
-0.0231466 4.9 -0.20928 -0.0231563 5 -0.20928 -0.0231652 5.1 -0.20928 -0.0231732
5.2 -0.209279 -0.0231804 5.3 -0.209279 -0.0231868 5.4 -0.209279 -0.0231923 5.5
-0.209279 -0.0231972 5.6 -0.209279 -0.0232013 5.7 -0.209279 -0.0232046 5.8 -0.209279
-0.0232073 5.9 -0.209279 -0.0232093 6 -0.209279 -0.0232104 0.4 -0.2 -0.01
0.4 -0.2 -0.01 0.4 -0.2 -0.01 0.5 -0.201626 -0.0114935 0.6
-0.202555 -0.0126471 0.7 -0.203053 -0.013552 0.8 -0.203305 -0.0142679 0.9 -0.203418
-0.0148404 1 -0.203453 -0.015304 1.1 -0.203448 -0.0156844 1.2 -0.203422 -0.0160004
1.3 -0.203389 -0.0162659 1.4 -0.203353 -0.0164917 1.5 -0.203318 -0.0166856 1.6
-0.203286 -0.0168538 1.7 -0.203257 -0.0170011 1.8 -0.203232 -0.0171311 1.9 -0.20321
-0.0172466 2 -0.20319 -0.01735 2.1 -0.203173 -0.017443 2.2 -0.203159 -0.0175272
2.3 -0.203147 -0.0176037 2.4 -0.203136 -0.0176735 2.5 -0.203126 -0.0177374 2.6
-0.203118 -0.0177961 2.7 -0.203112 -0.0178502 2.8 -0.203106 -0.0179 2.9 -0.2031
-0.0179461 3 -0.203096 -0.0179888 3.1 -0.203092 -0.0180283 3.2 -0.203089 -0.018065
3.3 -0.203086 -0.0180991 3.4 -0.203083 -0.0181307 3.5 -0.203081 -0.0181602 3.6
-0.203079 -0.0181876 3.7 -0.203078 -0.018213 3.8 -0.203076 -0.0182366 3.9 -0.203075
-0.0182586 4 -0.203074 -0.0182791 4.1 -0.203073 -0.018298 4.2 -0.203072 -0.0183156
4.3 -0.203071 -0.0183318 4.4 -0.203071 -0.0183469 4.5 -0.20307 -0.0183607 4.6
-0.20307 -0.0183735 4.7 -0.203069 -0.0183853 4.8 -0.203069 -0.018396 4.9 -0.203069
-0.0184058 5 -0.203068 -0.0184147 5.1 -0.203068 -0.0184227 5.2 -0.203068 -0.0184299
5.3 -0.203068 -0.0184363 5.4 -0.203068 -0.0184418 5.5 -0.203068 -0.0184467 5.6
-0.203068 -0.0184508 5.7 -0.203067 -0.0184541 5.8 -0.203067 -0.0184568 5.9 -0.203067
-0.0184588 6 -0.203067 -0.01846 -0.2 3.54365e-17 -0.01 -0.197474 1.3448e-06 -0.00957101
-0.187698 5.51257e-06 -0.0079211 -0.174873 5.65045e-06 -0.00571444 -0.152704 -2.47208e-06 -0.00187377 -0.149582
-4.79263e-06 -0.00150328 -0.129916 -1.93869e-05 0.000541863 -0.124759 -2.33104e-05 0.000623265 -0.0998863 -4.23089e-05
0.000431665 -0.0966386 -4.43137e-05 0.00016703 -0.0499728 -7.0437e-05 -0.00370687 6.27999e-06 -8.86271e-05 -0.00892148
0.100001 -0.00011863 -0.016976 0.2 -0.000133648 -0.021304 0.3 -0.000141984 -0.0240117 0.4
-0.000146845 -0.0258862 0.5 -0.000149635 -0.0272488 0.6 -0.00015125 -0.0282832 0.7 -0.000152183
-0.0290927 0.8 -0.000152719 -0.0297385 0.9 -0.00015302 -0.0302614 1 -0.000153185 -0.0306903
1.1 -0.000153275 -0.0310462 1.2 -0.000153318 -0.0313447 1.3 -0.000153341 -0.0315975 1.4
-0.000153354 -0.031814 1.5 -0.000153355 -0.0320011 1.6 -0.000153347 -0.0321642 1.7 -0.000153336
-0.0323076 1.8 -0.000153324 -0.0324345 1.9 -0.000153313 -0.0325476 2 -0.000153303 -0.0326491
2.1 -0.000153293 -0.0327407 2.2 -0.000153285 -0.0328236 2.3 -0.000153278 -0.0328991 2.4
-0.000153273 -0.0329681 2.5 -0.000153272 -0.0330313 2.6 -0.00015327 -0.0330895 2.7 -0.000153268
-0.033143 2.8 -0.000153266 -0.0331924 2.9 -0.000153264 -0.0332382 3 -0.000153263 -0.0332805
3.1 -0.000153263 -0.0333198 3.2 -0.000153263 -0.0333563 3.3 -0.000153265 -0.0333901 3.4
-0.000153269 -0.0334216 3.5 -0.000153274 -0.0334509 3.6 -0.000153276 -0.0334781 3.7 -0.000153279
-0.0335034 3.8 -0.000153284 -0.033527 3.9 -0.000153291 -0.0335488 4 -0.000153299 -0.0335692
4.1 -0.000153311 -0.033588 4.2 -0.000153328 -0.0336055 4.3 -0.000153346 -0.0336217 4.4
-0.00015336 -0.0336367 4.5 -0.000153372 -0.0336505 4.6 -0.000153386 -0.0336633 4.7 -0.000153403
-0.0336749 4.8 -0.000153422 -0.0336857 4.9 -0.000153441 -0.0336954 5 -0.000153461 -0.0337043
5.1 -0.000153484 -0.0337123 5.2 -0.00015351 -0.0337194 5.3 -0.000153535 -0.0337258 5.4
-0.000153559 -0.0337313 5.5 -0.000153582 -0.0337362 5.6 -0.000153602 -0.0337402 5.7 -0.00015362
-0.0337436 5.8 -0.000153636 -0.0337462 5.9 -0.000153643 -0.0337482 6 -0.000153651 -0.0337494
-1.61646e-16 3.29607e-17 -0.01 6.19883e-06 -1.52992e-09 -0.0100005 5.83844e-05 -1.44095e-08 -0.0100046 0.100001
-2.42238e-05 -0.0180969 0.2 -3.7046e-05 -0.0223664 0.3 -4.38201e-05 -0.0250391 0.4 -4.75504e-05
-0.0268922 0.5 -4.96085e-05 -0.0282413 0.6 -5.07797e-05 -0.0292667 0.7 -5.14606e-05 -0.0300702
0.8 -5.18629e-05 -0.030712 0.9 -5.21006e-05 -0.0312319 1 -5.22431e-05 -0.0316588 1.1
-5.23322e-05 -0.0320132 1.2 -5.23864e-05 -0.0323105 1.3 -5.24251e-05 -0.0325626 1.4 -5.24554e-05
-0.0327784 1.5 -5.2473e-05 -0.032965 1.6 -5.24818e-05 -0.0331277 1.7 -5.24851e-05 -0.0332708
1.8 -5.24861e-05 -0.0333975 1.9 -5.24868e-05 -0.0335104 2 -5.2486e-05 -0.0336118 2.1
[...]
POINT_DATA 824
FIELD attributes 2
age 1 824 float
0 2.28723e-06 0.000703565 0.00128838 0.00143561 0.00256956 0.0027213 0.00468015 0.00573744 0.00603958 0.00778667
0.00872843 0.00951341 0.0115569 0.011562 0.0137508 0.01432 0.0148596 0.0166986 0.0170846 0.0185126
0.0195904 0.0196582 0.0219375 0.0226917 0.0227724 0.024309 0.0261107 0.0266702 0.0267635 0.0291924
0.0296916 0.0302991 0.0316815 0.0336521 0.0337303 0.0341931 0.0361494 0.0375282 0.0400066 0.0425011
0.0436524 0.0452026 0.0508111 0.056397 0.0676922 0.0784136 0.0888995 0.0992336 0.10947 0.119642
0.129771 0.13987 0.149948 0.16001 0.170059 0.1801 0.190133 0.20016 0.210182 0.220201
0.230217 0.240231 0.250242 0.260251 0.270259 0.280266 0.290272 0.300277 0.310281 0.320285
0.330287 0.34029 0.350292 0.360294 0.370295 0.380296 0.390297 0.400298 0.410298 0.420298
0.430298 0.440298 0.450298 0.460298 0.470298 0.480298 0.490297 0.500297 0.510296 0.520295
0.530295 0.540294 0.550293 0.560293 0.570292 0.580291 0.59029 0.60029 0.610289 0.620288
0.630287 0.640286 0 1.65998e-05 0.00593354 0.0117383 0.023043 0.03395 0.0445157 0.0549085
0.0651959 0.0754118 0.0855772 0.095706 0.105808 0.115888 0.125954 0.136006 0.14605 0.156085
0.166115 0.176139 0.18616 0.196177 0.206192 0.216204 0.226214 0.236223 0.246231 0.256237
0.266242 0.276247 0.286251 0.296254 0.306257 0.316259 0.326261 0.336263 0.346264 0.356265
0.366266 0.376266 0.386267 0.396267 0.406267 0.416267 0.426267 0.436267 0.446267 0.456266
0.466266 0.476266 0.486265 0.496265 0.506264 0.516263 0.526263 0.536262 0.546261 0.55626
0.56626 0.576259 0.586258 0.596257 0.606256 0 2.62977e-06 0.0107509 0.0212548 0.0316165
0.0418847 0.0520895 0.0622486 0.0723737 0.0824731 0.0925529 0.102617 0.11267 0.122713 0.132749
0.142778 0.152803 0.162823 0.172841 0.182855 0.192867 0.202878 0.212887 0.222894 0.232901
0.242906 0.252911 0.262915 0.272918 0.282921 0.292923 0.302925 0.312927 0.322928 0.332929
0.34293 0.35293 0.362931 0.372931 0.382931 0.392931 0.402931 0.412931 0.422931 0.43293
0.44293 0.452929 0.462929 0.472928 0.482928 0.492927 0.502926 0.512926 0.522925 0.532924
0.542923 0.552923 0.562922 0.572921 0.58292 0 0 0 0.0103561 0.0206201
0.0308221 0.0409794 0.0511034 0.0612021 0.0712814 0.0813456 0.0913979 0.101441 0.111476 0.121506
0.13153 0.141551 0.151568 0.161583 0.171595 0.181605 0.191614 0.201622 0.211628 0.221634
0.231638 0.241642 0.251645 0.261648 0.27165 0.281652 0.291654 0.301655 0.311656 0.321657
0.331658 0.341658 0.351658 0.361658 0.371659 0.381658 0.391658 0.401658 0.411658 0.421657
0.431657 0.441656 0.451656 0.461655 0.471654 0.481654 0.491653 0.501652 0.511652 0.521651
0.53165 0.541649 0.551648 0.561648 0 0.000332565 0.00161477 0.00326856 0.00616175 0.00657681
0.00918 0.00985037 0.0130583 0.0134478 0.0190157 0.0244546 0.0352566 0.0457444 0.0560922 0.0663734
0.0766085 0.0868065 0.0969719 0.107109 0.117222 0.127315 0.137391 0.147454 0.157506 0.16755
0.177586 0.187616 0.197641 0.207662 0.21768 0.227695 0.237707 0.247718 0.257727 0.267735
0.277742 0.287747 0.297752 0.307756 0.317759 0.327762 0.337765 0.347767 0.357768 0.36777
0.377771 0.387772 0.397772 0.407773 0.417773 0.427773 0.437773 0.447773 0.457773 0.467773
0.477773 0.487772 0.497772 0.507771 0.517771 0.52777 0.537769 0.547769 0.557768 0.567767
0.577767 0.587766 0.597765 0.607764 0.617764 0.627763 0 6.69935e-07 6.30986e-06 0.0107594
0.0212473 0.0315955 0.0418769 0.0521123 0.0623104 0.072476 0.082613 0.092726 0.102819 0.112896
0.122959 0.133011 0.143054 0.15309 0.16312 0.173145 0.183166 0.193184 0.203199 0.213212
0.223223 0.233232 0.24324 0.253246 0.263252 0.273257 0.283261 0.293264 0.303267 0.313269
0.323271 0.333273 0.343274 0.353275 0.363276 0.373277 0.383277 0.393278 0.403278 0.413278
0.423278 0.433278 0.443277 0.453277 0.463277 0.473276 0.483276 0.493275 0.503275 0.513274
0.523273 0.533273 0.543272 0.553271 0.56327 0.57327 0.583269 0.593268 0.603267 0
0 1.02392e-06 0.0103433 0.0206213 0.0308541 0.0410504 0.0512145 0.0613504 0.0714624 0.0815546
0.0916305 0.101693 0.111745 0.121788 0.131824 0.141853 0.151878 0.161899 0.171917 0.181932
0.191944 0.201955 0.211964 0.221972 0.231978 0.241984 0.251989 0.261993 0.271996 0.281999
0.292001 0.302003 0.312005 0.322006 0.332007 0.342008 0.352009 0.362009 0.37201 0.38201
0.39201 0.40201 0.41201 0.422009 0.432009 0.442009 0.452008 0.462008 0.472007 0.482006
0.492006 0.502005 0.512004 0.522004 0.532003 0.542002 0.552001 0.562001 0.572 0.581999
0 2.27162e-17 2.34633e-07 0.0102318 0.0204272 0.0305906 0.040726 0.0508376 0.0609295 0.0710052
0.0810676 0.0911192 0.101162 0.111198 0.121227 0.131252 0.141273 0.151291 0.161305 0.171318
0.181329 0.191338 0.201345 0.211352 0.221357 0.231362 0.241366 0.251369 0.261372 0.271375
0.281377 0.291378 0.30138 0.311381 0.321381 0.331382 0.341383 0.351383 0.361383 0.371383
0.381383 0.391383 0.401382 0.411382 0.421382 0.431381 0.441381 0.45138 0.46138 0.471379
0.481378 0.491378 0.501377 0.511376 0.521375 0.531375 0.541374 0.551373 0.561372 0
2.18735e-06 0.000703501 0.00128906 0.00143659 0.00256461 0.00272352 0.00468405 0.00574274 0.00604452 0.00779312
0.00873823 0.00952221 0.0115729 0.0115737 0.0137631 0.0143472 0.0148986 0.016695 0.0171194 0.0186468
0.0196038 0.0196099 0.0219352 0.0226989 0.0227967 0.0243116 0.0261354 0.0266362 0.0267936 0.0292703
0.0298985 0.0302016 0.0318106 0.0335405 0.0340655 0.034292 0.0361907 0.0375533 0.0400185 0.0425446
0.0435941 0.0452551 0.0508805 0.0564677 0.0677499 0.0784678 0.088931 0.0992521 0.109483 0.119652
0.12978 0.139878 0.149956 0.160017 0.170067 0.180107 0.19014 0.200167 0.21019 0.220209
0.230225 0.240238 0.250249 0.260259 0.270267 0.280274 0.29028 0.300285 0.310289 0.320292
0.330295 0.340298 0.3503 0.360301 0.370303 0.380304 0.390305 0.400305 0.410306 0.420306
0.430306 0.440306 0.450306 0.460306 0.470306 0.480305 0.490305 0.500304 0.510304 0.520303
0.530303 0.540302 0.550301 0.5603 0.5703 0.580299 0.590298 0.600297 0.610296 0.620296
0.630295 0.640294 0 1.60386e-05 0.00592644 0.0117237 0.0230189 0.0339222 0.0445018 0.0548968
0.0651853 0.0754017 0.0855673 0.0956962 0.105798 0.115879 0.125944 0.135997 0.14604 0.156075
0.166105 0.17613 0.18615 0.196167 0.206182 0.216194 0.226205 0.236213 0.246221 0.256227
0.266233 0.276237 0.286241 0.296245 0.306247 0.31625 0.326252 0.336253 0.346254 0.356255
0.366256 0.376257 0.386257 0.396258 0.406258 0.416258 0.426258 0.436258 0.446257 0.456257
0.466257 0.476256 0.486256 0.496255 0.506254 0.516254 0.526253 0.536252 0.546252 0.556251
0.56625 0.576249 0.586249 0.596248 0.606247 0 2.63312e-06 0.0107486 0.0212547 0.0316169
0.0418854 0.0520904 0.0622495 0.0723746 0.082474 0.0925538 0.102618 0.112671 0.122714 0.132749
0.142779 0.152804 0.162824 0.172841 0.182856 0.192868 0.202879 0.212888 0.222895 0.232902
0.242907 0.252912 0.262916 0.272919 0.282922 0.292924 0.302926 0.312927 0.322929 0.33293
0.342931 0.352931 0.362932 0.372932 0.382932 0.392932 0.402932 0.412932 0.422932 0.432931
0.442931 0.45293 0.46293 0.472929 0.482929 0.492928 0.502927 0.512927 0.522926 0.532925
0.542924 0.552924 0.562923 0.572922 0.582921 0 4.59772e-17 0.0103557 0.0206196 0.0308216
0.0409789 0.0511029 0.0612016 0.0712808 0.081345 0.0913973 0.10144 0.111476 0.121505 0.13153
0.14155 0.151568 0.161582 0.171594 0.181605 0.191614 0.201621 0.211628 0.221633 0.231638
0.241641 0.251645 0.261647 0.27165 0.281652 0.291653 0.301655 0.311656 0.321656 0.331657
0.341657 0.351658 0.361658 0.371658 0.381658 0.391658 0.401657 0.411657 0.421657 0.431656
0.441656 0.451655 0.461654 0.471654 0.481653 0.491652 0.501652 0.511651 0.52165 0.531649
0.541649 0.551648 0.561647 
U 3 824 float
9.7978 -0.536716 1.81742 9.79841 -0.536482 1.81785 8.96154 -0.434068 1.78543 8.40299 -0.378004
1.7397 8.32858 -0.374657 1.72429 7.07551 -0.325328 1.82788 6.89362 -0.317931 1.83178
8.7458 -0.719082 3.26599 7.75556 -1.22737 3.46077 7.622 -1.27692 3.45563 7.52657
-2.40297 4.54542 6.79193 -2.75571 4.64981 6.0778 -3.15787 4.41985 4.41219 -4.25779
3.91082 4.41227 -4.25799 3.91154 4.41014 -4.31828 3.8132 4.34149 -4.36384 3.76609
4.31517 -4.37222 3.55899 4.79294 -4.23948 3.3808 4.89271 -4.21339 3.3316 5.08086
-4.18318 3.14712 5.24422 -4.11043 2.99786 5.22444 -4.10712 3.02235 5.34167 -3.97383
3.14561 5.16202 -3.88082 3.30388 5.1459 -3.85765 3.3146 5.06975 -3.67205 3.23388
5.02162 -3.54185 3.28169 5.0579 -3.5889 3.32175 5.06361 -3.58588 3.33573 5.02991
-3.35651 3.66248 4.98487 -3.28811 3.72902 4.91093 -3.33278 3.70805 5.069 -3.18912
3.49635 5.35011 -2.29347 2.25333 5.4125 -2.30638 2.25981 6.75357 -2.30133 2.61728
9.26962 -0.743583 0.723537 10.1903 -0.0274649 -0.413134 10.0607 -0.0142154 -1.94023 9.39192
-0.479447 -2.60777 9.19688 -0.570306 -2.57386 8.92562 -0.65659 -2.46391 8.95454 -0.59187
-1.62122 8.85446 -0.61386 -1.06779 9.32723 -0.198274 -0.615585 9.53665 -0.157424 -0.306151
9.67677 -0.107213 -0.201284 9.76896 -0.0551917 -0.14175 9.8311 -0.0251494 -0.103496 9.87239
-0.00877096 -0.0778397 9.9016 -7.33335e-05 -0.0600406 9.92295 0.00413484 -0.047359 9.93877 0.00592774
-0.0381286 9.9507 0.00644391 -0.031247 9.9599 0.00630113 -0.0260157 9.96711 0.0058429 -0.0219685
9.97282 0.00525811 -0.018786 9.97741 0.00464699 -0.0162455 9.98113 0.00406212 -0.0141891 9.98417
0.0035271 -0.012502 9.98668 0.00304922 -0.0111015 9.98876 0.00263003 -0.009926 9.99049 0.00226569
-0.00892762 9.99195 0.00195067 -0.00807186 9.99318 0.00168006 -0.00733202 9.99422 0.00144751 -0.00668629
9.99511 0.00124763 -0.00611834 9.99586 0.00107666 -0.00561513 9.99651 0.000930193 -0.00516655 9.99707
0.000804114 -0.00476403 9.99755 0.000695816 -0.00440039 9.99797 0.000602794 -0.00407084 9.99833 0.000522917
-0.00377097 9.99864 0.000454081 -0.00349662 9.99891 0.000394026 -0.0032447 9.99916 0.000342122 -0.00301248
9.99937 0.000297762 -0.002798 9.99955 0.000259117 -0.00259907 9.99971 0.000225399 -0.00241389 9.99986
0.000196257 -0.00224154 9.99999 0.000170837 -0.00208048 10.0001 0.000148924 -0.00192938 10.0002 0.000129824
-0.00178769 10.0003 0.000113162 -0.0016547 10.0004 9.87435e-05 -0.00152935 10.0004 8.57269e-05 -0.00141092
10.0005 7.43739e-05 -0.00129862 10.0005 6.43414e-05 -0.00119209 10.0006 5.53564e-05 -0.00109085 10.0006
4.76677e-05 -0.00099444 10.0007 4.08504e-05 -0.000902542 10.0007 3.46315e-05 -0.000813955 10.0007 2.91703e-05
-0.000728561 10.0008 2.42052e-05 -0.000646363 10.0008 1.98133e-05 -0.000566699 10.0008 1.60809e-05 -0.00048966
10.0008 1.27849e-05 -0.000414804 10.0008 1.02678e-05 -0.000341675 10.0008 7.62549e-06 -0.000268858 10.0009
5.27428e-06 -0.000201002 10.0008 2.73695e-06 -0.000120396 10.0008 9.48663e-07 -7.09263e-05 8.42203 -1.52791
-0.125017 8.4224 -1.52704 -0.125613 8.61613 -1.17121 -0.209545 8.84656 -0.842271 -0.235143
9.16874 -0.425763 -0.296525 9.46456 -0.253642 -0.167256 9.62202 -0.16826 -0.123312 9.72068
-0.0987924 -0.099742 9.78866 -0.0526474 -0.0809492 9.83725 -0.0261568 -0.0655034 9.87284 -0.0112056
-0.053249 9.89948 -0.00295689 -0.043656 9.91976 0.00132194 -0.0361548 9.93535 0.003333 -0.0302392
9.94745 0.00413716 -0.0255515 9.95696 0.00429217 -0.0218186 9.96452 0.00411105 -0.0188183 9.97059
0.00377254 -0.0163802 9.9755 0.00337579 -0.0143789 9.97949 0.00297499 -0.0127202 9.98277 0.00259686
-0.0113314 9.98548 0.00225296 -0.0101587 9.98773 0.00194802 -0.00915914 9.98961 0.00168085 -0.00829839
9.99119 0.00144864 -0.0075515 9.99252 0.00124857 -0.00689837 9.99364 0.00107587 -0.00632246 9.9946
0.000927314 -0.00581133 9.99541 0.000800552 -0.00535455 9.99611 0.000691438 -0.00494391 9.99672 0.000597157
-0.00457253 9.99723 0.000516865 -0.0042352 9.99768 0.000448283 -0.00392813 9.99807 0.000388685 -0.00364664
9.99841 0.000336981 -0.00338746 9.99871 0.000292492 -0.00314893 9.99897 0.000254097 -0.00292831 9.99919
0.000220631 -0.00272312 9.99939 0.000192084 -0.00253254 9.99957 0.000167484 -0.00235499 9.99972 0.00014579
-0.00218913 9.99985 0.000126459 -0.00203365 9.99997 0.000109778 -0.00188719 10.0001 9.61472e-05 -0.00174992
10.0002 8.40285e-05 -0.00162083 10.0003 7.29118e-05 -0.00149863 10.0003 6.31308e-05 -0.00138316 10.0004
5.48458e-05 -0.0012737 10.0005 4.73817e-05 -0.00116978 10.0005 4.0783e-05 -0.00107111 10.0006 3.5004e-05
-0.000976552 10.0006 2.92646e-05 -0.000885759 10.0006 2.46181e-05 -0.000799152 10.0007 2.10301e-05 -0.000716291
10.0007 1.75553e-05 -0.00063588 10.0007 1.44654e-05 -0.000557717 10.0007 1.17215e-05 -0.000482006 10.0008
9.10886e-06 -0.00040821 10.0008 7.21622e-06 -0.000336194 10.0008 5.40456e-06 -0.00026468 10.0008 3.8904e-06
-0.000198073 10.0008 2.01018e-06 -0.000118303 10.0008 5.02996e-07 -6.9195e-05 9.3015 -0.342126 -0.291323
9.30156 -0.3421 -0.291292 9.5203 -0.238791 -0.183299 9.65086 -0.158821 -0.133494 9.73884
-0.091873 -0.105931 9.79931 -0.0494391 -0.0847078 9.84341 -0.0250183 -0.0679181 9.87643 -0.0111206
-0.0548454 9.90154 -0.00337011 -0.0447465 9.92089 0.000717749 -0.036927 9.93594 0.00267462 -0.0308067
9.94774 0.00349686 -0.0259794 9.95709 0.00370319 -0.0221467 9.96456 0.00358531 -0.019073 9.97057
0.00331106 -0.0165804 9.97546 0.00297501 -0.0145383 9.97944 0.00262905 -0.0128482 9.98272 0.0022991
-0.0114351 9.98543 0.00199721 -0.0102434 9.98769 0.00172848 -0.00922882 9.98957 0.00149239 -0.00835612
9.99115 0.00128685 -0.00759957 9.99249 0.00110955 -0.00693859 9.99362 0.000956304 -0.00635634 9.99458
0.000824321 -0.00584004 9.9954 0.000711745 -0.00537898 9.9961 0.000614762 -0.00496483 9.99671 0.00053083
-0.00459045 9.99723 0.000459567 -0.0042506 9.99768 0.000398755 -0.00394154 9.99807 0.000345598 -0.00365824
9.99841 0.00029951 -0.00339746 9.9987 0.000260093 -0.00315774 9.99896 0.000225938 -0.00293614 9.99919
0.00019608 -0.00272996 9.99939 0.000170807 -0.00253861 9.99957 0.000149011 -0.00236044 9.99972 0.000129658
-0.00219387 9.99985 0.000112283 -0.00203787 9.99997 9.73776e-05 -0.00189103 10.0001 8.54349e-05 -0.00175329
10.0002 7.4706e-05 -0.00162379 10.0003 6.47303e-05 -0.00150127 10.0003 5.59776e-05 -0.00138553 10.0004
4.8612e-05 -0.00127583 10.0005 4.19528e-05 -0.00117168 10.0005 3.60599e-05 -0.00107278 10.0006 3.09301e-05
-0.000978021 10.0006 2.57141e-05 -0.000887134 10.0006 2.15077e-05 -0.000800446 10.0007 1.83298e-05 -0.000717467
10.0007 1.53023e-05 -0.000636924 10.0007 1.25583e-05 -0.000558624 10.0007 1.02073e-05 -0.000482709 10.0008
7.96361e-06 -0.000408812 10.0008 6.2028e-06 -0.000336738 10.0008 4.64411e-06 -0.000265094 10.0008 3.42093e-06
-0.000198403 10.0008 1.74571e-06 -0.000118471 10.0008 3.37307e-07 -6.92439e-05 9.65618 -0.157003 -0.144217
9.65618 -0.157003 -0.144217 9.65618 -0.157003 -0.144217 9.74279 -0.0905612 -0.112393 9.80194
-0.0488165 -0.0886987 9.84511 -0.0248109 -0.0704817 9.87754 -0.0111309 -0.0565431 9.90226 -0.00348378
-0.0459045 9.92135 0.000565154 -0.0377415 9.93624 0.00251233 -0.0313976 9.94794 0.0033405 -0.026418
9.95723 0.00355986 -0.0224772 9.96465 0.00345753 -0.0193254 9.97064 0.00319893 -0.0167759 9.97551
0.00287763 -0.0146917 9.97948 0.002545 -0.01297 9.98276 0.0022268 -0.0115328 9.98546 0.00193514
-0.0103225 9.98771 0.0016752 -0.00929351 9.98959 0.00144666 -0.00840938 9.99117 0.0012476 -0.00764369
9.9925 0.00107584 -0.00697541 9.99363 0.000927327 -0.00638726 9.99459 0.000799369 -0.00586615 9.99541
0.000690239 -0.00540117 9.99611 0.000596196 -0.00498379 9.99672 0.00051478 -0.00460672 9.99724 0.00044571
-0.00426461 9.99769 0.000386768 -0.00395368 9.99808 0.000335177 -0.00366879 9.99841 0.00029046 -0.00340666
9.99871 0.00025226 -0.00316581 9.99897 0.000219122 -0.00294327 9.9992 0.000190147 -0.00273624 9.9994
0.000165662 -0.00254418 9.99957 0.000144533 -0.0023654 9.99973 0.000125758 -0.00219827 9.99986 0.000108854
-0.0020418 9.99997 9.43737e-05 -0.00189456 10.0001 8.28459e-05 -0.00175644 10.0002 7.24562e-05 -0.00162661
10.0003 6.2757e-05 -0.0015038 10.0004 5.42537e-05 -0.00138781 10.0004 4.71112e-05 -0.00127787 10.0005
4.06425e-05 -0.00117351 10.0005 3.49166e-05 -0.00107442 10.0006 2.99446e-05 -0.000979473 10.0006 2.48524e-05
-0.000888454 10.0006 2.07476e-05 -0.000801646 10.0007 1.76684e-05 -0.00071854 10.0007 1.47459e-05 -0.000637869
10.0007 1.2077e-05 -0.000559428 10.0007 9.83177e-06 -0.000483364 10.0008 7.68565e-06 -0.000409368 10.0008
5.95088e-06 -0.000337212 10.0008 4.44467e-06 -0.000265446 10.0008 3.28987e-06 -0.00019866 10.0008 1.68188e-06
-0.000118643 10.0008 3.09458e-07 -6.93604e-05 7.59632 0.00404372 1.28994 7.62426 0.00325048 1.28678
7.75481 8.33695e-05 1.3343 7.6625 -0.00280746 1.32748 7.52127 -0.00559092 0.89264 7.55481
-0.00560628 0.785628 7.69261 -0.00585281 0.121429 7.75332 -0.00592229 -0.0597261 8.33875 -0.00514751
-0.679479 8.38124 -0.00469178 -0.695758 9.18918 -0.00334444 -0.958759 9.25704 -0.00277755 -0.745648
9.53481 -0.00143189 -0.412677 9.66387 -0.000805659 -0.261663 9.72657 -0.000472737 -0.182325 9.77024
-0.000272625 -0.133134 9.80585 -0.000158326 -0.101426 9.83727 -9.18106e-05 -0.0796309 9.86486 -5.29026e-05
-0.0637112 9.88838 -2.97816e-05 -0.0517037 9.90797 -1.63503e-05 -0.0424962 9.92407 -8.87039e-06 -0.0353217
9.93728 -4.31118e-06 -0.0296586 9.94811 -2.29219e-06 -0.0251568 9.95695 -1.28521e-06 -0.0215538 9.96417
-4.18606e-08 -0.0186412 9.97008 7.19999e-07 -0.0162614 9.97494 1.1286e-06 -0.0142997 9.97895 1.19668e-06
-0.012667 9.98227 1.05287e-06 -0.0112957 9.98503 1.06465e-06 -0.0101344 9.98733 9.94597e-07 -0.0091418
9.98926 7.32559e-07 -0.00828674 9.99088 7.36678e-07 -0.00754387 9.99225 4.93609e-07 -0.00689275 9.99341
1.60177e-07 -0.00631809 9.9944 1.86425e-07 -0.00580783 9.99524 1.98126e-07 -0.00535211 9.99596 1.96415e-07
-0.00494202 9.99659 1.50137e-07 -0.00457065 9.99712 9.70878e-08 -0.00423364 9.99758 2.94569e-08 -0.00392681
9.99799 1.16339e-08 -0.00364529 9.99834 -1.68854e-07 -0.00338657 9.99864 -4.71389e-07 -0.00314808 9.99891
-4.98993e-07 -0.00292715 9.99914 -2.21111e-07 -0.00272258 9.99934 -2.51489e-07 -0.00253189 9.99953 -5.45754e-07
-0.00235347 9.99968 -6.71365e-07 -0.00218772 9.99982 -8.07363e-07 -0.00203284 9.99994 -1.15442e-06 -0.00188668
10.0001 -1.69675e-06 -0.00174898 10.0002 -1.82786e-06 -0.00161953 10.0003 -1.4131e-06 -0.00149764 10.0003
-1.13792e-06 -0.00138219 10.0004 -1.40458e-06 -0.00127282 10.0005 -1.69364e-06 -0.00116941 10.0005 -1.9481e-06
-0.00107052 10.0006 -1.93915e-06 -0.000975685 10.0006 -1.92079e-06 -0.000885463 10.0006 -2.35025e-06 -0.000799117
10.0007 -2.57741e-06 -0.000715746 10.0007 -2.53732e-06 -0.000635434 10.0007 -2.41721e-06 -0.000557698 10.0007
-2.26665e-06 -0.000481888 10.0008 -1.95501e-06 -0.000408214 10.0008 -1.83087e-06 -0.000336157 10.0008 -1.57276e-06
-0.000264875 10.0008 -7.19174e-07 -0.000198803 10.0008 -7.83669e-07 -0.000118825 10.0008 -1.34921e-06 -6.94287e-05
9.25288 -0.00228368 -0.734231 9.2529 -0.00228365 -0.734227 9.29426 -0.00225138 -0.752548 9.53475
-0.00122257 -0.407092 9.6635 -0.000654614 -0.258277 9.72631 -0.000362821 -0.180236 9.77005 -0.000201078
-0.131807 9.80571 -0.000114842 -0.100553 9.83715 -6.69859e-05 -0.0790408 9.86477 -3.96817e-05 -0.0633049
9.88831 -2.35092e-05 -0.0514184 9.90791 -1.41169e-05 -0.0422916 9.92402 -8.8435e-06 -0.0351719 9.93724
-5.38224e-06 -0.029547 9.94808 -3.85663e-06 -0.0250727 9.95692 -3.01265e-06 -0.0214897 9.96414 -1.75191e-06
-0.018592 9.97006 -8.82299e-07 -0.0162232 9.97492 -3.27302e-07 -0.0142696 9.97894 -9.54575e-08 -0.0126432
9.98226 -7.57762e-08 -0.0112765 9.98502 8.18793e-08 -0.0101189 9.98732 1.37562e-07 -0.00912916 9.98925
-7.60385e-09 -0.00827635 9.99087 1.0198e-07 -0.00753527 9.99224 -5.51138e-08 -0.00688559 9.9934 -3.15052e-07
-0.00631209 9.99439 -2.2288e-07 -0.00580277 9.99524 -1.54819e-07 -0.00534782 9.99596 -1.08498e-07 -0.00493836
9.99658 -1.12642e-07 -0.00456751 9.99712 -1.30245e-07 -0.00423094 9.99758 -1.68082e-07 -0.00392447 9.99798
-1.58685e-07 -0.00364325 9.99833 -3.16999e-07 -0.00338479 9.99864 -5.99726e-07 -0.00314652 9.9989 -6.08013e-07
-0.00292579 9.99914 -3.16987e-07 -0.00272137 9.99934 -3.38233e-07 -0.00253081 9.99952 -6.224e-07 -0.00235252
9.99968 -7.36267e-07 -0.00218688 9.99982 -8.62133e-07 -0.00203209 9.99994 -1.2035e-06 -0.001886 10.0001
-1.73875e-06 -0.00174837 10.0002 -1.86115e-06 -0.00161898 10.0003 -1.44615e-06 -0.00149715 10.0003 -1.17097e-06