/*--------------------------------*- C++ -*----------------------------------*\
  =========                 |
  \\      /  F ield         | OpenFOAM: The Open Source CFD Toolbox
   \\    /   O peration     | Website:  https://openfoam.org
    \\  /    A nd           | Version:  11
     \\/     M anipulation  |
\*---------------------------------------------------------------------------*/
FoamFile
{
    format      ascii;
    class       volScalarField;
    location    "0.042";
    object      k;
}
// * * * * * * * * * * * * * * * * * * * * * * * * * * * * * * * * * * * * * //

dimensions      [0 2 -2 0 0 0 0];

internalField   nonuniform List<scalar> 
287084
(
0.382124
0.39604
0.404967
0.408998
0.409991
0.410023
0.409973
0.409817
0.409878
0.410114
0.410119
0.410129
0.410081
0.410011
0.409976
0.409867
0.40997
0.410219
0.410043
0.410147
0.410269
0.41016
0.410159
0.410169
0.410163
0.409988
0.410035
0.410185
0.410171
0.410156
0.410082
0.410007
0.40982
0.409753
0.40992
0.410016
0.409961
0.409965
0.409939
0.409726
0.409773
0.40992
0.409709
0.409672
0.409743
0.40973
0.409666
0.409785
0.409909
0.409761
0.409819
0.409836
0.409831
0.40983
0.409608
0.40968
0.409838
0.409774
0.409784
0.409722
0.409716
0.409617
0.4097
0.409931
0.409967
0.409924
0.40968
0.409747
0.409904
0.409866
0.40986
0.409721
0.409801
0.410002
0.409977
0.409998
0.409981
0.409781
0.409789
0.409953
0.410009
0.409968
0.409873
0.409876
0.409812
0.409594
0.409634
0.40982
0.40981
0.409735
0.382168
0.395906
0.40485
0.408986
0.409964
0.409964
0.409968
0.409936
0.410045
0.410096
0.410045
0.409939
0.40989
0.409936
0.409839
0.409793
0.40992
0.409975
0.40983
0.409852
0.410072
0.410067
0.410156
0.41024
0.410199
0.410068
0.410144
0.41027
0.410024
0.410083
0.410172
0.409942
0.40989
0.409951
0.409948
0.409922
0.409904
0.409823
0.409943
0.41007
0.410061
0.410056
0.409837
0.409919
0.410019
0.409987
0.409958
0.409866
0.409814
0.40977
0.409653
0.409717
0.409883
0.409844
0.409697
0.409702
0.409847
0.409675
0.409755
0.409919
0.409853
0.409857
0.409863
0.409863
0.409702
0.40979
0.409951
0.40993
0.409907
0.409811
0.409947
0.410074
0.41002
0.409807
0.40977
0.409894
0.409795
0.409902
0.409974
0.409852
0.409851
0.409848
0.40972
0.409775
0.409837
0.409806
0.409786
0.409679
0.409703
0.409583
0.382169
0.395895
0.404844
0.408944
0.410006
0.41023
0.410192
0.410002
0.410001
0.410187
0.410249
0.410213
0.410178
0.410177
0.410046
0.410101
0.410218
0.410192
0.410182
0.410008
0.410019
0.410028
0.41012
0.410374
0.41037
0.410312
0.410092
0.410143
0.410252
0.409999
0.410024
0.410183
0.409983
0.410001
0.410151
0.409977
0.410031
0.410204
0.410142
0.410143
0.410138
0.410025
0.410035
0.410078
0.410051
0.409954
0.409981
0.410049
0.41005
0.410049
0.409786
0.409825
0.409907
0.409692
0.409774
0.409935
0.409687
0.40969
0.409853
0.409924
0.409886
0.409729
0.409711
0.409675
0.409835
0.409994
0.409963
0.409905
0.409862
0.409885
0.40991
0.40991
0.409685
0.409754
0.409891
0.409657
0.409647
0.409819
0.409794
0.409799
0.409742
0.409872
0.409972
0.409737
0.4098
0.409936
0.409689
0.409743
0.409864
0.409613
0.382156
0.395931
0.404774
0.408924
0.410144
0.41035
0.410283
0.410286
0.410219
0.410255
0.410322
0.410283
0.410242
0.410076
0.410174
0.410276
0.410243
0.410208
0.410049
0.410055
0.410124
0.410089
0.409988
0.409999
0.410072
0.410062
0.409943
0.409905
0.410124
0.410241
0.410198
0.410125
0.409974
0.409932
0.409913
0.409879
0.409864
0.409791
0.409902
0.410102
0.410013
0.410016
0.409945
0.409987
0.410002
0.40997
0.40996
0.409786
0.409791
0.409871
0.409851
0.409852
0.409806
0.409641
0.409685
0.409877
0.409687
0.40976
0.40992
0.409919
0.409918
0.409706
0.409808
0.410013
0.409917
0.409965
0.409994
0.40992
0.41
0.410028
0.409787
0.409848
0.409971
0.409758
0.409779
0.409964
0.40993
0.410035
0.41008
0.410018
0.409851
0.409782
0.409923
0.409974
0.409921
0.409713
0.409758
0.409882
0.409852
0.409748
0.382157
0.395928
0.404759
0.40895
0.410099
0.410143
0.41004
0.410132
0.410263
0.410043
0.410124
0.410216
0.410203
0.410201
0.410012
0.410079
0.410111
0.410053
0.410047
0.410049
0.40996
0.410045
0.410282
0.410161
0.410171
0.410159
0.410004
0.410042
0.410193
0.410136
0.410118
0.410075
0.409943
0.410028
0.41024
0.41004
0.410124
0.410264
0.410229
0.410186
0.409931
0.409941
0.410061
0.410048
0.410008
0.409777
0.409832
0.409943
0.409713
0.409781
0.409942
0.409804
0.409713
0.409687
0.409615
0.409722
0.409939
0.409825
0.409837
0.409826
0.409685
0.409719
0.409892
0.4097
0.409747
0.409901
0.409762
0.409712
0.409742
0.409656
0.409737
0.410017
0.410045
0.40999
0.40977
0.409834
0.409981
0.409861
0.409882
0.409838
0.409679
0.409734
0.409922
0.409732
0.409818
0.409961
0.409737
0.409814
0.409959
0.409697
0.382139
0.395952
0.404811
0.408825
0.409744
0.409641
0.409673
0.41002
0.410088
0.410031
0.409914
0.409809
0.409885
0.409848
0.409986
0.410194
0.410052
0.410046
0.410039
0.410058
0.410048
0.409903
0.40995
0.410118
0.410037
0.409947
0.410047
0.410159
0.410119
0.40999
0.409974
0.410138
0.41011
0.410122
0.410114
0.409983
0.409919
0.409942
0.409848
0.409801
0.409824
0.40971
0.409756
0.409925
0.409752
0.409787
0.409958
0.409876
0.409892
0.40988
0.40973
0.409706
0.409945
0.409997
0.409972
0.409963
0.409758
0.409792
0.409894
0.409895
0.409893
0.40967
0.409746
0.409942
0.40988
0.409917
0.40998
0.409962
0.409915
0.409785
0.409871
0.410047
0.409839
0.409923
0.410031
0.409784
0.409832
0.40998
0.409756
0.409792
0.409939
0.409768
0.409868
0.41
0.409913
0.409914
0.409901
0.409917
0.409912
0.409736
0.382109
0.395992
0.4048
0.408854
0.409822
0.409713
0.409814
0.409971
0.409956
0.409962
0.409835
0.41019
0.410538
0.410431
0.410405
0.41053
0.410589
0.410554
0.410555
0.410478
0.410473
0.410467
0.410309
0.410356
0.410419
0.4104
0.410397
0.410206
0.410235
0.410245
0.410079
0.410163
0.410277
0.410015
0.410003
0.41013
0.409966
0.410004
0.410193
0.410209
0.410191
0.409954
0.410009
0.410143
0.410102
0.410095
0.409947
0.409997
0.410013
0.409964
0.409821
0.409878
0.40996
0.409835
0.409735
0.409835
0.409941
0.40992
0.409913
0.409796
0.409762
0.409595
0.409672
0.409855
0.40986
0.409861
0.409823
0.409813
0.409602
0.409686
0.409854
0.4097
0.409636
0.409783
0.409944
0.409894
0.409742
0.409701
0.409808
0.40973
0.409857
0.409972
0.409746
0.409809
0.40996
0.409858
0.409928
0.409954
0.409898
0.409687
0.382147
0.395957
0.404726
0.408839
0.410399
0.410786
0.41076
0.410768
0.410769
0.410779
0.410783
0.410745
0.41067
0.41061
0.410583
0.410548
0.410586
0.410702
0.410694
0.410621
0.410622
0.41059
0.410351
0.410349
0.410407
0.410409
0.41041
0.410349
0.410322
0.41005
0.410042
0.410197
0.410009
0.410028
0.410173
0.410171
0.410081
0.410154
0.410323
0.41031
0.410304
0.410084
0.410153
0.410269
0.410244
0.410252
0.410142
0.410127
0.410079
0.410176
0.410274
0.410201
0.410232
0.410239
0.410212
0.410214
0.41018
0.410145
0.410068
0.40981
0.409838
0.409995
0.409883
0.409881
0.409877
0.409735
0.409802
0.409946
0.409864
0.409808
0.409822
0.409833
0.409747
0.409658
0.409789
0.410024
0.409996
0.409955
0.409729
0.409764
0.40995
0.409829
0.409924
0.409972
0.409925
0.409781
0.409746
0.409844
0.40985
0.40972
0.382125
0.395974
0.4048
0.40884
0.409853
0.409856
0.409914
0.409923
0.40986
0.409821
0.410147
0.410511
0.410493
0.410517
0.410509
0.410539
0.410456
0.410511
0.410609
0.410588
0.410591
0.410586
0.410543
0.410505
0.410518
0.41047
0.410361
0.410304
0.410236
0.410021
0.410068
0.410255
0.410024
0.410035
0.410176
0.410172
0.410077
0.410128
0.410315
0.410209
0.410243
0.410264
0.410176
0.410236
0.410253
0.410238
0.410228
0.410013
0.40997
0.4099
0.409656
0.409701
0.409835
0.409757
0.409654
0.409744
0.409903
0.409903
0.4099
0.409676
0.409749
0.409942
0.409911
0.409871
0.409673
0.409738
0.409942
0.409801
0.409908
0.409995
0.40997
0.40996
0.409774
0.40985
0.409967
0.409877
0.410006
0.410062
0.410027
0.410019
0.409804
0.409857
0.410016
0.409908
0.409918
0.409921
0.409887
0.40986
0.409831
0.409627
0.382102
0.395979
0.404891
0.408691
0.409851
0.409955
0.409914
0.409779
0.409884
0.410143
0.410174
0.41013
0.409897
0.409992
0.410178
0.410188
0.41019
0.410088
0.410072
0.409916
0.41002
0.410182
0.410128
0.410045
0.410121
0.410249
0.410051
0.410144
0.41031
0.410095
0.41004
0.410106
0.410108
0.41011
0.410135
0.410148
0.410104
0.409942
0.409979
0.410025
0.409817
0.40973
0.409735
0.409608
0.40967
0.409825
0.409711
0.409635
0.409619
0.409597
0.409701
0.409736
0.40969
0.40955
0.409559
0.409726
0.409652
0.409587
0.409714
0.409871
0.409834
0.409768
0.409612
0.409708
0.409782
0.409638
0.409741
0.409882
0.409751
0.409766
0.409721
0.40957
0.409618
0.409791
0.409726
0.409649
0.409763
0.409895
0.409864
0.409822
0.409664
0.409781
0.409924
0.409929
0.409928
0.409747
0.40971
0.409829
0.409854
0.409724
0.382132
0.395944
0.40482
0.408863
0.409977
0.410033
0.409988
0.409843
0.409939
0.410111
0.410101
0.410057
0.410112
0.410272
0.410065
0.410058
0.41033
0.410392
0.410376
0.410376
0.410313
0.410208
0.410226
0.410246
0.410211
0.410115
0.41012
0.410209
0.410184
0.410028
0.410034
0.410249
0.410265
0.410226
0.410199
0.410098
0.409967
0.409925
0.409824
0.40977
0.409784
0.40967
0.409717
0.409885
0.409751
0.409728
0.409948
0.410027
0.409969
0.409764
0.409757
0.409854
0.409716
0.409665
0.409749
0.40986
0.409818
0.409648
0.409729
0.409823
0.409796
0.409789
0.409641
0.409741
0.409808
0.409782
0.409784
0.409646
0.409725
0.409826
0.409809
0.409754
0.409863
0.410021
0.409797
0.409861
0.410025
0.409837
0.409929
0.410036
0.409835
0.409932
0.410041
0.409774
0.409748
0.409847
0.409827
0.409826
0.409777
0.409632
0.382119
0.395978
0.404774
0.408892
0.409939
0.409951
0.41007
0.410109
0.410078
0.409996
0.410154
0.410522
0.410403
0.410524
0.410621
0.410502
0.410508
0.410507
0.410383
0.410453
0.410523
0.41031
0.410403
0.410532
0.410531
0.410531
0.410466
0.410429
0.410153
0.410094
0.410144
0.409982
0.40994
0.409993
0.409878
0.40984
0.409895
0.40977
0.409801
0.409948
0.409774
0.409802
0.409957
0.409873
0.409885
0.409872
0.409717
0.40972
0.409954
0.410023
0.409998
0.41
0.409946
0.409868
0.409813
0.409642
0.409726
0.40981
0.409665
0.409603
0.40979
0.40993
0.409809
0.409886
0.409922
0.409873
0.409782
0.4097
0.409886
0.409969
0.409915
0.409795
0.409697
0.409808
0.409854
0.409803
0.409623
0.409592
0.409846
0.409964
0.409914
0.409726
0.409792
0.409913
0.409908
0.409906
0.409685
0.409774
0.409921
0.409667
0.382147
0.395956
0.404726
0.408828
0.41043
0.410691
0.410607
0.410623
0.410581
0.410636
0.410653
0.410518
0.410588
0.410653
0.410548
0.410612
0.410639
0.410584
0.410585
0.41055
0.410598
0.410614
0.410429
0.410482
0.410522
0.410489
0.410483
0.410404
0.410328
0.410091
0.410124
0.410285
0.410263
0.410153
0.410149
0.410299
0.41031
0.410299
0.410067
0.410093
0.410204
0.410207
0.410203
0.409969
0.41004
0.410143
0.410129
0.410128
0.410022
0.410025
0.410037
0.410019
0.409856
0.409782
0.409891
0.409947
0.409897
0.409709
0.409722
0.409972
0.410003
0.409962
0.409753
0.409804
0.409968
0.409744
0.409799
0.409943
0.409865
0.409808
0.409821
0.409831
0.409744
0.409654
0.409787
0.409978
0.409985
0.409984
0.409747
0.409814
0.409931
0.409935
0.409935
0.409703
0.409759
0.409969
0.409868
0.409867
0.40986
0.409693
0.382111
0.395964
0.404867
0.408814
0.409688
0.409608
0.409718
0.409997
0.409886
0.409879
0.409878
0.409769
0.409771
0.40991
0.409877
0.410027
0.410131
0.410097
0.410109
0.410096
0.410033
0.410151
0.410407
0.410243
0.410346
0.410431
0.410305
0.410302
0.410294
0.410171
0.41014
0.410201
0.410206
0.410112
0.410152
0.410282
0.410235
0.410218
0.410229
0.410252
0.410228
0.41024
0.410182
0.410126
0.410097
0.410094
0.410085
0.41009
0.410047
0.409985
0.409743
0.409757
0.409917
0.409929
0.409923
0.40969
0.409665
0.409869
0.409946
0.409889
0.409673
0.409637
0.409803
0.409896
0.40986
0.409659
0.409753
0.409894
0.409898
0.409898
0.409693
0.409647
0.409748
0.409697
0.409808
0.410037
0.409866
0.40997
0.410083
0.410006
0.410024
0.410035
0.410014
0.409836
0.409771
0.409943
0.410064
0.410055
0.410047
0.409794
0.382147
0.395956
0.404725
0.408836
0.410396
0.410782
0.410756
0.410764
0.410728
0.410767
0.410786
0.410696
0.410689
0.410685
0.410659
0.410632
0.410629
0.410483
0.410535
0.410596
0.41058
0.410535
0.41054
0.41058
0.41053
0.410526
0.41049
0.410496
0.410422
0.410381
0.410301
0.410043
0.410035
0.410132
0.409963
0.409874
0.409873
0.409747
0.409782
0.409927
0.409745
0.409772
0.409963
0.410031
0.40999
0.409738
0.409762
0.409909
0.409835
0.4099
0.409924
0.40982
0.409898
0.409962
0.409956
0.409953
0.4097
0.409754
0.410002
0.409881
0.409982
0.410137
0.410051
0.410041
0.41
0.4099
0.409855
0.409838
0.409832
0.4098
0.409817
0.409828
0.409742
0.409652
0.409786
0.409976
0.409984
0.409983
0.409745
0.409813
0.40993
0.409918
0.409914
0.409798
0.409779
0.409663
0.409768
0.409893
0.409847
0.409681
0.382182
0.3959
0.40474
0.408926
0.40997
0.409909
0.410039
0.410201
0.410016
0.410091
0.410199
0.410157
0.410013
0.410007
0.410167
0.410245
0.410211
0.410002
0.410059
0.410154
0.410137
0.410094
0.410184
0.410324
0.410105
0.410168
0.410334
0.410259
0.41015
0.410223
0.410319
0.41012
0.410209
0.410301
0.410134
0.410121
0.410083
0.410088
0.410028
0.40987
0.409771
0.409752
0.409727
0.409697
0.409656
0.409543
0.409548
0.409857
0.409945
0.409872
0.409906
0.409863
0.409772
0.409721
0.410017
0.410288
0.410178
0.410267
0.410368
0.410362
0.410361
0.410176
0.410219
0.410258
0.410231
0.410229
0.410169
0.410054
0.409932
0.409887
0.409724
0.409785
0.409973
0.410003
0.409961
0.409741
0.409824
0.409899
0.409677
0.409656
0.409926
0.409998
0.409947
0.409773
0.409802
0.409936
0.409841
0.409852
0.409809
0.409655
0.382164
0.395952
0.404693
0.408805
0.410365
0.410848
0.410847
0.410836
0.410824
0.410795
0.410772
0.410743
0.410719
0.410693
0.410588
0.410623
0.410646
0.410441
0.41052
0.410595
0.410344
0.410403
0.410521
0.410471
0.410463
0.41043
0.410419
0.41027
0.410209
0.410272
0.410294
0.410244
0.409998
0.409982
0.410074
0.410073
0.410029
0.409871
0.409758
0.409715
0.409619
0.409594
0.40978
0.409856
0.409805
0.409698
0.409596
0.409739
0.409838
0.409724
0.409817
0.409859
0.409629
0.409685
0.410004
0.409932
0.410066
0.410192
0.41
0.410098
0.41019
0.409993
0.41007
0.410121
0.410025
0.41005
0.410005
0.409818
0.409859
0.409946
0.409771
0.409824
0.409852
0.409821
0.409813
0.40965
0.409736
0.409961
0.409934
0.409894
0.409757
0.409717
0.409783
0.409728
0.409861
0.409964
0.409765
0.409866
0.409981
0.409709
0.382148
0.395956
0.404725
0.408838
0.410385
0.410893
0.410903
0.410849
0.410847
0.410822
0.41078
0.410741
0.410742
0.410724
0.410665
0.410626
0.410571
0.410631
0.410657
0.410472
0.410552
0.410632
0.410535
0.410527
0.410533
0.410552
0.41052
0.410439
0.41017
0.410208
0.410307
0.410028
0.410018
0.410103
0.409951
0.409866
0.409858
0.409724
0.40975
0.409886
0.409708
0.409688
0.409811
0.409805
0.409801
0.40978
0.40976
0.409846
0.409879
0.409841
0.409835
0.409671
0.409759
0.410064
0.409949
0.410069
0.410191
0.410169
0.410183
0.410154
0.410124
0.410009
0.410007
0.410004
0.409869
0.409936
0.410013
0.409791
0.409831
0.410036
0.410036
0.41004
0.410018
0.409799
0.409794
0.40992
0.409954
0.409958
0.409859
0.409844
0.409697
0.409798
0.409936
0.409942
0.409941
0.40969
0.409745
0.409922
0.409893
0.409744
0.382164
0.395952
0.404692
0.408804
0.410378
0.410778
0.410749
0.410791
0.410814
0.410751
0.410756
0.410708
0.410683
0.410582
0.410617
0.410636
0.41043
0.410509
0.410587
0.410339
0.4104
0.410533
0.410437
0.410464
0.410415
0.410224
0.410236
0.41035
0.410194
0.410121
0.410129
0.409997
0.409998
0.410186
0.410249
0.410216
0.410202
0.410173
0.410136
0.410066
0.409784
0.409707
0.409749
0.409562
0.40955
0.409652
0.409526
0.4095
0.409694
0.409811
0.409791
0.409781
0.409592
0.409628
0.409992
0.409948
0.410071
0.410225
0.410187
0.410218
0.410217
0.410248
0.410173
0.410136
0.410129
0.409965
0.410014
0.410073
0.409913
0.40993
0.409989
0.409975
0.409958
0.409973
0.409925
0.409815
0.409737
0.409868
0.409924
0.409873
0.409703
0.409715
0.409843
0.409667
0.409757
0.409876
0.409639
0.40967
0.409831
0.409624
0.382162
0.395962
0.404648
0.408946
0.410161
0.410221
0.410283
0.410303
0.410179
0.410267
0.410327
0.410268
0.410161
0.410135
0.410252
0.410258
0.410263
0.41028
0.410282
0.410122
0.410098
0.410402
0.410568
0.410543
0.410511
0.410443
0.410369
0.410133
0.410166
0.410299
0.410076
0.41003
0.410075
0.409969
0.409905
0.409903
0.409879
0.409912
0.409864
0.409685
0.409711
0.409819
0.409746
0.409725
0.409704
0.409713
0.409699
0.409667
0.409542
0.409589
0.410076
0.410575
0.410568
0.41052
0.410513
0.410529
0.41054
0.410512
0.410464
0.410306
0.410358
0.410405
0.410271
0.410259
0.410266
0.410297
0.410286
0.410225
0.410231
0.410246
0.410201
0.409986
0.410012
0.410079
0.41006
0.410075
0.41002
0.409919
0.409924
0.409928
0.409709
0.409777
0.409858
0.409637
0.409675
0.409844
0.409768
0.409797
0.409753
0.409602
0.382141
0.395943
0.404803
0.408846
0.409828
0.40985
0.409732
0.409763
0.409909
0.409868
0.409808
0.409775
0.409724
0.40986
0.41009
0.41009
0.410092
0.409949
0.410094
0.410351
0.410517
0.410573
0.410418
0.410404
0.410399
0.410257
0.410309
0.410445
0.410268
0.410179
0.410171
0.410042
0.410095
0.410235
0.410007
0.410056
0.41017
0.410163
0.410154
0.409881
0.409926
0.410016
0.409917
0.409902
0.409767
0.409834
0.40987
0.40982
0.40967
0.40968
0.40974
0.40951
0.409499
0.409668
0.409752
0.409738
0.409725
0.409711
0.409487
0.40951
0.409691
0.409514
0.409519
0.409658
0.409618
0.409684
0.409699
0.409557
0.409655
0.409898
0.409893
0.409844
0.409843
0.409858
0.409787
0.409702
0.409806
0.409978
0.409978
0.409977
0.40987
0.409846
0.409667
0.409747
0.409864
0.409629
0.409612
0.409778
0.409795
0.40971
0.382148
0.395956
0.404727
0.408826
0.41045
0.410673
0.410608
0.410625
0.410606
0.410614
0.410548
0.410585
0.41062
0.410572
0.410419
0.410462
0.410524
0.410503
0.410512
0.41049
0.410536
0.410603
0.410564
0.41043
0.41041
0.410407
0.410358
0.410177
0.410157
0.410245
0.410251
0.41016
0.41021
0.410224
0.4102
0.410185
0.409883
0.409907
0.409948
0.409802
0.409816
0.409776
0.409724
0.409632
0.409608
0.409531
0.409658
0.409807
0.409716
0.409708
0.409656
0.409819
0.410432
0.410602
0.41057
0.410583
0.410572
0.41058
0.410547
0.410524
0.410497
0.410443
0.410394
0.410419
0.410424
0.410212
0.410251
0.410308
0.410138
0.410239
0.410321
0.410238
0.410278
0.410348
0.410313
0.41023
0.410219
0.410173
0.41007
0.409977
0.409911
0.409709
0.409769
0.409951
0.409941
0.409936
0.409695
0.409761
0.409875
0.409625
0.382147
0.395956
0.404725
0.408838
0.410393
0.410821
0.410814
0.410756
0.410794
0.410811
0.410782
0.410794
0.410733
0.410706
0.410606
0.410645
0.410674
0.410474
0.410559
0.410645
0.410626
0.410575
0.410605
0.410657
0.410639
0.410637
0.41057
0.410536
0.410246
0.410265
0.410355
0.410093
0.4101
0.410223
0.410087
0.410023
0.41006
0.410084
0.410011
0.41009
0.410149
0.410123
0.410114
0.409891
0.409958
0.410017
0.409979
0.409975
0.409974
0.409964
0.409754
0.409865
0.410445
0.41064
0.410591
0.410632
0.410651
0.410588
0.410553
0.410525
0.410506
0.41052
0.410515
0.410506
0.410329
0.410361
0.410409
0.410271
0.410358
0.410409
0.410394
0.410394
0.410344
0.410337
0.41028
0.410276
0.410179
0.410169
0.410151
0.410183
0.410129
0.409892
0.40986
0.409929
0.40974
0.409741
0.409949
0.409972
0.409926
0.409706
0.382132
0.39594
0.404854
0.408814
0.409803
0.41012
0.410099
0.409821
0.409811
0.409931
0.40993
0.409932
0.409836
0.410103
0.410526
0.410402
0.410463
0.410732
0.410748
0.410694
0.410515
0.41057
0.410657
0.410392
0.410432
0.410549
0.410448
0.410448
0.41046
0.410427
0.410186
0.410126
0.410144
0.410033
0.409947
0.409971
0.409973
0.409812
0.409879
0.410045
0.410001
0.409998
0.409954
0.40992
0.409924
0.409937
0.40991
0.409836
0.409885
0.409923
0.409684
0.409746
0.409809
0.409776
0.40969
0.409726
0.409983
0.409927
0.409959
0.409904
0.40987
0.4098
0.409909
0.410051
0.410021
0.410015
0.409849
0.409935
0.410088
0.410041
0.410042
0.410021
0.409843
0.409825
0.409933
0.409937
0.409864
0.409933
0.41006
0.409809
0.409859
0.409978
0.409731
0.409789
0.40989
0.40988
0.409879
0.409797
0.409777
0.409588
0.382146
0.395963
0.404697
0.408929
0.410212
0.410232
0.410376
0.410486
0.410339
0.410423
0.410523
0.410522
0.410523
0.410435
0.410439
0.410382
0.410186
0.410255
0.410375
0.410332
0.410337
0.410232
0.41035
0.410424
0.410268
0.410373
0.410488
0.410284
0.410193
0.410244
0.410254
0.410096
0.410152
0.41017
0.410143
0.410129
0.409962
0.409879
0.409805
0.409584
0.409619
0.409766
0.409521
0.409506
0.40962
0.409585
0.409559
0.409517
0.409415
0.409499
0.409754
0.409761
0.409749
0.409566
0.409501
0.409649
0.409693
0.409607
0.409721
0.409839
0.409806
0.409802
0.409775
0.409764
0.409528
0.40951
0.409664
0.409533
0.409565
0.409792
0.409827
0.409793
0.409708
0.409754
0.409768
0.40969
0.409765
0.409794
0.409639
0.409574
0.409771
0.409931
0.409884
0.409775
0.409673
0.409689
0.409556
0.409573
0.409712
0.409559
0.382147
0.395956
0.404725
0.408833
0.410422
0.410726
0.410689
0.410729
0.410682
0.410689
0.4107
0.410677
0.410689
0.410706
0.410657
0.410571
0.410574
0.410579
0.410462
0.410506
0.410622
0.410564
0.410592
0.410598
0.410567
0.410531
0.41045
0.410181
0.410189
0.41031
0.410092
0.410052
0.410077
0.41006
0.409907
0.409941
0.410043
0.410008
0.409981
0.409771
0.409784
0.409817
0.40976
0.409648
0.409539
0.409578
0.409525
0.409656
0.409833
0.409792
0.409789
0.409745
0.409748
0.409671
0.409586
0.409543
0.409456
0.409588
0.409772
0.409685
0.409594
0.409713
0.409874
0.409861
0.409853
0.409734
0.409697
0.409538
0.409578
0.409743
0.409663
0.409599
0.409752
0.409887
0.409844
0.409758
0.409668
0.409688
0.409561
0.409571
0.40971
0.409597
0.4097
0.409857
0.409831
0.409828
0.409698
0.409802
0.409863
0.409696
0.382147
0.395956
0.404725
0.408839
0.410385
0.410895
0.410904
0.41085
0.410854
0.410828
0.410836
0.410793
0.410761
0.410742
0.410727
0.41063
0.410675
0.410707
0.41051
0.410595
0.410689
0.410474
0.410553
0.410722
0.410688
0.410686
0.410642
0.410569
0.410537
0.4105
0.410441
0.410312
0.410216
0.410194
0.410008
0.410062
0.410168
0.410152
0.410144
0.410022
0.409887
0.409947
0.410012
0.40996
0.409791
0.409805
0.409854
0.409835
0.40983
0.409616
0.40964
0.410107
0.410611
0.410675
0.410631
0.410642
0.410648
0.410572
0.410545
0.410561
0.410529
0.410531
0.410497
0.410448
0.410284
0.410322
0.410371
0.410203
0.410293
0.410352
0.410279
0.410298
0.410277
0.410295
0.410246
0.410033
0.410061
0.410101
0.410072
0.410084
0.410032
0.409995
0.409885
0.409931
0.409968
0.409911
0.40978
0.409679
0.40969
0.409573
0.382147
0.395956
0.404725
0.408838
0.410394
0.410822
0.410816
0.410759
0.410797
0.410813
0.410784
0.410796
0.410736
0.410709
0.410609
0.410647
0.410676
0.410476
0.41056
0.410648
0.410625
0.410612
0.410563
0.410555
0.410558
0.410537
0.410462
0.4104
0.410188
0.410168
0.410263
0.410087
0.410108
0.410225
0.410087
0.410023
0.41006
0.410087
0.410015
0.410096
0.410151
0.410124
0.410116
0.409892
0.409958
0.410016
0.410016
0.410016
0.409984
0.409975
0.409773
0.409884
0.410417
0.41045
0.410433
0.410413
0.410435
0.410451
0.410352
0.410347
0.410263
0.410331
0.410373
0.410227
0.410293
0.410322
0.410265
0.410267
0.410248
0.410067
0.410112
0.410174
0.410147
0.410143
0.410048
0.409992
0.409772
0.409792
0.409964
0.409826
0.409915
0.409978
0.409816
0.409903
0.409948
0.409899
0.409747
0.409745
0.409845
0.409621
0.382147
0.395956
0.404727
0.408825
0.410449
0.410673
0.410608
0.410627
0.410611
0.410569
0.410568
0.4106
0.410504
0.410551
0.410632
0.410593
0.410442
0.410481
0.410534
0.410464
0.410459
0.410469
0.410469
0.410283
0.410336
0.410394
0.410236
0.410353
0.410475
0.410468
0.410465
0.410362
0.410348
0.410352
0.410321
0.410122
0.410028
0.409959
0.409757
0.409818
0.409885
0.409858
0.409847
0.409703
0.409676
0.409547
0.409651
0.409805
0.409794
0.409792
0.409661
0.40981
0.410458
0.410513
0.41042
0.410402
0.410439
0.410478
0.410454
0.410425
0.410242
0.410275
0.410421
0.410412
0.410353
0.410117
0.410157
0.410234
0.410014
0.410095
0.410237
0.410204
0.410165
0.40993
0.409949
0.410099
0.410147
0.410107
0.410041
0.410035
0.409979
0.409809
0.409814
0.409931
0.409712
0.409709
0.409933
0.409956
0.4099
0.40968
0.382141
0.395942
0.404808
0.408825
0.409885
0.409975
0.409929
0.409763
0.409836
0.410105
0.410147
0.410107
0.409906
0.409984
0.410153
0.4101
0.410129
0.41011
0.410058
0.41008
0.410083
0.410261
0.410514
0.410308
0.410394
0.410531
0.410279
0.410298
0.410462
0.410459
0.410414
0.410152
0.41014
0.410236
0.410167
0.410057
0.410107
0.410237
0.410207
0.410118
0.410134
0.410148
0.410105
0.41008
0.410078
0.410086
0.410023
0.410021
0.410026
0.409997
0.409971
0.409934
0.409844
0.409588
0.409523
0.409625
0.409639
0.409569
0.409644
0.409835
0.409842
0.409842
0.409634
0.409726
0.409993
0.409984
0.409989
0.409977
0.409846
0.409799
0.410017
0.410148
0.410133
0.410153
0.410123
0.410032
0.409992
0.40999
0.409961
0.409929
0.409915
0.409847
0.409743
0.409912
0.410062
0.410016
0.409844
0.409814
0.409857
0.409632
0.382184
0.395893
0.404758
0.408909
0.40994
0.409889
0.410025
0.410191
0.410055
0.410062
0.410054
0.409981
0.409915
0.410095
0.410208
0.410161
0.410058
0.409956
0.410025
0.410019
0.410188
0.410359
0.410362
0.410362
0.410147
0.410221
0.410396
0.410221
0.410136
0.410139
0.41013
0.410079
0.410183
0.410251
0.410196
0.410025
0.410053
0.410119
0.410096
0.410086
0.409949
0.409919
0.409869
0.409785
0.409784
0.409795
0.40975
0.409664
0.40959
0.409652
0.409578
0.409689
0.409885
0.409862
0.409781
0.409791
0.410009
0.409932
0.410058
0.410154
0.410121
0.410019
0.410053
0.410106
0.410006
0.410007
0.40999
0.410009
0.410007
0.409978
0.409988
0.41001
0.409955
0.409779
0.409801
0.409939
0.409957
0.409959
0.409859
0.409835
0.409638
0.409712
0.409834
0.409824
0.40982
0.40961
0.409687
0.409835
0.409796
0.409655
0.382182
0.395901
0.404741
0.408924
0.40997
0.409905
0.410029
0.410194
0.410066
0.410087
0.410043
0.409958
0.409896
0.410074
0.410212
0.410189
0.410175
0.409984
0.410127
0.410337
0.410308
0.410251
0.410176
0.410195
0.410058
0.410047
0.410173
0.410055
0.410049
0.410162
0.410029
0.410107
0.410238
0.41022
0.410208
0.410008
0.409934
0.409982
0.410061
0.410028
0.41
0.409933
0.409668
0.409584
0.409734
0.409795
0.409748
0.409644
0.409557
0.409857
0.4102
0.41004
0.410125
0.410261
0.410261
0.41026
0.410039
0.410102
0.410249
0.410264
0.410221
0.410165
0.410155
0.409969
0.410054
0.41013
0.409982
0.410062
0.41011
0.410054
0.409866
0.40987
0.409949
0.409841
0.409912
0.409952
0.409913
0.40986
0.409745
0.409715
0.409665
0.409647
0.409645
0.409647
0.409528
0.409565
0.409849
0.409871
0.409824
0.40961
0.382148
0.395956
0.404724
0.408838
0.410391
0.410818
0.410819
0.410837
0.410833
0.410807
0.41079
0.410722
0.41069
0.410696
0.410662
0.410625
0.410569
0.41063
0.410656
0.410472
0.410553
0.410632
0.410537
0.410561
0.410511
0.41036
0.4103
0.410314
0.41014
0.410122
0.410227
0.410234
0.410141
0.410178
0.410209
0.410004
0.410089
0.410226
0.409981
0.410003
0.410137
0.409981
0.410064
0.410191
0.410054
0.410139
0.410179
0.410097
0.410123
0.410131
0.410097
0.409842
0.409758
0.409918
0.409892
0.410036
0.410172
0.410049
0.410037
0.410029
0.41007
0.410012
0.409994
0.409989
0.40986
0.409929
0.410004
0.409784
0.409828
0.410037
0.410036
0.41004
0.410019
0.409799
0.409794
0.409959
0.409973
0.409936
0.409718
0.409761
0.409952
0.409827
0.409917
0.409963
0.409916
0.409773
0.409746
0.409853
0.409856
0.409724
0.382164
0.395952
0.404691
0.408806
0.410366
0.410884
0.4109
0.410846
0.41085
0.410827
0.410786
0.410794
0.41082
0.410785
0.410796
0.410782
0.410753
0.410714
0.410669
0.410684
0.41064
0.410502
0.410504
0.410585
0.410583
0.410588
0.410546
0.410543
0.410529
0.410409
0.410293
0.410264
0.410213
0.410078
0.410144
0.410282
0.410284
0.410278
0.410016
0.410039
0.410154
0.410122
0.410121
0.410001
0.41003
0.410035
0.409895
0.409956
0.410115
0.410093
0.410054
0.410037
0.409911
0.40982
0.409978
0.410106
0.410096
0.410095
0.409929
0.410015
0.410214
0.410054
0.410141
0.410274
0.410221
0.410251
0.41025
0.410267
0.410251
0.4102
0.409995
0.410042
0.410105
0.410105
0.410104
0.409871
0.409825
0.40994
0.409985
0.409932
0.409713
0.409709
0.409844
0.40967
0.409729
0.409892
0.409665
0.409664
0.409792
0.409616
0.382162
0.395962
0.40465
0.408924
0.410252
0.410387
0.410334
0.410128
0.410164
0.410287
0.410072
0.410152
0.410243
0.410015
0.410095
0.410203
0.410169
0.410072
0.410098
0.410284
0.410305
0.410311
0.410239
0.41021
0.410011
0.410011
0.410166
0.410022
0.410093
0.410253
0.410228
0.41022
0.410048
0.410142
0.410219
0.410177
0.410127
0.41001
0.409926
0.409727
0.409648
0.409702
0.409601
0.409702
0.40984
0.409769
0.409776
0.409711
0.409797
0.409907
0.409889
0.409883
0.409706
0.409793
0.410089
0.409948
0.410042
0.410199
0.410193
0.410192
0.410101
0.410088
0.409958
0.410041
0.410208
0.410095
0.410093
0.410088
0.409929
0.409918
0.409993
0.409932
0.409972
0.409986
0.409892
0.409958
0.409995
0.409758
0.409826
0.40997
0.409925
0.409928
0.409925
0.409903
0.409671
0.409665
0.409947
0.409981
0.409919
0.409692
0.382147
0.395956
0.404725
0.408837
0.410389
0.410815
0.410813
0.41083
0.410836
0.410808
0.410786
0.410714
0.41068
0.410684
0.410678
0.410669
0.410668
0.4107
0.410701
0.41059
0.410617
0.410643
0.410594
0.410514
0.410422
0.410361
0.410172
0.410242
0.410373
0.41037
0.410368
0.410305
0.410268
0.410042
0.409929
0.409937
0.409794
0.409818
0.409955
0.409774
0.409801
0.409951
0.409766
0.409822
0.409982
0.409786
0.409852
0.410008
0.409839
0.409938
0.410011
0.409997
0.409993
0.409785
0.409851
0.410012
0.409977
0.409887
0.409852
0.409969
0.409987
0.409875
0.409917
0.410007
0.4098
0.409878
0.410003
0.409789
0.409866
0.410057
0.410019
0.410021
0.409999
0.409865
0.409801
0.409893
0.40994
0.409904
0.409707
0.409786
0.409925
0.409917
0.409914
0.409798
0.40978
0.409663
0.409767
0.409891
0.409845
0.409679
0.382117
0.395975
0.404834
0.408817
0.409746
0.409764
0.409701
0.409683
0.409866
0.409972
0.409945
0.409942
0.409783
0.409901
0.410349
0.410348
0.410352
0.410279
0.410426
0.410534
0.410344
0.410431
0.41062
0.410606
0.410554
0.410446
0.410413
0.410341
0.410106
0.41009
0.410233
0.410234
0.410181
0.410152
0.41021
0.410364
0.410336
0.410069
0.41012
0.410233
0.410188
0.410175
0.409957
0.410026
0.410113
0.410086
0.410076
0.410016
0.409934
0.409663
0.409628
0.409749
0.409645
0.409757
0.409847
0.409819
0.409796
0.409699
0.409751
0.409837
0.409793