/*--------------------------------*- C++ -*----------------------------------*\
  =========                 |
  \\      /  F ield         | OpenFOAM: The Open Source CFD Toolbox
   \\    /   O peration     | Website:  https://openfoam.org
    \\  /    A nd           | Version:  11
     \\/     M anipulation  |
\*---------------------------------------------------------------------------*/
FoamFile
{
    format      ascii;
    class       volScalarField;
    location    "0.042";
    object      nut;
}
// * * * * * * * * * * * * * * * * * * * * * * * * * * * * * * * * * * * * * //

dimensions      [0 2 -1 0 0 0 0];

internalField   nonuniform List<scalar> 
287084
(
0.000837783
0.000869243
0.000890201
0.000900183
0.000902976
0.000903416
0.000903492
0.000903237
0.000903395
0.000903903
0.000903898
0.000903896
0.000903748
0.000903534
0.000903397
0.00090309
0.000903249
0.000903729
0.000903278
0.000903444
0.000903658
0.000903368
0.000903328
0.000903326
0.000903296
0.000902902
0.000903009
0.000903338
0.00090331
0.000903317
0.000903252
0.000903239
0.000902955
0.000902933
0.000903423
0.000903764
0.000903771
0.00090391
0.00090398
0.000903634
0.000903856
0.000904293
0.000903931
0.000903946
0.000904191
0.000904241
0.000904168
0.000904493
0.000904819
0.000904534
0.000904701
0.000904759
0.000904752
0.000904754
0.000904267
0.000904409
0.000904726
0.000904568
0.000904589
0.000904446
0.000904423
0.000904189
0.000904362
0.000904855
0.000904916
0.000904811
0.00090424
0.000904372
0.000904718
0.000904622
0.000904601
0.000904277
0.000904456
0.000904904
0.000904839
0.000904874
0.000904821
0.000904373
0.00090437
0.000904717
0.000904842
0.000904738
0.000904522
0.000904539
0.000904387
0.000903905
0.000904008
0.000904422
0.000904399
0.000904203
0.00118416
0.00122706
0.00125523
0.00126846
0.00127171
0.00127184
0.00127191
0.00127184
0.00127218
0.00127231
0.00127211
0.00127172
0.00127149
0.00127154
0.00127115
0.00127091
0.00127121
0.00127128
0.00127074
0.00127072
0.00127132
0.00127124
0.00127146
0.00127169
0.00127154
0.00127114
0.00127139
0.00127181
0.0012711
0.00127139
0.00127179
0.0012712
0.00127118
0.00127154
0.00127169
0.00127179
0.00127192
0.00127185
0.0012724
0.00127297
0.00127311
0.00127325
0.00127272
0.00127311
0.00127355
0.00127356
0.00127357
0.00127337
0.00127328
0.00127321
0.00127289
0.00127313
0.00127368
0.0012736
0.00127315
0.00127316
0.0012736
0.00127306
0.0012733
0.00127381
0.0012736
0.00127359
0.0012736
0.00127358
0.00127305
0.00127331
0.00127381
0.00127372
0.00127363
0.00127332
0.00127374
0.00127412
0.00127394
0.00127327
0.00127314
0.00127351
0.00127318
0.0012735
0.00127372
0.00127332
0.00127331
0.00127331
0.00127289
0.00127306
0.00127325
0.00127314
0.00127308
0.00127275
0.00127282
0.00127244
0.00118422
0.00122721
0.00125543
0.0012685
0.00127197
0.00127275
0.00127267
0.00127209
0.00127207
0.00127261
0.00127275
0.00127257
0.00127237
0.00127228
0.00127177
0.00127185
0.00127211
0.00127193
0.0012718
0.00127116
0.00127113
0.00127108
0.00127131
0.00127206
0.00127203
0.00127185
0.00127119
0.0012714
0.00127181
0.00127113
0.00127131
0.00127193
0.00127146
0.00127167
0.00127232
0.00127195
0.00127231
0.00127304
0.00127303
0.00127321
0.00127336
0.00127317
0.00127335
0.00127362
0.00127366
0.00127347
0.00127365
0.00127395
0.00127403
0.00127409
0.00127332
0.00127348
0.00127377
0.00127313
0.0012734
0.00127392
0.00127315
0.00127315
0.00127365
0.00127387
0.00127375
0.00127325
0.00127317
0.00127305
0.00127354
0.001274
0.0012739
0.00127371
0.00127356
0.00127362
0.00127368
0.00127367
0.00127295
0.00127315
0.00127357
0.00127283
0.00127278
0.0012733
0.00127322
0.00127322
0.00127304
0.00127343
0.00127373
0.00127299
0.00127318
0.0012736
0.00127282
0.00127298
0.00127335
0.00127255
0.0011842
0.00122747
0.00125546
0.0012687
0.00127262
0.0012733
0.00127308
0.00127305
0.0012728
0.00127285
0.001273
0.00127279
0.00127258
0.00127196
0.00127216
0.00127237
0.00127216
0.00127195
0.00127136
0.00127128
0.00127141
0.00127123
0.00127086
0.00127085
0.00127106
0.00127103
0.00127069
0.00127062
0.00127137
0.00127183
0.00127182
0.00127173
0.00127141
0.00127145
0.00127158
0.00127166
0.0012718
0.00127177
0.0012723
0.00127311
0.00127301
0.00127318
0.00127311
0.00127338
0.00127355
0.00127356
0.00127363
0.00127317
0.00127326
0.00127357
0.00127356
0.0012736
0.00127349
0.001273
0.00127315
0.00127376
0.00127318
0.00127341
0.0012739
0.00127389
0.00127388
0.0012732
0.00127351
0.00127413
0.00127382
0.00127395
0.00127403
0.00127378
0.00127401
0.00127408
0.00127331
0.00127348
0.00127385
0.00127317
0.00127322
0.00127378
0.00127367
0.00127398
0.00127411
0.00127391
0.00127338
0.00127315
0.00127358
0.00127373
0.00127356
0.00127291
0.00127304
0.00127342
0.00127332
0.00127296
0.00118422
0.00122753
0.00125552
0.00126889
0.00127259
0.00127274
0.00127239
0.00127263
0.00127298
0.00127223
0.0012724
0.00127259
0.00127245
0.00127234
0.00127165
0.00127174
0.00127173
0.00127143
0.00127131
0.00127122
0.00127085
0.00127104
0.00127171
0.00127129
0.0012713
0.00127126
0.00127081
0.00127098
0.00127153
0.00127146
0.00127153
0.00127155
0.0012713
0.00127174
0.00127259
0.00127217
0.00127264
0.00127327
0.00127336
0.00127342
0.0012728
0.001273
0.00127352
0.00127363
0.00127362
0.00127302
0.00127328
0.00127371
0.00127306
0.00127333
0.00127388
0.00127349
0.00127323
0.00127317
0.00127296
0.0012733
0.00127398
0.00127363
0.00127366
0.00127362
0.00127317
0.00127326
0.00127378
0.00127317
0.0012733
0.00127376
0.00127331
0.00127314
0.00127321
0.00127293
0.00127316
0.00127401
0.00127408
0.0012739
0.0012732
0.00127338
0.00127383
0.00127344
0.0012735
0.00127335
0.00127284
0.001273
0.00127358
0.00127298
0.00127324
0.00127368
0.00127297
0.00127321
0.00127365
0.00127281
0.00118417
0.00122763
0.00125574
0.00126859
0.00127158
0.00127127
0.00127132
0.00127234
0.00127247
0.00127221
0.00127176
0.00127133
0.00127146
0.00127123
0.00127154
0.00127207
0.00127151
0.00127137
0.00127124
0.00127118
0.00127106
0.00127053
0.00127061
0.00127108
0.00127081
0.00127053
0.00127087
0.00127128
0.00127124
0.00127095
0.00127103
0.0012717
0.00127179
0.00127202
0.0012722
0.00127201
0.00127202
0.00127231
0.00127222
0.00127227
0.00127253
0.00127234
0.00127264
0.00127331
0.00127289
0.00127311
0.00127374
0.00127356
0.00127368
0.00127369
0.00127327
0.00127323
0.001274
0.00127418
0.00127411
0.00127409
0.00127345
0.00127355
0.00127386
0.00127385
0.00127383
0.00127312
0.00127334
0.00127394
0.00127373
0.00127382
0.001274
0.00127392
0.00127376
0.00127333
0.00127358
0.00127411
0.00127345
0.00127369
0.00127402
0.00127323
0.00127337
0.00127381
0.0012731
0.0012732
0.00127365
0.00127311
0.00127341
0.00127381
0.00127354
0.00127354
0.00127348
0.00127353
0.0012735
0.00127293
0.00118408
0.00122778
0.00125575
0.00126873
0.00127187
0.00127154
0.0012718
0.00127221
0.00127209
0.00127201
0.00127152
0.00127251
0.00127348
0.00127302
0.00127281
0.00127307
0.00127313
0.00127289
0.00127277
0.00127242
0.0012723
0.0012722
0.00127163
0.00127173
0.0012719
0.00127185
0.00127186
0.00127133
0.00127152
0.00127167
0.0012713
0.00127173
0.00127228
0.00127168
0.00127186
0.00127249
0.0012722
0.00127254
0.00127335
0.0012736
0.00127374
0.00127318
0.00127351
0.00127406
0.00127406
0.00127414
0.00127378
0.00127401
0.00127412
0.00127402
0.00127361
0.00127382
0.0012741
0.00127372
0.00127342
0.00127373
0.00127406
0.00127398
0.00127395
0.00127357
0.00127345
0.00127291
0.00127313
0.00127368
0.00127368
0.00127366
0.00127352
0.00127347
0.00127279
0.00127304
0.00127354
0.00127304
0.00127282
0.00127326
0.00127375
0.00127358
0.00127309
0.00127295
0.00127327
0.00127302
0.0012734
0.00127375
0.00127304
0.00127322
0.00127368
0.00127336
0.00127357
0.00127365
0.00127346
0.00127278
0.0011842
0.00122768
0.00125554
0.00126871
0.0012737
0.00127491
0.00127478
0.00127471
0.00127463
0.00127456
0.00127446
0.00127422
0.00127386
0.00127354
0.00127333
0.00127308
0.00127306
0.00127329
0.00127313
0.00127278
0.00127267
0.00127248
0.00127166
0.0012716
0.00127176
0.00127177
0.0012718
0.00127168
0.00127169
0.00127098
0.00127112
0.00127179
0.00127142
0.00127171
0.0012724
0.00127264
0.0012726
0.00127306
0.00127381
0.00127399
0.00127417
0.00127367
0.00127404
0.00127455
0.00127459
0.00127472
0.00127447
0.0012745
0.00127441
0.00127475
0.00127509
0.00127489
0.001275
0.00127503
0.00127495
0.00127495
0.00127484
0.00127472
0.00127446
0.00127364
0.00127371
0.00127418
0.00127381
0.00127378
0.00127375
0.00127328
0.00127347
0.0012739
0.00127362
0.00127342
0.00127345
0.00127346
0.00127318
0.00127288
0.00127327
0.00127399
0.00127388
0.00127374
0.00127303
0.00127312
0.00127369
0.00127331
0.00127359
0.00127373
0.00127358
0.00127312
0.00127301
0.00127331
0.00127332
0.00127288
0.00118413
0.00122774
0.00125579
0.00126874
0.00127203
0.00127205
0.00127217
0.00127211
0.00127182
0.00127159
0.00127248
0.00127349
0.00127329
0.00127323
0.00127306
0.001273
0.00127259
0.00127262
0.00127278
0.00127259
0.00127247
0.00127236
0.00127214
0.00127197
0.00127197
0.00127183
0.00127153
0.00127143
0.00127133
0.00127081
0.00127113
0.00127192
0.00127144
0.00127172
0.00127242
0.00127267
0.00127263
0.00127304
0.00127386
0.00127376
0.00127407
0.00127432
0.00127422
0.00127455
0.00127472
0.00127478
0.00127483
0.00127423
0.00127415
0.00127398
0.00127325
0.00127341
0.00127383
0.00127359
0.00127327
0.00127354
0.00127402
0.00127401
0.00127398
0.00127326
0.00127346
0.00127404
0.00127392
0.00127377
0.00127313
0.00127331
0.00127392
0.00127346
0.00127377
0.00127402
0.00127392
0.00127386
0.00127327
0.00127349
0.00127383
0.00127354
0.00127392
0.00127408
0.00127396
0.00127392
0.00127324
0.0012734
0.00127388
0.00127353
0.00127355
0.00127356
0.00127344
0.00127335
0.00127325
0.00127259
0.00118406
0.00122776
0.00125607
0.00126829
0.00127204
0.00127237
0.00127218
0.00127167
0.0012719
0.00127258
0.00127255
0.00127228
0.00127142
0.00127156
0.00127198
0.00127185
0.0012717
0.00127123
0.00127102
0.0012704
0.00127059
0.00127099
0.00127073
0.00127041
0.00127061
0.00127101
0.00127043
0.00127081
0.00127145
0.00127094
0.00127097
0.0012714
0.00127166
0.00127194
0.0012723
0.00127262
0.00127277
0.00127253
0.0012729
0.00127328
0.00127285
0.00127277
0.00127296
0.00127271
0.00127302
0.00127361
0.00127333
0.00127316
0.00127316
0.00127312
0.00127347
0.00127359
0.00127345
0.00127301
0.00127303
0.00127354
0.00127329
0.00127307
0.00127344
0.0012739
0.00127376
0.00127353
0.00127302
0.00127329
0.00127349
0.00127302
0.00127331
0.00127372
0.00127329
0.00127331
0.00127315
0.00127266
0.00127279
0.00127331
0.00127309
0.00127283
0.00127317
0.00127356
0.00127345
0.00127331
0.00127281
0.00127316
0.0012736
0.0012736
0.00127359
0.00127302
0.0012729
0.00127326
0.00127334
0.0012729
0.00118415
0.00122765
0.00125586
0.00126883
0.00127244
0.00127262
0.00127242
0.00127188
0.00127206
0.00127247
0.00127231
0.00127203
0.00127205
0.00127239
0.00127158
0.00127139
0.00127206
0.00127208
0.00127187
0.00127171
0.00127138
0.00127093
0.00127089
0.00127088
0.00127074
0.00127045
0.00127051
0.00127088
0.00127093
0.00127062
0.00127087
0.00127179
0.00127211
0.00127229
0.00127252
0.00127251
0.0012724
0.00127256
0.00127252
0.0012726
0.00127286
0.00127271
0.00127302
0.00127369
0.00127339
0.00127342
0.00127418
0.00127449
0.00127435
0.00127374
0.00127373
0.00127404
0.00127361
0.00127344
0.00127369
0.00127402
0.00127386
0.0012733
0.00127353
0.00127379
0.00127368
0.00127362
0.00127313
0.00127342
0.00127359
0.00127348
0.00127346
0.001273
0.00127322
0.00127351
0.00127344
0.00127324
0.00127356
0.00127403
0.00127332
0.0012735
0.00127399
0.00127339
0.00127366
0.00127398
0.00127334
0.00127363
0.00127396
0.00127312
0.00127303
0.00127333
0.00127326
0.00127326
0.0012731
0.00127261
0.00118411
0.00122776
0.00125572
0.00126893
0.00127233
0.00127237
0.00127267
0.0012727
0.00127249
0.00127211
0.00127246
0.00127344
0.00127291
0.00127312
0.00127324
0.00127269
0.00127253
0.00127234
0.00127178
0.00127183
0.0012719
0.00127111
0.00127129
0.00127162
0.00127157
0.00127158
0.00127143
0.00127142
0.00127071
0.00127073
0.00127113
0.0012709
0.00127107
0.00127156
0.00127154
0.00127175
0.00127225
0.00127217
0.00127255
0.00127327
0.00127296
0.00127324
0.0012739
0.00127378
0.00127394
0.00127399
0.00127358
0.00127364
0.00127441
0.00127465
0.00127458
0.00127458
0.0012744
0.00127415
0.00127395
0.0012734
0.00127363
0.00127386
0.00127337
0.00127314
0.00127369
0.0012741
0.00127369
0.00127389
0.00127397
0.00127378
0.00127347
0.00127319
0.00127374
0.00127397
0.00127378
0.00127338
0.00127305
0.00127338
0.0012735
0.00127332
0.00127274
0.00127263
0.00127341
0.00127376
0.00127359
0.001273
0.00127319
0.00127356
0.00127353
0.00127351
0.00127282
0.00127309
0.00127354
0.00127272
0.0011842
0.00122769
0.00125557
0.00126873
0.00127385
0.00127467
0.00127434
0.00127429
0.00127404
0.00127408
0.00127398
0.0012734
0.00127344
0.00127346
0.00127295
0.00127296
0.00127284
0.00127248
0.00127229
0.001272
0.00127199
0.0012719
0.00127121
0.00127129
0.00127138
0.00127128
0.00127132
0.00127119
0.00127112
0.0012706
0.00127097
0.00127178
0.00127205
0.00127206
0.00127241
0.00127323
0.00127361
0.00127391
0.00127348
0.00127384
0.00127442
0.00127464
0.0012748
0.00127422
0.00127455
0.00127497
0.00127499
0.00127503
0.00127473
0.00127475
0.00127479
0.00127473
0.00127421
0.00127395
0.00127426
0.0012744
0.00127421
0.00127359
0.00127359
0.00127433
0.00127439
0.00127423
0.00127354
0.00127366
0.00127414
0.00127341
0.00127354
0.00127396
0.00127369
0.00127348
0.0012735
0.0012735
0.00127321
0.0012729
0.0012733
0.00127387
0.00127388
0.00127386
0.0012731
0.0012733
0.00127365
0.00127365
0.00127364
0.00127291
0.00127307
0.00127372
0.0012734
0.00127339
0.00127336
0.0012728
0.00118409
0.00122772
0.00125601
0.00126869
0.00127155
0.00127131
0.00127157
0.00127233
0.00127187
0.0012717
0.00127154
0.00127103
0.00127086
0.0012711
0.0012708
0.00127106
0.00127117
0.00127086
0.00127069
0.00127047
0.00127009
0.00127031
0.00127098
0.00127038
0.00127066
0.00127093
0.00127061
0.00127072
0.00127088
0.00127075
0.00127094
0.00127146
0.00127184
0.00127193
0.00127244
0.00127323
0.00127346
0.00127375
0.0012741
0.00127446
0.00127463
0.00127488
0.00127488
0.00127485
0.00127487
0.00127494
0.00127498
0.00127503
0.00127492
0.00127473
0.00127397
0.001274
0.00127447
0.00127448
0.00127443
0.00127367
0.00127355
0.00127414
0.00127434
0.00127412
0.0012734
0.00127325
0.00127372
0.00127397
0.00127382
0.00127316
0.00127342
0.00127382
0.0012738
0.00127377
0.00127311
0.00127294
0.00127323
0.00127305
0.00127337
0.00127406
0.00127351
0.00127382
0.00127415
0.0012739
0.00127394
0.00127396
0.00127389
0.00127332
0.00127311
0.00127364
0.00127401
0.00127397
0.00127394
0.00127312
0.0011842
0.00122769
0.00125557
0.00126875
0.00127374
0.00127494
0.00127479
0.0012747
0.00127446
0.00127444
0.00127433
0.00127388
0.00127366
0.00127345
0.00127316
0.00127285
0.00127262
0.00127195
0.0012719
0.00127188
0.00127164
0.00127134
0.00127122
0.00127125
0.00127105
0.00127105
0.00127101
0.00127117
0.00127114
0.00127128
0.00127135
0.00127091
0.00127128
0.001272
0.00127189
0.00127203
0.00127242
0.00127239
0.00127283
0.00127358
0.00127327
0.00127357
0.00127434
0.00127469
0.00127468
0.00127397
0.0012741
0.00127459
0.00127437
0.00127457
0.00127464
0.00127429
0.0012745
0.00127466
0.0012746
0.00127455
0.00127371
0.00127383
0.00127455
0.00127413
0.0012744
0.00127483
0.00127452
0.00127445
0.00127428
0.00127393
0.00127375
0.00127366
0.00127361
0.00127348
0.0012735
0.00127351
0.00127322
0.00127291
0.00127331
0.00127388
0.00127388
0.00127386
0.00127311
0.0012733
0.00127365
0.0012736
0.00127358
0.0012732
0.00127314
0.00127277
0.00127309
0.00127347
0.00127332
0.00127277
0.00118431
0.00122752
0.00125561
0.00126903
0.00127241
0.00127222
0.00127255
0.00127294
0.00127223
0.00127232
0.00127248
0.00127216
0.00127151
0.00127128
0.00127156
0.00127157
0.00127123
0.00127035
0.0012703
0.00127037
0.00127012
0.00126981
0.00126995
0.00127029
0.00126956
0.00126977
0.00127036
0.00127028
0.00127017
0.00127068
0.00127133
0.0012711
0.00127181
0.00127254
0.00127246
0.00127286
0.00127316
0.00127356
0.00127372
0.00127353
0.00127349
0.00127365
0.00127375
0.00127379
0.00127377
0.0012735
0.00127356
0.00127454
0.00127483
0.00127459
0.00127467
0.00127451
0.00127418
0.00127398
0.00127485
0.00127565
0.00127525
0.00127547
0.00127574
0.00127566
0.00127561
0.00127499
0.00127507
0.00127515
0.00127502
0.00127497
0.00127475
0.00127435
0.00127394
0.00127377
0.00127323
0.00127339
0.00127394
0.00127401
0.00127386
0.00127315
0.00127339
0.00127361
0.0012729
0.00127282
0.00127364
0.00127385
0.00127368
0.00127313
0.00127321
0.00127362
0.00127332
0.00127334
0.00127321
0.00127269
0.00118425
0.00122768
0.00125546
0.00126865
0.00127364
0.00127513
0.00127505
0.0012749
0.00127473
0.00127447
0.00127423
0.00127394
0.00127366
0.00127336
0.0012728
0.00127266
0.00127249
0.00127161
0.0012716
0.0012716
0.00127061
0.00127061
0.00127083
0.00127057
0.00127049
0.00127041
0.00127047
0.00127017
0.00127022
0.00127073
0.00127117
0.00127144
0.00127113
0.00127156
0.00127232
0.00127278
0.00127308
0.00127299
0.001273
0.00127318
0.00127315
0.00127329
0.00127405
0.00127443
0.00127437
0.0012741
0.00127383
0.00127429
0.0012746
0.00127423
0.00127449
0.00127458
0.00127381
0.00127394
0.00127488
0.00127459
0.00127495
0.00127529
0.00127463
0.00127488
0.00127511
0.00127445
0.00127463
0.00127475
0.0012744
0.00127443
0.00127425
0.00127363
0.00127372
0.00127396
0.00127338
0.00127352
0.00127358
0.00127345
0.0012734
0.00127288
0.00127312
0.0012738
0.0012737
0.00127356
0.00127312
0.00127298
0.00127318
0.00127299
0.0012734
0.00127371
0.00127308
0.00127339
0.00127374
0.00127286
0.0011842
0.00122769
0.00125556
0.00126875
0.00127369
0.00127526
0.00127521
0.00127492
0.00127477
0.00127453
0.00127421
0.0012739
0.00127368
0.0012734
0.00127297
0.0012726
0.00127216
0.00127209
0.00127191
0.00127109
0.00127111
0.00127116
0.00127071
0.00127057
0.00127055
0.00127063
0.00127063
0.00127056
0.00126999
0.00127044
0.00127115
0.00127073
0.00127118
0.00127195
0.00127198
0.0012722
0.00127264
0.00127264
0.00127309
0.00127384
0.00127356
0.00127372
0.00127428
0.0012744
0.00127448
0.00127448
0.00127445
0.00127473
0.00127482
0.00127468
0.00127463
0.00127407
0.00127429
0.00127518
0.00127477
0.00127507
0.00127539
0.00127526
0.00127524
0.00127509
0.00127494
0.00127452
0.00127446
0.0012744
0.00127393
0.0012741
0.00127429
0.00127356
0.00127365
0.00127425
0.00127421
0.0012742
0.0012741
0.00127339
0.00127335
0.00127372
0.0012738
0.0012738
0.00127347
0.00127341
0.00127294
0.00127324
0.00127366
0.00127366
0.00127364
0.00127285
0.00127301
0.00127356
0.00127346
0.00127296
0.00118425
0.00122768
0.00125546
0.00126864
0.00127367
0.0012749
0.00127472
0.00127473
0.00127465
0.00127428
0.00127411
0.00127375
0.00127345
0.0012729
0.00127276
0.00127255
0.00127164
0.00127161
0.00127158
0.00127055
0.00127051
0.00127071
0.00127025
0.00127022
0.00127003
0.00126946
0.00126961
0.00127016
0.00126996
0.00127008
0.00127054
0.0012706
0.00127112
0.00127223
0.00127295
0.00127336
0.00127379
0.00127413
0.0012744
0.00127451
0.00127391
0.0012739
0.00127421
0.00127376
0.00127381
0.00127419
0.00127383
0.00127375
0.00127434
0.00127467
0.00127457
0.00127449
0.00127384
0.00127389
0.00127495
0.00127475
0.00127506
0.00127547
0.00127529
0.00127532
0.00127525
0.00127529
0.001275
0.00127483
0.00127476
0.0012742
0.00127431
0.00127445
0.00127391
0.00127393
0.00127408
0.001274
0.00127392
0.00127394
0.00127377
0.0012734
0.00127313
0.00127352
0.00127368
0.0012735
0.00127296
0.00127298
0.00127337
0.00127281
0.00127308
0.00127344
0.00127269
0.00127278
0.00127328
0.0012726
0.00118425
0.00122771
0.00125532
0.00126908
0.00127299
0.00127316
0.00127326
0.0012732
0.00127266
0.00127276
0.00127275
0.00127236
0.00127179
0.00127146
0.00127156
0.00127131
0.00127104
0.00127081
0.00127054
0.00126978
0.00126945
0.00127018
0.00127052
0.00127034
0.00127019
0.00127001
0.0012699
0.00126937
0.00126978
0.00127056
0.00127032
0.00127068
0.00127135
0.00127158
0.00127192
0.00127244
0.00127286
0.0012734
0.00127365
0.00127343
0.00127379
0.00127436
0.0012743
0.00127437
0.00127439
0.00127448
0.00127446
0.00127436
0.00127395
0.00127406
0.00127553
0.00127702
0.00127694
0.00127671
0.00127662
0.0012766
0.00127656
0.0012764
0.00127618
0.00127562
0.00127572
0.0012758
0.00127533
0.00127523
0.0012752
0.00127525
0.00127517
0.00127493
0.00127491
0.00127492
0.00127475
0.00127404
0.00127409
0.00127427
0.00127419
0.00127421
0.00127402
0.00127368
0.00127368
0.00127367
0.00127298
0.00127317
0.00127341
0.00127272
0.00127282
0.00127334
0.0012731
0.00127318
0.00127304
0.00127253
0.00118418
0.00122765
0.0012558
0.00126877
0.00127195
0.001272
0.00127154
0.00127151
0.00127181
0.0012715
0.00127112
0.0012708
0.0012704
0.00127057
0.00127101
0.00127073
0.00127044
0.0012697
0.00126987
0.00127039
0.00127065
0.0012706
0.00126994
0.00126978
0.00126972
0.00126932
0.0012696
0.00127024
0.00127001
0.00127013
0.00127057
0.00127069
0.00127141
0.00127242
0.00127228
0.00127297
0.00127383
0.00127426
0.00127464
0.00127413
0.00127455
0.00127506
0.00127493
0.00127502
0.00127468
0.00127494
0.00127507
0.00127491
0.00127442
0.00127441
0.00127454
0.00127376
0.00127366
0.00127411
0.00127429
0.00127418
0.00127406
0.00127394
0.00127317
0.00127317
0.00127367
0.00127305
0.001273
0.00127338
0.0012732
0.00127335
0.00127335
0.00127287
0.00127313
0.00127385
0.00127379
0.00127361
0.00127357
0.00127359
0.00127334
0.00127305
0.00127335
0.00127387
0.00127385
0.00127383
0.00127348
0.00127339
0.00127282
0.00127306
0.00127341
0.00127267
0.00127261
0.00127312
0.00127317
0.00127287
0.0011842
0.00122769
0.00125556
0.0012687
0.00127388
0.00127455
0.00127426
0.00127418
0.00127396
0.0012738
0.00127339
0.00127329
0.00127315
0.00127274
0.00127199
0.00127183
0.00127173
0.00127136
0.00127109
0.00127074
0.00127061
0.00127059
0.00127029
0.00126976
0.00126965
0.00126968
0.00126967
0.00126934
0.0012696
0.00127029
0.00127079
0.00127105
0.00127177
0.0012724
0.00127291
0.00127341
0.00127299
0.00127353
0.00127406
0.00127396
0.00127429
0.00127439
0.00127441
0.00127425
0.00127426
0.00127407
0.00127448
0.00127493
0.00127462
0.00127455
0.00127433
0.00127477
0.0012766
0.00127705
0.00127687
0.00127683
0.00127672
0.00127667
0.00127649
0.00127634
0.00127619
0.00127596
0.00127574
0.00127576
0.00127572
0.00127501
0.00127508
0.00127521
0.00127464
0.00127491
0.00127513
0.00127484
0.00127493
0.00127512
0.00127498
0.0012747
0.00127464
0.00127448
0.00127414
0.00127383
0.00127361
0.00127297
0.00127314
0.0012737
0.00127365
0.00127363
0.00127287
0.00127307
0.00127342
0.00127261
0.0011842
0.00122769
0.00125555
0.00126874
0.0012737
0.00127501
0.00127489
0.00127458
0.00127453
0.0012744
0.0012741
0.00127392
0.00127348
0.00127313
0.00127253
0.00127236
0.00127214
0.00127122
0.00127118
0.00127115
0.00127083
0.00127043
0.00127035
0.00127038
0.00127029
0.00127033
0.00127027
0.00127039
0.00126983
0.00127031
0.00127109
0.00127083
0.00127143
0.00127241
0.00127258
0.00127294
0.00127358
0.00127413
0.00127431
0.00127491
0.00127538
0.00127553
0.00127568
0.00127511
0.00127541
0.00127563
0.00127553
0.0012755
0.00127547
0.00127539
0.00127467
0.00127495
0.00127668
0.0012772
0.00127696
0.00127701
0.00127699
0.00127671
0.00127652
0.00127636
0.00127623
0.00127621
0.00127613
0.00127604
0.00127543
0.00127548
0.00127558
0.0012751
0.00127533
0.00127545
0.00127536
0.00127533
0.00127514
0.00127509
0.00127488
0.00127485
0.00127452
0.00127447
0.00127439
0.00127447
0.00127429
0.00127354
0.00127342
0.00127363
0.00127303
0.00127302
0.00127366
0.00127373
0.00127358
0.00127286
0.00118415
0.00122764
0.00125595
0.00126866
0.00127186
0.00127283
0.00127267
0.00127167
0.00127147
0.00127166
0.00127145
0.00127122
0.00127067
0.00127123
0.00127226
0.00127158
0.00127146
0.00127198
0.00127172
0.00127126
0.00127043
0.00127037
0.00127045
0.00126951
0.00126959
0.00127
0.00126983
0.00127007
0.00127045
0.00127078
0.00127054
0.00127092
0.00127157
0.00127184
0.00127216
0.00127281
0.00127334
0.00127332
0.00127394
0.00127481
0.00127496
0.00127518
0.00127522
0.00127524
0.00127534
0.00127542
0.00127535
0.0012751
0.00127522
0.00127529
0.00127448
0.0012746
0.00127472
0.00127453
0.00127418
0.00127421
0.00127492
0.00127467
0.00127469
0.00127444
0.00127426
0.00127398
0.00127425
0.00127463
0.00127448
0.00127441
0.00127384
0.00127406
0.00127449
0.0012743
0.00127427
0.00127417
0.00127358
0.0012735
0.0012738
0.00127379
0.00127354
0.00127373
0.00127411
0.00127331
0.00127345
0.00127381
0.00127303
0.00127319
0.00127349
0.00127345
0.00127344
0.00127318
0.00127311
0.00127248
0.0011842
0.00122771
0.00125547
0.00126901
0.00127313
0.00127317
0.00127352
0.00127373
0.00127311
0.00127318
0.00127329
0.00127305
0.0012728
0.00127226
0.00127198
0.0012715
0.00127059
0.00127048
0.00127055
0.00127012
0.00126986
0.0012693
0.00126948
0.00126958
0.00126906
0.00126944
0.00126993
0.00126954
0.00126961
0.00127021
0.00127075
0.00127082
0.0012716
0.00127226
0.00127278
0.00127331
0.00127332
0.00127354
0.00127373
0.00127339
0.00127379
0.00127448
0.0012739
0.00127397
0.00127441
0.00127434
0.00127427
0.00127413
0.00127377
0.00127398
0.00127471
0.00127466
0.00127454
0.00127389
0.0012736
0.00127397
0.00127403
0.00127368
0.00127395
0.00127424
0.00127407
0.00127399
0.00127384
0.00127374
0.00127295
0.00127284
0.00127327
0.00127281
0.00127287
0.00127353
0.0012736
0.00127346
0.00127316
0.00127328
0.00127329
0.00127302
0.00127323
0.0012733
0.0012728
0.00127258
0.00127318
0.00127366
0.0012735
0.00127315
0.00127282
0.00127286
0.00127244
0.00127249
0.00127291
0.0012724
0.0011842
0.00122769
0.00125555
0.00126872
0.00127378
0.00127471
0.00127449
0.00127448
0.00127418
0.00127401
0.00127384
0.00127353
0.00127331
0.0012731
0.00127266
0.00127209
0.00127179
0.00127149
0.00127082
0.00127066
0.00127074
0.00127032
0.00127023
0.00127012
0.00126998
0.00126993
0.00126981
0.00126923
0.00126959
0.00127041
0.00127025
0.00127069
0.00127137
0.00127192
0.00127205
0.00127273
0.00127358
0.00127394
0.00127427
0.00127397
0.00127431
0.00127464
0.00127464
0.00127441
0.00127416
0.00127432
0.00127417
0.00127456
0.00127507
0.00127489
0.00127482
0.00127461
0.00127454
0.00127421
0.00127386
0.00127364
0.00127329
0.00127362
0.00127411
0.00127376
0.00127341
0.00127371
0.00127414
0.00127404
0.00127396
0.00127353
0.00127337
0.00127283
0.00127291
0.00127338
0.00127309
0.00127286
0.0012733
0.00127369
0.00127353
0.00127324
0.00127293
0.00127297
0.00127256
0.00127257
0.00127299
0.00127262
0.00127293
0.0012734
0.00127331
0.00127329
0.00127288
0.0012732
0.00127338
0.00127283
0.0011842
0.00122769
0.00125555
0.00126874
0.00127367
0.00127523
0.00127516
0.00127486
0.00127471
0.00127444
0.00127426
0.00127389
0.00127354
0.00127322
0.00127288
0.00127229
0.00127212
0.00127191
0.00127099
0.00127095
0.00127097
0.00127007
0.00127013
0.00127053
0.00127039
0.00127043
0.00127043
0.00127045
0.00127069
0.00127101
0.00127134
0.0012715
0.00127179
0.00127233
0.00127235
0.00127309
0.00127395
0.00127437
0.00127476
0.00127474
0.00127461
0.00127503
0.0012754
0.00127537
0.00127492
0.00127501
0.00127518
0.0012751
0.00127505
0.00127433
0.00127434
0.00127572
0.00127721
0.00127733
0.00127711
0.00127706
0.00127699
0.00127667
0.00127651
0.00127648
0.00127631
0.00127625
0.00127608
0.00127586
0.0012753
0.00127536
0.00127546
0.00127489
0.00127513
0.00127527
0.00127501
0.00127503
0.00127493
0.00127496
0.00127478
0.00127409
0.00127415
0.00127426
0.00127415
0.00127417
0.00127399
0.00127386
0.0012735
0.00127363
0.00127374
0.00127355
0.00127314
0.00127282
0.00127285
0.00127245
0.0011842
0.00122769
0.00125555
0.00126874
0.0012737
0.00127502
0.00127489
0.00127458
0.00127454
0.00127441
0.00127411
0.00127392
0.00127349
0.00127314
0.00127255
0.00127237
0.00127215
0.00127122
0.00127118
0.00127116
0.00127082
0.00127055
0.00127021
0.00127007
0.00127003
0.00127002
0.00126992
0.00126997
0.00126965
0.00127001
0.0012708
0.00127081
0.00127146
0.00127242
0.00127258
0.00127294
0.00127358
0.00127414
0.00127433
0.00127493
0.00127539
0.00127554
0.00127569
0.00127512
0.00127541
0.00127563
0.00127564
0.00127563
0.0012755
0.00127542
0.00127473
0.00127501
0.00127659
0.00127661
0.00127647
0.00127633
0.00127632
0.00127628
0.0012759
0.00127581
0.00127547
0.00127562
0.00127569
0.00127517
0.00127532
0.00127536
0.00127513
0.00127509
0.00127499
0.00127438
0.00127448
0.00127464
0.00127453
0.00127448
0.00127416
0.00127396
0.00127325
0.00127329
0.00127381
0.00127336
0.00127362
0.00127381
0.00127329
0.00127355
0.00127367
0.00127352
0.00127303
0.00127302
0.00127332
0.00127259
0.0011842
0.00122769
0.00125556
0.0012687
0.00127387
0.00127456
0.00127426
0.00127418
0.00127397
0.00127366
0.00127346
0.00127333
0.00127279
0.00127267
0.00127264
0.00127224
0.00127147
0.00127129
0.00127116
0.00127066
0.00127038
0.00127018
0.00127
0.0012693
0.00126942
0.00126965
0.00126929
0.00126988
0.00127058
0.00127097
0.00127145
0.00127167
0.0012722
0.0012728
0.00127328
0.00127322
0.00127344
0.00127369
0.00127347
0.00127401
0.0012745
0.00127465
0.00127479
0.00127447
0.00127447
0.00127412
0.00127446
0.00127493
0.00127486
0.00127481
0.00127434
0.00127474
0.00127668
0.00127678
0.00127641
0.00127627
0.00127631
0.00127635
0.0012762
0.00127604
0.0012754
0.00127543
0.00127582
0.00127574
0.0012755
0.00127471
0.00127479
0.00127498
0.00127425
0.00127446
0.00127487
0.00127473
0.00127458
0.00127382
0.00127385
0.00127429
0.00127442
0.00127427
0.00127405
0.00127401
0.00127382
0.00127328
0.00127328
0.00127363
0.00127294
0.00127292
0.00127361
0.00127367
0.00127349
0.00127277
0.00118418
0.00122765
0.00125581
0.0012687
0.00127212
0.00127239
0.00127215
0.00127151
0.00127158
0.00127224
0.00127217
0.00127183
0.00127096
0.00127095
0.00127121
0.00127076
0.00127056
0.00127021
0.00126976
0.00126955
0.0012693
0.00126963
0.00127024
0.00126948
0.0012697
0.00127017
0.00126951
0.00126979
0.00127061
0.001271
0.00127133
0.00127103
0.00127155
0.00127242
0.00127277
0.00127297
0.00127363
0.00127449
0.0012748
0.00127487
0.0012752
0.00127547
0.00127551
0.00127557
0.00127565
0.00127572
0.00127555
0.00127554
0.00127553
0.0012754
0.00127526
0.00127508
0.00127473
0.00127386
0.00127358
0.00127382
0.00127379
0.0012735
0.00127366
0.00127418
0.00127414
0.00127407
0.00127336
0.00127359
0.00127436
0.00127429
0.00127425
0.00127417
0.00127372
0.00127354
0.00127418
0.00127455
0.00127447