/*--------------------------------*- C++ -*----------------------------------*\
  =========                 |
  \\      /  F ield         | OpenFOAM: The Open Source CFD Toolbox
   \\    /   O peration     | Website:  https://openfoam.org
    \\  /    A nd           | Version:  11
     \\/     M anipulation  |
\*---------------------------------------------------------------------------*/
FoamFile
{
    format      ascii;
    class       volScalarField;
    location    "0.042";
    object      omega;
}
// * * * * * * * * * * * * * * * * * * * * * * * * * * * * * * * * * * * * * //

dimensions      [0 0 -1 0 0 0 0];

internalField   nonuniform List<scalar> 
287084
(
55.0642
56.0378
56.623
56.8689
56.9198
56.9209
56.9181
56.9069
56.913
56.9296
56.9278
56.9251
56.9213
56.9164
56.9137
56.9094
56.9192
56.9357
56.9236
56.9309
56.9385
56.9322
56.9332
56.9309
56.9279
56.9182
56.9228
56.933
56.9307
56.9263
56.9208
56.9171
56.9032
56.9017
56.9158
56.9211
56.9193
56.9203
56.916
56.9006
56.9053
56.9153
56.8975
56.897
56.9058
56.9009
56.8965
56.907
56.9146
56.9052
56.9083
56.909
56.9085
56.9084
56.8939
56.8993
56.9098
56.9069
56.9083
56.9032
56.9033
56.8955
56.9013
56.914
56.9148
56.9148
56.8985
56.9039
56.9142
56.9104
56.9099
56.902
56.9081
56.9217
56.9213
56.9232
56.92
56.9051
56.9074
56.9168
56.9177
56.9177
56.9104
56.908
56.9041
56.8914
56.8963
56.9094
56.9078
56.9023
55.0672
56.0282
56.6158
56.8685
56.9205
56.9191
56.9196
56.917
56.9233
56.9258
56.9224
56.9117
56.911
56.9178
56.9064
56.9041
56.9146
56.9172
56.9084
56.9109
56.9275
56.9262
56.9307
56.9357
56.933
56.9237
56.9299
56.938
56.9209
56.9253
56.9311
56.9122
56.9107
56.9189
56.915
56.9101
56.9086
56.9063
56.9169
56.9248
56.9235
56.923
56.9089
56.9151
56.9214
56.9183
56.913
56.9065
56.9031
56.8997
56.8949
56.9014
56.9125
56.9096
56.899
56.9011
56.9121
56.8985
56.9042
56.9149
56.9119
56.9129
56.9102
56.9099
56.9002
56.9066
56.9171
56.9146
56.9096
56.906
56.9179
56.9255
56.9217
56.9062
56.9062
56.9164
56.9074
56.9141
56.9182
56.9111
56.9122
56.9115
56.9015
56.9047
56.9085
56.9056
56.9008
56.8966
56.9021
56.8923
55.0672
56.0275
56.6153
56.8659
56.9219
56.9358
56.9338
56.9196
56.9213
56.9329
56.9333
56.9336
56.931
56.9294
56.9227
56.9269
56.9346
56.9319
56.9273
56.9183
56.9201
56.9204
56.9288
56.9427
56.9444
56.9413
56.9252
56.9295
56.9367
56.9193
56.9223
56.934
56.9187
56.9211
56.9324
56.9188
56.9231
56.9353
56.9316
56.9323
56.9298
56.9216
56.9228
56.9259
56.9234
56.9167
56.919
56.9236
56.9233
56.9232
56.9054
56.9083
56.9138
56.8993
56.9056
56.9161
56.8987
56.9004
56.9101
56.9115
56.9117
56.9024
56.9024
56.8997
56.9105
56.9202
56.918
56.9107
56.9099
56.9149
56.9137
56.9132
56.8985
56.9038
56.9128
56.8966
56.8976
56.911
56.9081
56.9087
56.9041
56.9124
56.9182
56.9021
56.9069
56.9159
56.8986
56.9028
56.9108
56.8932
55.0664
56.0298
56.6102
56.8657
56.9324
56.9442
56.9411
56.9419
56.9367
56.9374
56.9384
56.9385
56.9385
56.9257
56.9324
56.9386
56.9353
56.9291
56.9213
56.9228
56.9242
56.9246
56.9198
56.9203
56.9225
56.9227
56.9132
56.9117
56.9298
56.936
56.9321
56.9234
56.9162
56.9166
56.9124
56.9103
56.9123
56.9068
56.9142
56.9274
56.9224
56.9236
56.918
56.9191
56.9199
56.9173
56.9157
56.9055
56.907
56.9129
56.9093
56.9092
56.9078
56.8957
56.8999
56.9138
56.8993
56.9045
56.915
56.9142
56.914
56.9003
56.9083
56.9217
56.9162
56.918
56.9196
56.9166
56.9207
56.9219
56.9057
56.9103
56.9183
56.9039
56.9066
56.9204
56.9175
56.9234
56.9256
56.9213
56.9061
56.9041
56.9159
56.9181
56.9151
56.8999
56.9039
56.9122
56.9098
56.9024
55.0664
56.0296
56.6094
56.8674
56.9282
56.929
56.9237
56.9296
56.938
56.923
56.9289
56.9345
56.933
56.9328
56.9208
56.9251
56.9266
56.9249
56.9249
56.9225
56.916
56.9237
56.9395
56.9316
56.9336
56.9304
56.9191
56.9231
56.9337
56.9274
56.9233
56.9214
56.9151
56.9225
56.9367
56.9229
56.9292
56.935
56.9351
56.9349
56.9152
56.9169
56.9225
56.9229
56.9228
56.905
56.909
56.9163
56.9006
56.9059
56.9166
56.9045
56.8993
56.9007
56.8952
56.9024
56.9167
56.9097
56.9116
56.9085
56.8982
56.9021
56.9145
56.9001
56.904
56.9147
56.9016
56.8994
56.905
56.8979
56.9039
56.9206
56.923
56.9201
56.9039
56.9094
56.9191
56.9089
56.9086
56.9078
56.8984
56.9031
56.9163
56.9021
56.9084
56.9177
56.9022
56.9081
56.9175
56.899
55.0652
56.0317
56.6123
56.8567
56.905
56.8957
56.8989
56.9226
56.9254
56.921
56.9093
56.905
56.9145
56.9109
56.9201
56.9333
56.9241
56.9248
56.9243
56.9258
56.9227
56.912
56.9166
56.9282
56.9198
56.9142
56.9232
56.9301
56.9272
56.9181
56.9192
56.9322
56.9291
56.9304
56.9291
56.9156
56.913
56.9183
56.9074
56.9051
56.9102
56.9011
56.9046
56.9167
56.9037
56.907
56.9194
56.9134
56.9154
56.9123
56.9012
56.9019
56.9183
56.92
56.9177
56.9166
56.9038
56.9066
56.9136
56.9126
56.9121
56.8976
56.9038
56.9169
56.9139
56.9147
56.9155
56.9171
56.9141
56.9049
56.9124
56.9239
56.9096
56.9157
56.9225
56.9054
56.9095
56.9197
56.9036
56.907
56.9174
56.9049
56.912
56.9203
56.9158
56.9167
56.9157
56.917
56.9157
56.9021
55.0631
56.0346
56.6115
56.8592
56.9108
56.9007
56.9075
56.9176
56.9158
56.9136
56.9075
56.9372
56.9583
56.9479
56.947
56.9574
56.9603
56.9572
56.957
56.954
56.9546
56.9535
56.9412
56.944
56.948
56.9462
56.9459
56.9339
56.9352
56.9356
56.9255
56.9313
56.9386
56.9204
56.9214
56.9315
56.9181
56.9216
56.9355
56.9341
56.9311
56.9163
56.9213
56.9303
56.9264
56.9259
56.9174
56.9202
56.9209
56.9175
56.9075
56.9123
56.9175
56.9067
56.9009
56.9098
56.9163
56.9141
56.9125
56.9035
56.9002
56.8913
56.8985
56.9106
56.9101
56.9101
56.907
56.9062
56.8927
56.8994
56.9103
56.897
56.894
56.9067
56.9166
56.9131
56.8988
56.8985
56.9102
56.9031
56.9115
56.9183
56.9029
56.9077
56.9177
56.9119
56.9154
56.9166
56.9133
56.8979
55.0658
56.0316
56.6064
56.8613
56.953
56.9758
56.975
56.9758
56.9758
56.9736
56.9705
56.9687
56.9631
56.9613
56.9624
56.9599
56.9615
56.9665
56.9671
56.9644
56.9651
56.9601
56.9427
56.944
56.9483
56.947
56.9468
56.9419
56.9396
56.9219
56.9237
56.9356
56.9205
56.9228
56.9337
56.9316
56.9252
56.9314
56.9426
56.9409
56.9405
56.9263
56.9315
56.9391
56.9366
56.935
56.9301
56.9316
56.928
56.9336
56.9396
56.9364
56.9366
56.9367
56.9346
56.9316
56.9291
56.9264
56.9217
56.9061
56.9102
56.9213
56.9136
56.9145
56.9137
56.9026
56.9073
56.9168
56.9093
56.9061
56.9075
56.9082
56.9008
56.8953
56.9073
56.9193
56.9193
56.9191
56.9016
56.9054
56.9188
56.9097
56.9155
56.918
56.9146
56.9045
56.9045
56.9126
56.9115
56.9014
55.0642
56.0332
56.6116
56.8584
56.9132
56.9118
56.9135
56.9136
56.9084
56.9063
56.934
56.9565
56.9563
56.9583
56.9545
56.9532
56.9503
56.9554
56.9617
56.9608
56.958
56.956
56.9558
56.953
56.9514
56.9478
56.9397
56.9356
56.9318
56.9195
56.9248
56.9379
56.9211
56.9233
56.934
56.9316
56.9248
56.93
56.943
56.9361
56.9369
56.9382
56.9342
56.9369
56.9376
56.9363
56.9353
56.9183
56.9141
56.9106
56.8957
56.9001
56.9091
56.9017
56.8953
56.9036
56.9139
56.9132
56.9127
56.8981
56.9039
56.9135
56.9136
56.9135
56.8981
56.9035
56.9177
56.9076
56.9148
56.9199
56.9175
56.9156
56.9045
56.9106
56.918
56.9133
56.9217
56.9243
56.9213
56.9206
56.9068
56.9113
56.9223
56.9153
56.917
56.9141
56.9116
56.9126
56.9083
56.8934
55.0625
56.0342
56.6172
56.8474
56.9112
56.9162
56.9135
56.9039
56.9131
56.9272
56.9279
56.9279
56.9125
56.92
56.9321
56.9319
56.9318
56.9236
56.9223
56.9135
56.9215
56.9318
56.9263
56.9209
56.9279
56.9362
56.9229
56.9299
56.9406
56.9225
56.9209
56.9294
56.9291
56.9294
56.9285
56.9284
56.9278
56.9164
56.9184
56.9214
56.9043
56.9002
56.9041
56.8941
56.8984
56.909
56.8982
56.894
56.8961
56.8945
56.9002
56.9017
56.8984
56.8886
56.8913
56.9037
56.8946
56.8907
56.9019
56.9117
56.9082
56.8999
56.892
56.9007
56.905
56.8962
56.9034
56.9123
56.9012
56.9001
56.8998
56.8911
56.8951
56.9073
56.8996
56.8948
56.9048
56.913
56.9097
56.9031
56.8954
56.9062
56.9151
56.9148
56.9146
56.9
56.8992
56.9089
56.9096
56.9022
55.0646
56.0312
56.6132
56.8605
56.9196
56.9215
56.9188
56.9085
56.9165
56.9276
56.9264
56.9232
56.9282
56.9389
56.9244
56.9255
56.9441
56.9463
56.9447
56.9446
56.9391
56.9323
56.9342
56.9354
56.933
56.9263
56.9281
56.9347
56.9318
56.9205
56.923
56.9364
56.9372
56.9371
56.9325
56.9218
56.9162
56.9166
56.9058
56.9031
56.9076
56.8985
56.902
56.9141
56.901
56.9007
56.9187
56.9222
56.9181
56.9035
56.9049
56.9124
56.8986
56.8963
56.9037
56.9108
56.9085
56.896
56.9022
56.9081
56.9054
56.9012
56.8941
56.9031
56.9067
56.9044
56.9016
56.8949
56.9018
56.9081
56.9065
56.9027
56.9119
56.922
56.9065
56.9116
56.9226
56.9096
56.9162
56.9228
56.9093
56.9164
56.9231
56.9044
56.9046
56.9127
56.9073
56.9072
56.9042
56.8941
55.0638
56.0334
56.61
56.8625
56.9194
56.9186
56.9251
56.9268
56.9246
56.9189
56.9329
56.9572
56.9491
56.9571
56.9627
56.9558
56.9572
56.9567
56.9468
56.951
56.9552
56.941
56.9478
56.9559
56.9551
56.9551
56.9497
56.9465
56.9252
56.9244
56.9318
56.9153
56.9141
56.9216
56.9089
56.9075
56.9152
56.905
56.9076
56.9185
56.9052
56.908
56.9195
56.9132
56.9149
56.9118
56.9005
56.9028
56.9181
56.922
56.9198
56.9167
56.9125
56.907
56.9036
56.8947
56.902
56.9071
56.8949
56.8918
56.9077
56.9158
56.9085
56.9128
56.9146
56.9109
56.9012
56.8984
56.914
56.9181
56.9139
56.902
56.8981
56.9076
56.9098
56.9068
56.8937
56.8938
56.9118
56.9177
56.9143
56.9007
56.9063
56.9142
56.9132
56.9129
56.8985
56.9053
56.9149
56.897
55.0658
56.0315
56.6064
56.8607
56.9547
56.9686
56.9637
56.9658
56.9624
56.9642
56.9648
56.957
56.961
56.9648
56.9591
56.9623
56.9634
56.9619
56.9624
56.9595
56.9606
56.9612
56.9494
56.9524
56.9546
56.9518
56.948
56.9422
56.9379
56.9241
56.9285
56.94
56.9378
56.93
56.9316
56.9434
56.9432
56.9417
56.9247
56.9276
56.9355
56.9343
56.9338
56.9185
56.9239
56.9306
56.929
56.9288
56.9235
56.9249
56.9234
56.9197
56.9068
56.9045
56.9138
56.9166
56.9138
56.9001
56.903
56.919
56.9204
56.9195
56.9035
56.9079
56.9193
56.9029
56.9073
56.9169
56.9094
56.9061
56.9075
56.908
56.9006
56.8951
56.907
56.9191
56.9188
56.9185
56.9027
56.9079
56.9155
56.9152
56.9151
56.8997
56.9049
56.9197
56.9126
56.9134
56.9122
56.8992
55.0631
56.0329
56.6162
56.8554
56.901
56.8937
56.9017
56.9208
56.913
56.9135
56.913
56.9044
56.9054
56.916
56.9128
56.9223
56.9281
56.9249
56.9227
56.9213
56.92
56.9308
56.9476
56.9364
56.9434
56.9483
56.941
56.942
56.9408
56.9282
56.9278
56.936
56.9356
56.9284
56.9313
56.9407
56.9352
56.9346
56.9358
56.9374
56.9356
56.9336
56.9293
56.9285
56.9286
56.9287
56.926
56.9231
56.9197
56.9176
56.9023
56.9052
56.917
56.9167
56.9155
56.899
56.8993
56.9131
56.9166
56.9129
56.8971
56.8972
56.9081
56.9098
56.91
56.8972
56.9041
56.9131
56.9128
56.9126
56.8961
56.8948
56.9061
56.9011
56.9085
56.9235
56.9118
56.9192
56.9261
56.9225
56.9246
56.9238
56.9204
56.9052
56.9033
56.9179
56.9248
56.9235
56.9225
56.9057
55.0658
56.0315
56.6063
56.8611
56.9527
56.9756
56.9747
56.9756
56.9727
56.9732
56.9741
56.9699
56.9701
56.9666
56.9647
56.9656
56.9653
56.9538
56.9565
56.9602
56.9588
56.9557
56.9567
56.9595
56.9574
56.9575
56.9517
56.9489
56.9436
56.9408
56.936
56.9207
56.9226
56.9301
56.9142
56.9098
56.9133
56.9035
56.9063
56.9169
56.9032
56.9061
56.9175
56.9192
56.9192
56.9024
56.9054
56.9161
56.911
56.9139
56.915
56.9096
56.9141
56.9178
56.917
56.9167
56.8997
56.9052
56.9229
56.9136
56.9205
56.9303
56.9227
56.9227
56.9221
56.9115
56.9095
56.9114
56.9079
56.9057
56.9072
56.9078
56.9005
56.895
56.9069
56.919
56.9187
56.9184
56.9026
56.9078
56.9153
56.9138
56.913
56.9039
56.9031
56.8973
56.905
56.9128
56.9094
56.8975
55.0683
56.0274
56.6081
56.8652
56.9216
56.915
56.9236
56.9338
56.9214
56.9266
56.9334
56.9303
56.92
56.9214
56.931
56.9327
56.933
56.9196
56.9233
56.9293
56.9282
56.9251
56.932
56.941
56.926
56.9309
56.9422
56.9345
56.9277
56.9346
56.9408
56.9279
56.9344
56.9402
56.9297
56.9305
56.9247
56.9221
56.9198
56.9077
56.9033
56.9054
56.9005
56.8953
56.8942
56.889
56.8912
56.9126
56.9168
56.9108
56.9104
56.91
56.9028
56.9004
56.9254
56.9417
56.9347
56.9402
56.9464
56.9454
56.9453
56.9337
56.9359
56.9383
56.9359
56.9357
56.9311
56.9199
56.9145
56.9146
56.902
56.9064
56.9162
56.9168
56.9169
56.9026
56.9086
56.913
56.898
56.8984
56.9172
56.9199
56.9163
56.9039
56.9074
56.9169
56.9077
56.9076
56.9073
56.8969
55.0671
56.031
56.6039
56.8589
56.951
56.9806
56.9795
56.9756
56.975
56.9727
56.9726
56.9706
56.9661
56.9634
56.9593
56.9626
56.9638
56.9503
56.9557
56.96
56.9427
56.9471
56.9547
56.9499
56.9498
56.9503
56.9493
56.9345
56.932
56.9376
56.9387
56.9372
56.9188
56.9194
56.9238
56.9242
56.9238
56.9082
56.9022
56.9024
56.8922
56.8914
56.9068
56.9105
56.9066
56.8957
56.8915
56.9038
56.9094
56.9029
56.9085
56.9106
56.8951
56.9009
56.9242
56.9177
56.9266
56.9342
56.9214
56.9283
56.9339
56.9207
56.9259
56.9287
56.921
56.9202
56.9197
56.9082
56.9109
56.9167
56.9052
56.9081
56.9096
56.9069
56.9038
56.8951
56.9031
56.9148
56.915
56.9149
56.9012
56.8996
56.9081
56.9031
56.9117
56.9177
56.9044
56.9118
56.9189
56.8998
55.0659
56.0315
56.6063
56.8612
56.9525
56.9808
56.9823
56.9809
56.9813
56.9762
56.9733
56.9735
56.9724
56.9676
56.9648
56.965
56.9608
56.9631
56.9642
56.9524
56.9576
56.9623
56.9571
56.9573
56.9548
56.9527
56.95
56.9451
56.929
56.9332
56.94
56.9206
56.9218
56.9286
56.9136
56.9093
56.9123
56.902
56.9043
56.9145
56.9009
56.901
56.911
56.9065
56.9063
56.9077
56.9064
56.9105
56.912
56.9088
56.9084
56.8985
56.9061
56.9275
56.9186
56.9268
56.9342
56.9338
56.9319
56.9308
56.9315
56.9227
56.9235
56.9227
56.9122
56.9165
56.9212
56.9062
56.9103
56.9251
56.925
56.9222
56.9191
56.9058
56.9075
56.9171
56.9169
56.9167
56.9088
56.9078
56.8996
56.9072
56.9159
56.9157
56.9155
56.8986
56.9036
56.9158
56.913
56.9022
55.0671
56.031
56.6039
56.8589
56.9516
56.9753
56.9742
56.9749
56.9761
56.971
56.9685
56.9682
56.9694
56.9615
56.9622
56.963
56.9495
56.9549
56.9595
56.9424
56.9469
56.9555
56.9472
56.9465
56.9452
56.9339
56.9359
56.9445
56.9294
56.9259
56.9301
56.9198
56.9209
56.933
56.9367
56.9339
56.9301
56.9297
56.9281
56.9232
56.9011
56.8992
56.906
56.8909
56.8914
56.8995
56.8858
56.8852
56.9013
56.9076
56.9055
56.9037
56.8923
56.8971
56.9244
56.9192
56.927
56.9367
56.9359
56.9387
56.9354
56.9344
56.9321
56.9322
56.9316
56.9188
56.9216
56.9253
56.9154
56.9166
56.9208
56.9205
56.9163
56.9146
56.9131
56.9045
56.901
56.912
56.9147
56.9113
56.8991
56.9016
56.911
56.8978
56.9041
56.9115
56.8952
56.8985
56.9103
56.8944
55.067
56.0315
56.6014
56.868
56.933
56.9337
56.9383
56.9403
56.9334
56.9387
56.9421
56.9365
56.9295
56.9304
56.9396
56.9395
56.9398
56.9379
56.9375
56.9246
56.9243
56.9493
56.9579
56.955
56.9493
56.9443
56.9402
56.9264
56.9305
56.9398
56.9209
56.92
56.9271
56.9152
56.912
56.9153
56.9109
56.9106
56.91
56.899
56.9015
56.9093
56.9017
56.901
56.9024
56.9003
56.8993
56.8998
56.8901
56.8949
56.9313
56.9631
56.963
56.9592
56.9592
56.9576
56.9549
56.9526
56.9521
56.9429
56.9459
56.9487
56.9408
56.9411
56.9388
56.9383
56.937
56.9354
56.9363
56.9372
56.936
56.9196
56.9216
56.9261
56.9239
56.9217
56.9173
56.9136
56.9145
56.9147
56.9003
56.9051
56.9102
56.8952
56.8989
56.911
56.9029
56.9022
56.902
56.8932
55.0653
56.031
56.6119
56.8586
56.9083
56.9085
56.9021
56.9046
56.9152
56.909
56.9051
56.9057
56.9019
56.9111
56.9258
56.9247
56.9246
56.9162
56.927
56.9411
56.9516
56.9578
56.9482
56.9485
56.9476
56.9365
56.9404
56.9498
56.9342
56.9298
56.9329
56.9229
56.9268
56.9367
56.9204
56.9242
56.932
56.931
56.9303
56.912
56.9158
56.9218
56.9135
56.9129
56.9055
56.9096
56.9115
56.908
56.8974
56.899
56.9032
56.8869
56.8877
56.8984
56.9001
56.9018
56.9007
56.8986
56.8845
56.8879
56.9012
56.8874
56.8888
56.8994
56.8958
56.8985
56.8989
56.8906
56.8979
56.9142
56.913
56.9094
56.9098
56.9109
56.9038
56.8985
56.9079
56.9191
56.9182
56.9178
56.9093
56.9075
56.897
56.9033
56.9107
56.8945
56.8951
56.9053
56.9054
56.9016
55.0659
56.0315
56.6064
56.8606
56.956
56.9671
56.9639
56.966
56.9613
56.9585
56.9569
56.9603
56.9623
56.959
56.9481
56.9514
56.9552
56.9545
56.952
56.9519
56.9558
56.9564
56.9566
56.9459
56.9425
56.9421
56.9419
56.9311
56.9313
56.9386
56.9384
56.9314
56.9337
56.9344
56.9327
56.9317
56.9113
56.9136
56.9164
56.9048
56.9039
56.9035
56.9002
56.8915
56.8893
56.8872
56.8984
56.9077
56.9027
56.9029
56.8988
56.9122
56.9534
56.9634
56.9629
56.9642
56.9603
56.9576
56.9551
56.9535
56.9517
56.9477
56.9475
56.9497
56.9498
56.9359
56.9382
56.9418
56.931
56.938
56.9428
56.9388
56.94
56.9413
56.9416
56.9351
56.9317
56.928
56.9205
56.9142
56.9104
56.8991
56.905
56.9173
56.9155
56.9149
56.899
56.9041
56.9115
56.8941
55.0659
56.0315
56.6063
56.8612
56.9527
56.9784
56.9774
56.9732
56.9751
56.9758
56.9735
56.9714
56.9668
56.9642
56.9605
56.964
56.9655
56.9524
56.9582
56.9632
56.9619
56.9581
56.9601
56.9634
56.9617
56.9615
56.9561
56.9533
56.9346
56.9373
56.9438
56.9253
56.9274
56.9369
56.9235
56.9205
56.9242
56.9257
56.923
56.9274
56.9309
56.9286
56.928
56.9136
56.9185
56.922
56.9217
56.9217
56.9187
56.9166
56.9037
56.9148
56.9548
56.9661
56.9643
56.9651
56.966
56.9607
56.9588
56.9597
56.9584
56.9597
56.9561
56.953
56.9431
56.9458
56.9489
56.9407
56.946
56.9488
56.9474
56.9472
56.9432
56.9429
56.9384
56.9374
56.9332
56.9345
56.9303
56.9293
56.9275
56.9126
56.9126
56.9183
56.9027
56.9042
56.9173
56.9178
56.9165
56.8998
55.0646
56.0311
56.6154
56.856
56.908
56.9255
56.9257
56.9068
56.908
56.9173
56.917
56.917
56.9093
56.9302
56.9573
56.9484
56.9531
56.9692
56.9703
56.9667
56.9537
56.9581
56.9636
56.9452
56.9486
56.9566
56.9507
56.9518
56.9498
56.9456
56.9274
56.9267
56.9317
56.9196
56.9148
56.9175
56.9176
56.9081
56.9131
56.9245
56.9198
56.9195
56.9161
56.9147
56.9153
56.9162
56.9136
56.9087
56.9131
56.9153
56.8991
56.9035
56.9073
56.9039
56.8982
56.9034
56.9222
56.9148
56.9141
56.9132
56.9137
56.9084
56.9154
56.9243
56.9211
56.9207
56.9107
56.9169
56.9268
56.9253
56.9258
56.9219
56.9089
56.9098
56.9183
56.9174
56.9117
56.9163
56.9246
56.9071
56.9109
56.9188
56.9016
56.9059
56.9125
56.9112
56.911
56.9045
56.9029
56.8914
55.0658
56.0319
56.6048
56.8668
56.9396
56.9383
56.9471
56.9535
56.9444
56.9498
56.956
56.9553
56.9553
56.9482
56.9457
56.9422
56.9311
56.937
56.9446
56.9435
56.9442
56.9356
56.9431
56.9471
56.9375
56.9447
56.9519
56.9348
56.9305
56.9353
56.9357
56.9264
56.9297
56.9307
56.9286
56.9276
56.9145
56.9073
56.903
56.8905
56.8949
56.9052
56.8876
56.8883
56.8973
56.891
56.8861
56.8855
56.8809
56.8878
56.9054
56.9048
56.903
56.8874
56.885
56.8973
56.899
56.8949
56.9023
56.9095
56.9092
56.9092
56.904
56.9027
56.8874
56.8882
56.9003
56.889
56.8919
56.9059
56.9079
56.9068
56.9006
56.9031
56.9036
56.9004
56.9041
56.9055
56.8927
56.8896
56.9063
56.9157
56.9118
56.9006
56.8963
56.9011
56.8904
56.8921
56.9026
56.8903
55.0658
56.0315
56.6063
56.861
56.9543
56.9712
56.967
56.9668
56.9666
56.9673
56.9674
56.9685
56.9671
56.9647
56.9606
56.9579
56.9584
56.9585
56.9521
56.9548
56.9627
56.9593
56.9619
56.9589
56.9532
56.9511
56.9461
56.9294
56.9322
56.9413
56.9221
56.9216
56.9271
56.9227
56.9121
56.9159
56.923
56.9198
56.9147
56.9032
56.9053
56.9077
56.9034
56.8922
56.8877
56.8943
56.8897
56.8985
56.9097
56.9085
56.9086
56.9022
56.8993
56.8934
56.8875
56.887
56.8835
56.8934
56.9051
56.8968
56.8912
56.9019
56.912
56.9101
56.9079
56.8988
56.8967
56.888
56.8921
56.9038
56.8952
56.8915
56.9045
56.9125
56.9089
56.8995
56.8961
56.9011
56.8908
56.8921
56.9028
56.8934
56.9004
56.9104
56.9076
56.9073
56.9002
56.9071
56.9104
56.8999
55.0658
56.0315
56.6063
56.8612
56.9525
56.9809
56.9823
56.981
56.9818
56.9768
56.9741
56.9741
56.9726
56.9682
56.9656
56.962
56.966
56.9677
56.9547
56.9605
56.9662
56.9516
56.9574
56.9685
56.965
56.9649
56.9634
56.9552
56.9515
56.949
56.9469
56.9372
56.9331
56.9351
56.9208
56.9246
56.9318
56.9301
56.9294
56.9195
56.9117
56.9175
56.9216
56.9179
56.9059
56.9075
56.9108
56.9088
56.9084
56.8944
56.8983
56.9336
56.9628
56.968
56.9672
56.9684
56.9662
56.9606
56.9607
56.9622
56.957
56.954
56.9514
56.9507
56.9411
56.9432
56.9462
56.9356
56.9416
56.9449
56.9418
56.944
56.9391
56.9372
56.9361
56.9229
56.9245
56.9271
56.9246
56.9223
56.9184
56.9155
56.9111
56.9155
56.9177
56.9137
56.9009
56.8967
56.9011
56.8917
55.0659
56.0315
56.6063
56.8612
56.9528
56.9785
56.9776
56.9734
56.9752
56.976
56.9736
56.9715
56.9669
56.9644
56.9607
56.9642
56.9657
56.9525
56.9583
56.9635
56.962
56.9576
56.9564
56.959
56.9578
56.9527
56.9456
56.9437
56.9311
56.9318
56.9397
56.9257
56.928
56.9367
56.9235
56.9205
56.9242
56.9259
56.9233
56.9278
56.9311
56.9287
56.9281
56.9137
56.9185
56.922
56.9217
56.9217
56.919
56.9181
56.9054
56.916
56.9515
56.9521
56.9517
56.9504
56.951
56.9519
56.9469
56.9474
56.9408
56.9442
56.9464
56.9376
56.9413
56.9427
56.941
56.9417
56.9381
56.9247
56.9285
56.9324
56.9299
56.9278
56.9204
56.9162
56.9034
56.9071
56.9196
56.9093
56.9149
56.9185
56.9084
56.914
56.9163
56.9128
56.9021
56.9037
56.9113
56.894
55.0659
56.0315
56.6064
56.8606
56.956
56.9671
56.964
56.9661
56.9614
56.9586
56.9595
56.9617
56.9562
56.9584
56.9636
56.9605
56.9495
56.9524
56.9555
56.9526
56.9527
56.9503
56.9496
56.938
56.9414
56.945
56.9354
56.9437
56.9513
56.9504
56.9501
56.9454
56.9457
56.9433
56.9389
56.9241
56.9174
56.9135
56.9024
56.9081
56.9124
56.91
56.9085
56.8975
56.8965
56.8898
56.8977
56.9075
56.9059
56.9058
56.8983
56.9115
56.9552
56.9566
56.9488
56.9484
56.9515
56.9519
56.953
56.9523
56.9382
56.9409
56.948
56.9489
56.9458
56.9284
56.9317
56.9367
56.9219
56.928
56.9338
56.934
56.934
56.9158
56.9181
56.9262
56.927
56.9271
56.922
56.9218
56.918
56.9063
56.9085
56.9172
56.9005
56.9019
56.9164
56.9167
56.9137
56.8975
55.0653
56.031
56.6122
56.8574
56.913
56.9176
56.9147
56.9028
56.9096
56.9251
56.926
56.9261
56.9133
56.919
56.93
56.925
56.9241
56.9223
56.9217
56.9265
56.9264
56.9385
56.9545
56.9399
56.9462
56.9551
56.9376
56.9402
56.9491
56.9499
56.9494
56.9294
56.9304
56.9381
56.9295
56.9227
56.928
56.9369
56.9348
56.9287
56.9297
56.9307
56.9272
56.9259
56.9262
56.9268
56.9245
56.9249
56.9226
56.9173
56.9149
56.9123
56.9067
56.8875
56.8865
56.8979
56.8972
56.8917
56.8971
56.91
56.9099
56.9096
56.8954
56.9032
56.9213
56.921
56.9183
56.9182
56.9076
56.9056
56.9238
56.9309
56.9291
56.928
56.9253
56.9216
56.9218
56.9189
56.9169
56.9175
56.9138
56.9054
56.9012
56.9158
56.9248
56.9214
56.909
56.9092
56.9128
56.8948
55.0684
56.027
56.6093
56.8638
56.9194
56.9136
56.9227
56.9331
56.9246
56.9264
56.9233
56.9144
56.9124
56.9275
56.9336
56.9297
56.9188
56.9145
56.9233
56.9221
56.9332
56.9434
56.9427
56.9426
56.9286
56.9343
56.9459
56.9309
56.9267
56.9305
56.9267
56.9235
56.9325
56.9366
56.9328
56.9209
56.9237
56.9283
56.9263
56.9252
56.9146
56.911
56.9073
56.9048
56.9053
56.9061
56.904
56.8945
56.8913
56.8996
56.8931
56.9005
56.9132
56.9117
56.9059
56.9081
56.9248
56.9177
56.9259
56.9314
56.929
56.9218
56.9243
56.9277
56.9225
56.9235
56.9221
56.9237
56.9203
56.9182
56.9192
56.9206
56.9169
56.9044
56.9076
56.9175
56.9169
56.9167
56.9087
56.9067
56.8949
56.9008
56.9087
56.9072
56.9069
56.8934
56.8992
56.9088
56.906
56.8959
55.0683
56.0275
56.6082
56.8651
56.9215
56.9147
56.9229
56.9333
56.9225
56.9217
56.9214
56.9145
56.9111
56.9262
56.934
56.9314
56.9272
56.9166
56.9292
56.9424
56.9397
56.9321
56.9293
56.9342
56.9232
56.9234
56.9335
56.9233
56.9238
56.9328
56.9219
56.927
56.9358
56.9338
56.9331
56.9172
56.9144
56.9191
56.9244
56.9214
56.9164
56.9141
56.8936
56.8907
56.9034
56.9063
56.9034
56.8926
56.8889
56.9148
56.936
56.9247
56.9305
56.9393
56.9385
56.9383
56.9239
56.9286
56.9352
56.9354
56.9354
56.9311
56.9304
56.9189
56.9249
56.9294
56.9203
56.9252
56.9278
56.9239
56.9105
56.9122
56.918
56.9107
56.9145
56.9166
56.9131
56.906
56.898
56.8962
56.896
56.8978
56.8978
56.898
56.8885
56.8919
56.9103
56.9107
56.9093
56.893
55.0659
56.0315
56.6063
56.8612
56.9526
56.9782
56.9778
56.9761
56.9755
56.9735
56.9707
56.9691
56.9699
56.9673
56.9648
56.9649
56.9607
56.963
56.9641
56.9524
56.9576
56.9623
56.9543
56.9538
56.9526
56.9404
56.9382
56.9427
56.9289
56.9291
56.9378
56.937
56.93
56.9316
56.9337
56.9205
56.927
56.936
56.9191
56.9219
56.9318
56.9203
56.9261
56.9343
56.9258
56.9311
56.9331
56.9294
56.9322
56.9295
56.925
56.9055
56.9029
56.919
56.9154
56.9247
56.9329
56.9254
56.9256
56.9223
56.9217
56.9207
56.9224
56.9218
56.9117
56.916
56.9206
56.9058
56.9101
56.9252
56.925
56.9222
56.9192
56.9058
56.9075
56.9172
56.918
56.9179
56.9009
56.9051
56.9188
56.9094
56.915
56.9174
56.914
56.9039
56.9044
56.913
56.9118
56.9015
55.0671
56.031
56.6038
56.859
56.9513
56.9803
56.9821
56.9807
56.9816
56.9765
56.9738
56.9747
56.9764
56.9735
56.9711
56.9699
56.9676
56.9671
56.9638
56.9625
56.9624
56.9546
56.9553
56.9615
56.9583
56.9583
56.9581
56.9587
56.9564
56.9439
56.9346
56.9331
56.9327
56.9257
56.9303
56.9396
56.9392
56.9387
56.9213
56.9241
56.9324
56.9283
56.9271
56.9212
56.9226
56.9228
56.9146
56.9186
56.9259
56.9267
56.9236
56.9196
56.9102
56.9072
56.9208
56.9282
56.9268
56.9267
56.9165
56.923
56.9361
56.9253
56.9313
56.9398
56.938
56.9409
56.9376
56.9355
56.934
56.9331
56.9203
56.9236
56.9275
56.9272
56.927
56.9083
56.9072
56.9169
56.9189
56.9162
56.8999
56.9016
56.9119
56.898
56.9025
56.9137
56.8971
56.8985
56.9083
56.8942
55.0671
56.0315
56.6015
56.867
56.9403
56.9467
56.9428
56.928
56.9317
56.9401
56.925
56.9307
56.9362
56.9206
56.9265
56.9333
56.9294
56.9228
56.927
56.9403
56.9395
56.939
56.9331
56.9295
56.9181
56.9205
56.9322
56.921
56.9259
56.9368
56.9338
56.9332
56.923
56.9299
56.9346
56.9308
56.9241
56.916
56.9114
56.8969
56.8948
56.9025
56.8941
56.9008
56.9096
56.9063
56.9076
56.9023
56.9073
56.9142
56.9123
56.9112
56.9006
56.9083
56.929
56.9182
56.9247
56.9348
56.9336
56.9333
56.926
56.9248
56.918
56.9244
56.9353
56.9285
56.9295
56.9284
56.916
56.9166
56.9225
56.9175
56.9183
56.9189
56.9143
56.9177
56.9196
56.9037
56.9088
56.9183
56.9171
56.9177
56.9143
56.9106
56.8965
56.8988
56.9178
56.9186
56.9145
56.898
55.0658
56.0315
56.6063
56.8611
56.9524
56.978
56.9776
56.9759
56.9751
56.9729
56.9704
56.9686
56.9692
56.9667
56.9661
56.9684
56.9683
56.9708
56.9685
56.9601
56.9616
56.963
56.9589
56.9499
56.9432
56.9411
56.9301
56.936
56.9446
56.9438
56.9436
56.9387
56.9356
56.9181
56.9133
56.9177
56.9064
56.9088
56.919
56.9052
56.9079
56.919
56.9049
56.9093
56.9204
56.9063
56.9112
56.9217
56.9104
56.9171
56.9214
56.9199
56.9195
56.9061
56.9112
56.922
56.9193
56.9097
56.9095
56.9191
56.9192
56.9132
56.9156
56.9217
56.9071
56.9127
56.9207
56.9062
56.9122
56.925
56.9238
56.9243
56.9204
56.9072
56.9056
56.9133
56.9158
56.9157
56.9004
56.9062
56.9151
56.9138
56.913
56.9039
56.903
56.8973
56.9049
56.9127
56.9093
56.8974
55.0636
56.0336
56.6139
56.8561
56.9023
56.9024
56.8973
56.8966
56.9118
56.9175
56.9148
56.9108
56.9028
56.9152
56.9463
56.943
56.9429
56.9401
56.95
56.9561
56.9435
56.9499
56.959
56.9602
56.9572
56.9463
56.9459
56.9412
56.9251
56.9266
56.9378
56.937
56.9298
56.9291
56.9348
56.9419
56.9426
56.9247
56.9289
56.9365
56.9325
56.9315
56.9176
56.9229
56.9284
56.9258
56.922
56.9174
56.9124
56.896
56.8965
56.9063
56.8973
56.9046
56.9099
56.9071
56.9021
56.8985
56.9035
56.909
56.9064
56.8953
56.9019
56.9118
56.9085
56.9009
56.8935
56.8978
56.8988
56.905
56.9079
56.9031
56.9004
56.9042
56.9075
56.905
56.9025
56.9025
56.8979
56.9071
56.9185
56.9115
56.9123
56.9083
56.9091
56.9083
56.8976
56.899
56.908
56.8937
55.0659
56.0315
56.6063
56.861
56.9541
56.9707
56.9649
56.9707
56.9724
56.9664
56.966
56.9637
56.9627
56.961
56.9605
56.9608
56.9581
56.9573
56.9578
56.9576
56.9476
56.951
56.9538
56.9538
56.9538
56.9439
56.9355
56.9383
56.9417
56.9317
56.9391
56.9447
56.9404
56.9344
56.9295
56.9358
56.9409
56.937
56.9372
56.9336
56.9315
56.9329
56.9242
56.9311
56.936
56.9239
56.9296
56.9329
56.9325
56.9322
56.9146
56.9175
56.9205
56.9068
56.9027
56.9049
56.8975
56.9045
56.9164
56.9078
56.9026
56.9002
56.8965
56.9071
56.9209
56.9069
56.9123
56.9175
56.904
56.9109
56.9178
56.9171
56.9168
56.9018
56.9079
56.9183
56.918
56.9177
56.9024
56.9078
56.9154
56.9139
56.9131
56.904
56.9032
56.8975
56.9051
56.9128
56.9094
56.8975
55.0638
56.0335
56.61
56.8625
56.9194
56.9185
56.925
56.9268
56.9246
56.9189
56.9331
56.9572
56.9489
56.9571
56.9628
56.9588
56.9583
56.9484
56.954
56.9581
56.9437
56.9495
56.9546
56.9522
56.952
56.9463
56.9463
56.9471
56.9476
56.9424
56.9275
56.9239
56.9298
56.9241
56.9198
56.9204
56.9157
56.9243
56.9366
56.9222
56.9279
56.9329
56.917
56.9219
56.9276
56.9259
56.9255
56.919
56.9124
56.913
56.9185
56.9159
56.91
56.9067
56.9035
56.8946
56.902
56.9071
56.892
56.8959
56.9076
56.9058
56.9056
56.8992
56.9017
56.9021
56.8929
56.8959
56.9134
56.9158
56.9133
56.9005
56.898
56.9074
56.9096
56.9067
56.8966
56.8938
56.9135
56.9216
56.92
56.9193
56.9056
56.9099
56.916
56.9047
56.9125
56.9229
56.9199
56.9091
55.0631
56.0329
56.6163
56.8554
56.9009
56.9011
56.8991
56.9084
56.9436
56.9444
56.9395
56.9447
56.9476
56.9419
56.9415
56.9411
56.9424
56.9402
56.9399
56.9376
56.9386
56.94
56.938
56.9367
56.9336
56.9182
56.9211
56.9351
56.9318
56.9315
56.9277
56.9164
56.9176
56.9275
56.9121
56.9126
56.9207
56.9156
56.9169
56.9158
56.9042
56.9058
56.9126
56.8981
56.9036
56.9123
56.8962
56.9002
56.9128
56.9049
56.8998
56.9103
56.9184
56.9172
56.9166
56.9006
56.9045
56.9121
56.9106
56.9099
56.9012
56.8999
56.8926
56.9006
56.9085
56.8924
56.8953
56.9102
56.9113
56.9104
56.8994
56.8945
56.9001
56.8983
56.9086
56.9226
56.9115
56.9189
56.9241
56.9207
56.9096
56.9078
56.9153
56.903
56.9077
56.9181
56.909
56.9093
56.9082
56.8967
55.0656
56.0318
56.6089
56.8586
56.9157
56.9089
56.9161
56.9214
56.9088
56.9146
56.9259
56.9344
56.9381
56.9323
56.9315
56.9217
56.9288
56.9366
56.9367
56.9368
56.9217
56.9285
56.9398
56.9388
56.9383
56.9299
56.9269
56.9152
56.9202
56.9322
56.9312
56.9308
56.9176
56.9235
56.9272
56.9113
56.9163
56.9243
56.9106
56.9062
56.9078
56.8989
56.9026
56.9148
56.9018
56.9018
56.9201
56.9233
56.9191
56.904
56.9052
56.9125
56.899
56.8969
56.9044
56.9113
56.909
56.8965
56.8955
56.909
56.9147
56.9131
56.9127
56.9016
56.9066
56.9126
56.9203
56.9342
56.9332
56.9305
56.9298
56.9264
56.9129
56.9157
56.9201
56.9093
56.9158
56.9254
56.9224
56.9117
56.9118
56.9191
56.9192
56.9178
56.8989
56.8968
56.9092
56.9114
56.9083
56.8928
55.066
56.0303
56.6117
56.8565
56.9169
56.9221
56.9209
56.9176
56.9109
56.9077
56.9317
56.9573
56.9488
56.9567
56.9621
56.9529
56.9577
56.9595
56.9585
56.9609
56.9597
56.9558
56.9411
56.9435
56.9474