/*--------------------------------*- C++ -*----------------------------------*\
  =========                 |
  \\      /  F ield         | OpenFOAM: The Open Source CFD Toolbox
   \\    /   O peration     | Website:  https://openfoam.org
    \\  /    A nd           | Version:  11
     \\/     M anipulation  |
\*---------------------------------------------------------------------------*/
FoamFile
{
    format      ascii;
    class       volScalarField;
    location    "0.042";
    object      p;
}
// * * * * * * * * * * * * * * * * * * * * * * * * * * * * * * * * * * * * * //

dimensions      [0 2 -2 0 0 0 0];

internalField   nonuniform List<scalar> 
287084
(
1.74302
1.46397
1.39734
1.3299
1.26254
1.2111
1.16291
1.11778
1.07362
1.0311
0.99
0.948086
0.904814
0.860769
0.816278
0.771323
0.725938
0.680199
0.634282
0.588438
0.542863
0.497835
0.453585
0.410602
0.368652
0.32876
0.292493
0.25931
0.229498
0.20353
0.181412
0.158835
0.137448
0.120939
0.107849
0.0977491
0.0904151
0.0855532
0.0828795
0.0821338
0.0830343
0.0852789
0.0886277
0.0928678
0.0977157
0.102983
0.108495
0.114039
0.119371
0.124349
0.127837
0.131827
0.139014
0.14583
0.15087
0.154173
0.155494
0.156524
0.156942
0.157448
0.15804
0.157517
0.156471
0.154867
0.151591
0.148186
0.144266
0.140823
0.138745
0.135498
0.129791
0.126004
0.123508
0.118771
0.114543
0.108026
0.0978159
0.0886148
0.0794683
0.071402
0.0657225
0.0612627
0.056441
0.0498434
0.0441067
0.0382387
0.028658
0.0179719
0.00786003
0.00197523
1.60884
1.42021
1.36742
1.31177
1.25196
1.2043
1.15836
1.11467
1.07176
1.02969
0.987854
0.945443
0.902258
0.858435
0.814004
0.768946
0.723424
0.677472
0.631351
0.585273
0.539461
0.494223
0.449844
0.406508
0.364973
0.325917
0.289024
0.255914
0.226324
0.198516
0.173245
0.151055
0.131699
0.115841
0.103141
0.0933866
0.0863248
0.0817607
0.0793603
0.0788943
0.0800577
0.0825629
0.0861619
0.0906394
0.0957102
0.101189
0.106909
0.112665
0.1183
0.123664
0.128666
0.133623
0.139122
0.143988
0.148077
0.151914
0.154686
0.155994
0.156679
0.157344
0.157532
0.15716
0.155756
0.153812
0.151758
0.148595
0.145314
0.143145
0.139799
0.135516
0.131316
0.126574
0.122236
0.118292
0.112782
0.105209
0.0970393
0.0889839
0.081658
0.0757881
0.0697169
0.0621373
0.0562638
0.0504381
0.0422157
0.0346253
0.0270566
0.018444
0.00962408
0.00298738
1.58207
1.41251
1.36076
1.30502
1.2476
1.20022
1.15457
1.11101
1.06838
1.02629
0.984283
0.941717
0.898452
0.85443
0.809719
0.76435
0.718413
0.672059
0.625474
0.578906
0.532631
0.486924
0.442153
0.398655
0.356846
0.317323
0.280374
0.24633
0.215127
0.187117
0.162513
0.140728
0.121875
0.106366
0.094053
0.0847269
0.0781795
0.0741041
0.0722448
0.0723043
0.0739949
0.0770291
0.0811436
0.0860871
0.0916189
0.0975369
0.103658
0.109805
0.115839
0.121646
0.127147
0.132422
0.137582
0.142463
0.146735
0.150071
0.15258
0.15442
0.155511
0.156586
0.157103
0.156447
0.155342
0.153608
0.150579
0.148358
0.146885
0.143808
0.140321
0.136364
0.132117
0.127407
0.122384
0.117355
0.111636
0.105094
0.0977976
0.0903653
0.0835896
0.0767637
0.0699453
0.063304
0.056552
0.0494251
0.0418093
0.0341399
0.0260041
0.0173066
0.0083451
0.0022911
1.53594
1.37988
1.3339
1.28379
1.23231
1.18843
1.1454
1.10361
1.06212
1.02061
0.978661
0.936071
0.892664
0.848391
0.803338
0.757464
0.710988
0.663993
0.616722
0.569437
0.522391
0.47596
0.430492
0.386371
0.344029
0.303865
0.266343
0.231764
0.200382
0.171985
0.146934
0.125257
0.106963
0.0920509
0.0803786
0.0717913
0.06597
0.0627117
0.0616569
0.0625347
0.0650191
0.068835
0.0736943
0.0793484
0.0855526
0.0921027
0.0988117
0.105518
0.112091
0.11841
0.124425
0.130089
0.135412
0.140278
0.144512
0.148197
0.15123
0.153319
0.154682
0.155659
0.156059
0.155771
0.154869
0.153326
0.151326
0.149011
0.146359
0.143245
0.139811
0.135941
0.131782
0.12716
0.122147
0.116779
0.111011
0.104714
0.0980109
0.0912174
0.0842614
0.0773999
0.0706158
0.063552
0.0565173
0.0493435
0.0416855
0.033955
0.0259184
0.0173627
0.00858588
0.00253311
1.51282
1.36434
1.32107
1.27237
1.22296
1.18002
1.13772
1.09643
1.05529
1.01386
0.971878
0.929078
0.885344
0.840644
0.795
0.748465
0.701209
0.653325
0.60515
0.556844
0.508819
0.46138
0.41491
0.369876
0.326635
0.285721
0.247437
0.212244
0.180294
0.151724
0.126771
0.105399
0.0876113
0.0733525
0.062469
0.0547481
0.0499172
0.0476662
0.0476691
0.0496075
0.0531549
0.0580074
0.0638647
0.0704608
0.0775526
0.0849338
0.0924183
0.0998381
0.107064
0.113998
0.120548
0.126669
0.13232
0.137457
0.141969
0.145794
0.148907
0.151346
0.15318
0.154399
0.154937
0.154814
0.15411
0.152868
0.151042
0.148805
0.146271
0.143247
0.139744
0.135821
0.131569
0.12691
0.121868
0.116486
0.110751
0.104603
0.0981356
0.0914597
0.0846752
0.0778283
0.0708643
0.0637504
0.0565712
0.0491908
0.0415416
0.0337592
0.0256044
0.0170696
0.00835446
0.00243747
1.48954
1.34347
1.30224
1.25581
1.20909
1.16808
1.12731
1.08711
1.04663
1.00552
0.96353
0.920518
0.876409
0.831116
0.784799
0.737385
0.68916
0.640216
0.590836
0.541327
0.491994
0.443264
0.395557
0.349298
0.304992
0.263043
0.223952
0.188006
0.155598
0.126812
0.101892
0.0808337
0.0636327
0.050192
0.0402796
0.0336925
0.0300767
0.0291272
0.0304589
0.0337398
0.0386007
0.0447283
0.051811
0.0595676
0.067751
0.0761527
0.084572
0.0928553
0.100879
0.108526
0.115729
0.12242
0.12855
0.134069
0.138919
0.143081
0.146561
0.14931
0.151364
0.152772
0.153536
0.153648
0.153158
0.15208
0.150443
0.148353
0.145821
0.142815
0.139376
0.135521
0.131278
0.126633
0.121625
0.11626
0.110544
0.104496
0.0981628
0.0916141
0.0848787
0.0780196
0.071032
0.0638794
0.0566175
0.0491821
0.0415374
0.0337275
0.0255891
0.0170881
0.00834616
0.00244791
1.47173
1.32778
1.28812
1.2428
1.19745
1.15737
1.11732
1.07759
1.03738
0.996294
0.954154
0.910764
0.866086
0.820087
0.772843
0.724391
0.674983
0.624687
0.573938
0.522893
0.47205
0.421779
0.372519
0.324838
0.27914
0.236034
0.195894
0.159192
0.126263
0.0972766
0.0724852
0.0518445
0.0353659
0.0228698
0.0141319
0.00886962
0.00669789
0.00728383
0.0101851
0.0150427
0.0214679
0.0291117
0.0376503
0.0467826
0.0562519
0.0658456
0.0753692
0.0846664
0.0936057
0.102091
0.110034
0.117385
0.124082
0.1301
0.135407
0.139983
0.143812
0.146899
0.14927
0.150953
0.151949
0.152286
0.151999
0.151108
0.149657
0.147687
0.145239
0.142314
0.138935
0.135129
0.130915
0.126309
0.121338
0.116008
0.110345
0.104366
0.0981211
0.0916408
0.0849555
0.0781051
0.0711023
0.0639254
0.0566188
0.0491527
0.041492
0.0336589
0.0254883
0.0169633
0.00829067
0.00248059
1.45573
1.31244
1.27362
1.22938
1.18513
1.14594
1.10654
1.06728
1.02724
0.986142
0.943687
0.899815
0.854461
0.807561
0.75929
0.709592
0.658799
0.607007
0.554569
0.501827
0.449159
0.39707
0.346045
0.296647
0.249415
0.204893
0.163628
0.126039
0.0925356
0.0633624
0.0387054
0.0185768
0.00291818
-0.00844732
-0.0158144
-0.0195249
-0.0199869
-0.0176204
-0.0128865
-0.0061993
0.0020186
0.0114018
0.0215984
0.032296
0.043234
0.0541877
0.0649601
0.0754003
0.0853809
0.0947998
0.103587
0.11168
0.119043
0.125644
0.131468
0.136499
0.140745
0.144214
0.146923
0.1489
0.150166
0.150743
0.15067
0.149977
0.148694
0.146871
0.144535
0.141702
0.138402
0.134661
0.130505
0.125949
0.121021
0.115745
0.110133
0.104218
0.0980297
0.0915967
0.0849531
0.0781268
0.0711268
0.0639596
0.0566418
0.0491554
0.0414961
0.033655
0.0254313
0.0168986
0.00831055
0.0025517
1.4416
1.29884
1.26064
1.21704
1.17344
1.13478
1.09578
1.05667
1.01667
0.975317
0.932475
0.887957
0.841754
0.793844
0.744297
0.693204
0.640805
0.587246
0.532958
0.478205
0.423519
0.369387
0.31632
0.265012
0.215971
0.169913
0.127337
0.0887869
0.0547106
0.0253172
0.000904514
-0.0186386
-0.033304
-0.0433813
-0.0491955
-0.0511345
-0.0496845
-0.0453028
-0.0385129
-0.0297698
-0.0195288
-0.00820081
0.00384843
0.0162982
0.0288635
0.0413233
0.0534807
0.0651811
0.0763086
0.0867623
0.0964739
0.1054
0.113497
0.120749
0.127155
0.132704
0.137407
0.141285
0.144355
0.146656
0.148209
0.149045
0.149203
0.148709
0.147612
0.145939
0.143728
0.141002
0.137798
0.134136
0.130044
0.12555
0.120679
0.115454
0.109895
0.104034
0.0978952
0.0915088
0.0848967
0.0780831
0.0710976
0.0639257
0.056601
0.0491208
0.0414623
0.0336232
0.0254946
0.0170322
0.00826227
0.00240233
1.42876
1.28625
1.24843
1.20523
1.16206
1.12371
1.08484
1.04583
1.00571
0.964
0.920546
0.875257
0.828092
0.778975
0.728066
0.675373
0.621201
0.565718
0.509311
0.452395
0.395412
0.338982
0.283679
0.230201
0.17923
0.131414
0.0874438
0.0478591
0.0131191
-0.016423
-0.0406109
-0.0594238
-0.0729973
-0.0816154
-0.0856515
-0.0856089
-0.0820001
-0.075386
-0.0663115
-0.055308
-0.0428591
-0.0293965
-0.015324
-0.000977746
0.0133656
0.0274611
0.0411142
0.0541895
0.0665517
0.0781185
0.0888321
0.0986426
0.107535
0.115494
0.122526
0.128628
0.133825
0.138147
0.141613
0.144256
0.146112
0.147218
0.147617
0.14734
0.146423
0.144911
0.142838
0.140232
0.137125
0.133553
0.12954
0.125115
0.120307
0.115137
0.10963
0.103824
0.0977321
0.091385
0.0848082
0.0780225
0.0710511
0.0639036
0.056585
0.0490956
0.0414431
0.0336135
0.0253834
0.016866
0.00828513
0.00253983
1.41702
1.27465
1.23701
1.19409
1.15114
1.11291
1.07405
1.03488
0.994497
0.952284
0.908153
0.86199
0.813691
0.763275
0.710792
0.656361
0.600228
0.542593
0.483923
0.424564
0.365126
0.306204
0.248431
0.192653
0.139485
0.0898512
0.0443212
0.00363331
-0.0317397
-0.0614644
-0.0852753
-0.103294
-0.115594
-0.122582
-0.124694
-0.122472
-0.116532
-0.107482
-0.0959456
-0.0824846
-0.0676452
-0.0518988
-0.0356542
-0.0192701
-0.00304187
0.0127998
0.0280521
0.0425675
0.0562381
0.0689846
0.0807593
0.0915172
0.101249
0.109961
0.117654
0.124348
0.130066
0.134847
0.138722
0.141728
0.143905
0.145294
0.145945
0.145884
0.145165
0.143817
0.141888
0.139408
0.136415
0.132936
0.129005
0.124656
0.119912
0.114801
0.109348
0.103591
0.0975404
0.0912318
0.0846889
0.0779267
0.0709714
0.0638341
0.0565291
0.0490631
0.0414039
0.0335572
0.0253824
0.0168925
0.00825999
0.00250695
1.40618
1.26386
1.22636
1.18352
1.14065
1.10241
1.06348
1.02401
0.9831
0.940317
0.895429
0.84823
0.798733
0.74685
0.692712
0.636391
0.578158
0.518248
0.457097
0.395191
0.33305
0.271454
0.211055
0.152743
0.0973383
0.0456694
-0.0014306
-0.043286
-0.0793278
-0.109142
-0.132593
-0.149667
-0.160605
-0.165808
-0.165792
-0.161215
-0.152745
-0.141095
-0.12692
-0.110871
-0.0935142
-0.0753465
-0.0568251
-0.0383092
-0.0200972
-0.00243756
0.0144777
0.030514
0.0455544
0.059529
0.0724006
0.0841387
0.0947482
0.104231
0.112614
0.119917
0.126182
0.131439
0.135736
0.139119
0.141625
0.143304
0.144207
0.144373
0.143849
0.142674
0.140896
0.138552
0.135667
0.132288
0.128443
0.124167
0.119496
0.114446
0.109049
0.103336
0.0973308
0.0910665
0.0845527
0.0778184
0.0708766
0.0637601
0.056463
0.048982
0.04138
0.0335659
0.0253668
0.0168783
0.00824994
0.00250387
1.39616
1.25385
1.21635
1.17357
1.13067
1.09227
1.05316
1.01325
0.971811
0.928333
0.882533
0.834276
0.783425
0.730015
0.674078
0.615752
0.555275
0.492941
0.429202
0.364531
0.299629
0.235172
0.172016
0.111092
0.053254
-0.000449006
-0.0492454
-0.0922644
-0.128942
-0.15886
-0.181784
-0.19786
-0.207265
-0.210549
-0.208293
-0.201224
-0.190114
-0.175725
-0.158804
-0.14004
-0.120055
-0.0993902
-0.0785062
-0.0577833
-0.0375316
-0.0180003
0.000626741
0.0182066
0.0346439
0.0498755
0.0638742
0.0766178
0.0881204
0.0984033
0.107488
0.115416
0.122227
0.127974
0.132703
0.136462
0.139303
0.141275
0.142437
0.142834
0.142509
0.141506
0.139884
0.137667
0.1349
0.131623
0.127868
0.123674
0.119063
0.11408
0.108742
0.103076
0.097114
0.0908774
0.0843988
0.0776949
0.0707845
0.0636839
0.0564112
0.0489674
0.0413369
0.0335041
0.0253421
0.01687
0.00823145
0.00250334
1.38688
1.24455
1.20701
1.16418
1.12114
1.08256
1.04311
1.00279
0.9607
0.91644
0.869695
0.820219
0.768003
0.712946
0.655166
0.594741
0.531972
0.467101
0.400663
0.333185
0.265311
0.197968
0.131907
0.0682666
0.00798222
-0.0478657
-0.0983268
-0.142531
-0.179823
-0.209753
-0.232145
-0.247089
-0.254909
-0.256161
-0.251533
-0.241868
-0.227999
-0.210787
-0.191039
-0.169503
-0.146842
-0.123627
-0.100344
-0.0773845
-0.0550725
-0.0336452
-0.0132939
0.00585017
0.0236994
0.0401989
0.0553294
0.0690901
0.0814912
0.0925673
0.102356
0.110907
0.118274
0.124508
0.129661
0.133797
0.136972
0.139245
0.140665
0.141285
0.141158
0.140336
0.138864
0.136781
0.134131
0.130955
0.127289
0.123175
0.118637
0.113709
0.108424
0.102806
0.0968846
0.0906915
0.0842416
0.077559
0.0706715
0.0635833
0.0563192
0.0488746
0.0412642
0.0334767
0.025301
0.0168254
0.00822835
0.00251415
1.37831
1.23596
1.19835
1.15541
1.11221
1.07331
1.03351
0.992644
0.949925
0.904819
0.857047
0.806357
0.752682
0.695956
0.636251
0.573693
0.508517
0.4411
0.371892
0.301501
0.230706
0.160319
0.0913936
0.0249833
-0.0377964
-0.0957551
-0.147898
-0.193242
-0.231099
-0.260999
-0.282748
-0.29651
-0.302615
-0.301773
-0.29473
-0.282407
-0.265752
-0.245687
-0.223085
-0.198764
-0.173419
-0.147648
-0.121971
-0.0967869
-0.0724198
-0.0491137
-0.0270455
-0.00635046
0.0128908
0.030645
0.046895
0.0616513
0.0749419
0.0868089
0.0972952
0.106463
0.114373
0.121093
0.126672
0.131182
0.134688
0.137244
0.138915
0.139759
0.139828
0.139173
0.137853
0.1359
0.133365
0.130293
0.126716
0.122676
0.118203
0.11334
0.108109
0.102536
0.0966586
0.0904934
0.0840777
0.0774274
0.0705629
0.0635029
0.0562597
0.048843
0.0412397
0.0334456
0.0252947
0.0168388
0.00821617
0.00249389
1.37044
1.22805
1.19033
1.14727
1.1038
1.06464
1.02442
0.982996
0.939566
0.893602
0.844767
0.792828
0.737691
0.679281
0.617661
0.552947
0.485417
0.415394
0.343434
0.270162
0.196342
0.123026
0.0511464
-0.0179759
-0.0832206
-0.143265
-0.197028
-0.243465
-0.281816
-0.311617
-0.332675
-0.345187
-0.349583
-0.346607
-0.337124
-0.32215
-0.30271
-0.279812
-0.254396
-0.227325
-0.199333
-0.171062
-0.143037
-0.11567
-0.0892933
-0.0641486
-0.0404102
-0.0182056
0.00239844
0.0213723
0.0387151
0.0544428
0.068599
0.0812333
0.0923999
0.102162
0.110598
0.117778
0.123767
0.128638
0.132459
0.135297
0.13722
0.138279
0.138536
0.138053
0.136872
0.135047
0.132627
0.129649
0.126157
0.122196
0.117789
0.112977
0.107793
0.102266
0.09643
0.0903017
0.0839126
0.0772875
0.0704444
0.0633926
0.0561616
0.0487488
0.0411663
0.0333838
0.0252439
0.0168038
0.00820071
0.00250874
1.36326
1.22084
1.183
1.13978
1.09608
1.05654
1.01588
0.973927
0.929808
0.882947
0.833079
0.779883
0.723307
0.66321
0.599697
0.532859
0.462968
0.390428
0.315735
0.239617
0.162912
0.0866339
0.0119653
-0.0598416
-0.12745
-0.189495
-0.244797
-0.292224
-0.331013
-0.360634
-0.380961
-0.392194
-0.394843
-0.389755
-0.377873
-0.360308
-0.338164
-0.312521
-0.28438
-0.254655
-0.224125
-0.193441
-0.163162
-0.133706
-0.105406
-0.078504
-0.0531667
-0.0295137
-0.00761242
0.0125272
0.0309117
0.0475661
0.0625435
0.0759135
0.0877206
0.0980591
0.107001
0.114623
0.121004
0.126223
0.130347
0.133451
0.135605
0.136869
0.137306
0.136979
0.135937
0.134234
0.13192
0.129035
0.125623
0.12173
0.117386
0.11263
0.107494
0.102015
0.0962155
0.0901186
0.0837606
0.0771565
0.0703374
0.0633207
0.056113
0.0487221
0.0411298
0.0333585
0.0251774
0.0167421
0.00821962
0.00253637
1.35682
1.21432
1.17637
1.13299
1.08902
1.04916
1.00806
0.965522
0.920692
0.872995
0.822088
0.767715
0.709716
0.648044
0.582682
0.513826
0.441687
0.366688
0.289403
0.210543
0.131035
0.0519943
-0.0254235
-0.0997145
-0.169598
-0.23349
-0.290211
-0.338543
-0.377659
-0.407073
-0.426607
-0.436592
-0.43755
-0.430432
-0.416255
-0.396211
-0.371494
-0.343245
-0.312527
-0.280299
-0.247369
-0.21442
-0.18202
-0.150598
-0.120488
-0.0919355
-0.0651011
-0.0400969
-0.0169711
0.00426178
0.023621
0.041147
0.0568994
0.0709434
0.0833561
0.0942282
0.103639
0.111675
0.118421
0.12396
0.128367
0.13172
0.134095
0.13555
0.136156
0.13598
0.135064
0.133475
0.131261
0.128463
0.125126
0.121296
0.117008
0.112304
0.107216
0.10177
0.0960029
0.0899358
0.0836027
0.0770222
0.0702211
0.0632153
0.0560098
0.0486274
0.041052
0.0333046
0.0251561
0.0167801
0.00821401
0.00247852
1.35111
1.20855
1.17044
1.12692
1.08273
1.04249
1.00099
0.957934
0.912395
0.863911
0.81205
0.756531
0.697225
0.634007
0.566951
0.496154
0.421898
0.344636
0.264884
0.183488
0.10138
0.0197043
-0.0601766
-0.136848
-0.208742
-0.274363
-0.332333
-0.381426
-0.420824
-0.449938
-0.468736
-0.477474
-0.476831
-0.467787
-0.451467
-0.42913
-0.402036
-0.371389
-0.338305
-0.303777
-0.268647
-0.23362
-0.199274
-0.166053
-0.134284
-0.10422
-0.0760172
-0.0497654
-0.0255276
-0.00329704
0.0169524
0.0352707
0.0517252
0.0664046
0.0793678
0.0907274
0.100569
0.108984
0.116066
0.121896
0.126566
0.130145
0.132717
0.134348
0.135106
0.13506
0.134267
0.132779
0.130655
0.127935
0.124668
0.120897
0.116665
0.112006
0.106956
0.10155
0.0958171
0.0897807
0.083472
0.0769099
0.070131
0.0631501
0.0559678
0.0486076
0.0410283
0.0332865
0.0251422
0.0167043
0.00818415
0.00251678
1.34613
1.20353
1.16533
1.12163
1.07718
1.03665
0.994773
0.951193
0.905047
0.855808
0.803071
0.746516
0.686004
0.62143
0.5528
0.48027
0.404107
0.324721
0.242784
0.159036
0.0745767
-0.00943734
-0.0916155
-0.170327
-0.244108
-0.311175
-0.370257
-0.420003
-0.459559
-0.488401
-0.506436
-0.514044
-0.511939
-0.501165
-0.48291
-0.458508
-0.429282
-0.396481
-0.361278
-0.324692
-0.287594
-0.250713
-0.214637
-0.179806
-0.146564
-0.115153
-0.0857237
-0.0583763
-0.0331406
-0.0100119
0.0110378
0.0300608
0.0471387
0.0623599
0.0758194
0.08761
0.0978362
0.106589
0.113966
0.120061
0.124958
0.12874
0.131489
0.133275
0.134172
0.134247
0.133556
0.132162
0.130114
0.127465
0.124257
0.120541
0.116358
0.11174
0.106727
0.101345
0.0956405
0.0896266
0.083338
0.0767988
0.0700281
0.06305
0.055876
0.0485207
0.040968
0.0332387
0.0251154
0.0167075
0.00816572
0.00250972
1.34197
1.19929
1.16097
1.11714
1.07248
1.03168
0.989464
0.945436
0.898729
0.848865
0.795331
0.737876
0.676306
0.610491
0.540507
0.46643
0.388568
0.307396
0.223497
0.137748
0.0512242
-0.0348673
-0.118968
-0.199529
-0.274841
-0.343195
-0.403166
-0.453412
-0.493107
-0.521622
-0.539
-0.545595
-0.542178
-0.529886
-0.509951
-0.483761
-0.452695
-0.41805
-0.381025
-0.342671
-0.303882
-0.265413
-0.227841
-0.191634
-0.157124
-0.124551
-0.0940745
-0.065776
-0.03969
-0.0158003
0.00592595
0.025562
0.0431864
0.0588888
0.072767
0.0849345
0.0954869
0.104529
0.112165
0.118484
0.123582
0.127534
0.13044
0.132359
0.13337
0.133546
0.132947
0.13163
0.129657
0.127066
0.12391
0.120239
0.116094
0.111511
0.106526
0.101181
0.0954978
0.0895066
0.0832369
0.0767094
0.0699613
0.0630001
0.0558454
0.0485132
0.0409503
0.0332328
0.0251097
0.0166906
0.0081673
0.00251417
1.33858
1.19588
1.15745
1.11351
1.06867
1.02759
0.985099
0.94072
0.893592
0.843128
0.788971
0.730733
0.668286
0.601485
0.530344
0.455001
0.375756
0.293018
0.207523
0.120058
0.0318312
-0.0559542
-0.141686
-0.223697
-0.300356
-0.369643
-0.430316
-0.480992
-0.520734
-0.548994
-0.565771
-0.571503
-0.567028
-0.553472
-0.532155
-0.504496
-0.471916
-0.435745
-0.397222
-0.357418
-0.317247
-0.277466
-0.238676
-0.201333
-0.165781
-0.13226
-0.100916
-0.0718434
-0.0450544
-0.0205404
0.00175223
0.0218907
0.0399562
0.0560433
0.0702717
0.0827408
0.0935657
0.102846
0.110688
0.117192
0.122447
0.126546
0.129571
0.1316
0.132707
0.132968
0.132442
0.131191
0.129268
0.12673
0.12362
0.119986
0.115876
0.11132
0.106362
0.101032
0.0953694
0.0893948
0.0831368
0.0766306
0.0698858
0.0629299
0.0557844
0.0484436
0.0408992
0.0331809
0.0250657
0.0166598
0.00815066
0.00252415
1.33603
1.19329
1.15478
1.11077
1.06576
1.02455
0.981804
0.937102
0.889607
0.838772
0.784068
0.725271
0.662122
0.594515
0.522498
0.446164
0.365808
0.281944
0.195179
0.106435
0.0168931
-0.0722171
-0.159185
-0.242345
-0.320078
-0.390022
-0.45116
-0.502109
-0.541926
-0.569939
-0.586267
-0.591345
-0.586006
-0.571492
-0.549107
-0.520324
-0.486588
-0.449264
-0.409596
-0.368684
-0.327455
-0.286681
-0.246954
-0.20875
-0.172403
-0.138156
-0.106157
-0.0764848
-0.0491616
-0.0241659
-0.00144728
0.0190761
0.0374777
0.0538662
0.0683556
0.081061
0.0920879
0.101553
0.109557
0.1162
0.121583
0.125786
0.12891
0.13102
0.132203
0.132529
0.13206
0.130855
0.128979
0.126477
0.123398
0.119795
0.115705
0.111174
0.106234
0.100926
0.0952748
0.089316
0.0830742
0.0765736
0.0698461
0.0628972
0.0557643
0.0484407
0.0408977
0.0331959
0.0250794
0.0166566
0.0081436
0.00252028
1.33432
1.19154
1.15297
1.1089
1.06381
1.02243
0.97955
0.934686
0.88694
0.835779
0.780777
0.721547
0.657947
0.589831
0.517194
0.440191
0.359108
0.274409
0.186791
0.0971523
0.00669353
-0.0832796
-0.171146
-0.255007
-0.333588
-0.403903
-0.46513
-0.51637
-0.556263
-0.584124
-0.600121
-0.604728
-0.598845
-0.583666
-0.56056
-0.531013
-0.496499
-0.458388
-0.417949
-0.376292
-0.334351
-0.2929
-0.252545
-0.213755
-0.176871
-0.142136
-0.109692
-0.0796178
-0.0519346
-0.0266214
-0.00361464
0.0171612
0.0357926
0.0523853
0.0670638
0.0799292
0.0911002
0.100684
0.108797
0.115532
0.120997
0.125277
0.128463
0.13063
0.131859
0.132227
0.131795
0.130627
0.128778
0.126299
0.123245
0.119659
0.115591
0.111076
0.106149
0.10085
0.0952098
0.0892627
0.0830207
0.076531
0.0698051
0.0628604
0.0557244
0.0483978
0.0408698
0.0331648
0.0250987
0.016727
0.00812399
0.00244058
1.33346
1.19066
1.15208
1.10797
1.06284
1.02139
0.978451
0.933467
0.885561
0.834296
0.779088
0.719674
0.655825
0.587412
0.514486
0.437133
0.355671
0.270593
0.182544
0.0924701
0.00155681
-0.0888724
-0.177169
-0.261491
-0.340398
-0.411187
-0.472198
-0.523369
-0.563462
-0.591223
-0.607082
-0.611474
-0.605289
-0.589783
-0.566317
-0.536391
-0.501486
-0.462982
-0.422157
-0.380123
-0.337819
-0.296032
-0.255362
-0.216276
-0.179126
-0.144146
-0.111475
-0.0811978
-0.0533313
-0.0278471
-0.00469639
0.0162066
0.0349473
0.0516425
0.0664096
0.0793523
0.090592
0.100242
0.108409
0.115193
0.120698
0.125012
0.12823
0.130426
0.131684
0.132074
0.131663
0.130507
0.128677
0.126212
0.123166
0.119594
0.115528
0.11102
0.106101
0.100809
0.0951741
0.0892273
0.082998
0.0765135
0.069797
0.0628545
0.0557222
0.0484042
0.0408704
0.0331723
0.0250629
0.016648
0.00813971
0.00250937
1.33345
1.19065
1.15208
1.10796
1.06285
1.02138
0.978442
0.933452
0.885551
0.834272
0.77908
0.71967
0.655812
0.587431
0.514488
0.437142
0.355685
0.270586
0.182539
0.0924621
0.0015479
-0.0888786
-0.177175
-0.261479
-0.340384
-0.411154
-0.472186
-0.523361
-0.563445
-0.591215
-0.607062
-0.61145
-0.605269
-0.589763
-0.566298
-0.536367
-0.501465
-0.462965
-0.422144
-0.38011
-0.337809
-0.296023
-0.255352
-0.216274
-0.179118
-0.144137
-0.11147
-0.0811922
-0.0533302
-0.0278544
-0.00470528
0.0161975
0.0349421
0.0516358
0.0664059
0.0793489
0.0905913
0.100242
0.108406
0.115187
0.120699
0.125015
0.12823
0.130426
0.131679
0.132069
0.131653
0.130502
0.128669
0.126204
0.12316
0.119589
0.115528
0.111016
0.106097
0.100804
0.0951711
0.0892257
0.0829924
0.0765093
0.0697846
0.062843
0.0557133
0.0483848
0.0408547
0.033145
0.0250417
0.0166522
0.00814539
0.00251345
1.3343
1.19152
1.15296
1.10889
1.06381
1.02242
0.979549
0.934675
0.88691
0.835758
0.780753
0.721517
0.657931
0.589782
0.517168
0.440167
0.359071
0.274406
0.186784
0.0971714
0.00670891
-0.0832584
-0.17111
-0.254991
-0.333562
-0.403906
-0.46507
-0.516308
-0.556197
-0.584057
-0.600062
-0.604674
-0.598786
-0.583608
-0.560506
-0.530961
-0.496448
-0.458345
-0.417911
-0.376258
-0.33432
-0.29287
-0.252523
-0.213739
-0.17686
-0.142127
-0.109684
-0.0796132
-0.0519309
-0.0266135
-0.00360403
0.0171713
0.0357948
0.0523819
0.0670545
0.079915
0.0910851
0.100671
0.108783
0.115519
0.120982
0.125262
0.128445
0.130612
0.131846
0.132212
0.131781
0.130608
0.128761
0.126284
0.123228
0.119647
0.115573
0.111058
0.106131
0.100833
0.095197
0.0892457
0.0830115
0.07652
0.0698009
0.0628603
0.0557271
0.0484082
0.0408701
0.0331628
0.025044
0.0166184
0.00814143
0.00252903
1.33599
1.19325
1.15475
1.11073
1.06574
1.0245
0.981772
0.937082
0.889569
0.838717
0.784031
0.725236
0.662079
0.594504
0.522479
0.446144
0.36581
0.281919
0.19517
0.106429
0.0168848
-0.0721977
-0.159175
-0.242291
-0.32004
-0.389943
-0.451072
-0.502031
-0.541824
-0.569853
-0.586158
-0.591244
-0.585907
-0.571396
-0.549019
-0.520236
-0.48651
-0.449191
-0.409531
-0.368626
-0.327404
-0.286636
-0.246916
-0.208719
-0.172377
-0.138136
-0.106144
-0.0764761
-0.0491593
-0.02417
-0.00145428
0.0190632
0.0374602
0.0538439
0.0683386
0.0810434
0.0920733
0.101537
0.10954
0.116181
0.121563
0.125769
0.128889
0.131
0.132182
0.132505
0.132031
0.130827
0.128947
0.126446
0.123372
0.119768
0.11568
0.111145
0.10621
0.100899
0.0952514
0.0892962
0.0830523
0.0765559
0.0698264
0.0628774
0.0557426
0.0484078
0.0408832
0.0331662
0.025097
0.0167215
0.00812512
0.00246431
1.33853
1.19583
1.15739
1.11347
1.06862
1.02756
0.985071
0.940666
0.893524
0.843071
0.78892
0.73068
0.668246
0.601431
0.530295
0.454965
0.375695
0.293017
0.207502
0.120075
0.0318459
-0.0559249
-0.141633
-0.223656
-0.300269
-0.369586
-0.430213
-0.480886
-0.520611
-0.548868
-0.565646
-0.571377
-0.566904
-0.553346
-0.532033
-0.50438
-0.471802
-0.435647
-0.397131
-0.357333
-0.317176
-0.277404
-0.238626
-0.201292
-0.16575
-0.132237
-0.100899
-0.0718335
-0.0450495
-0.0205416
0.00174205
0.0218785
0.0399364
0.0560182
0.0702465
0.0827159
0.0935401
0.102821
0.110662
0.117162
0.122417
0.126516
0.12954
0.131568
0.132676
0.132933
0.13241
0.131152
0.12923
0.126693
0.123582
0.119951
0.115834
0.111282
0.106329
0.101003
0.0953391
0.0893652
0.083113
0.076604
0.0698682
0.0629154
0.0557757
0.0484436
0.0408979
0.033195
0.0250795
0.0166647
0.00813753
0.00250543
1.34189
1.19923
1.16089
1.11707
1.07242
1.03158
0.9894
0.945391
0.898676
0.848784
0.795266
0.737809
0.676238
0.610445
0.540459
0.466387
0.38855
0.307356
0.223486
0.137731
0.0512261
-0.0348306
-0.11894
-0.199448
-0.274771
-0.34309
-0.403037
-0.453294
-0.492939
-0.521483
-0.538825
-0.545435
-0.542014
-0.529728
-0.509807
-0.483624
-0.452566
-0.417931
-0.380915
-0.342573
-0.303797
-0.265341
-0.227779
-0.191582
-0.157084
-0.124522
-0.0940562
-0.0657667
-0.0396874
-0.0158081
0.00591441
0.0255427
0.0431566
0.0588537
0.0727361
0.0849014
0.0954528
0.104498
0.112134
0.118452
0.123543
0.127498
0.130399
0.132321
0.133333
0.133504
0.132901
0.131581
0.129603
0.127016
0.123866
0.120194
0.116046
0.111461
0.106481
0.10113
0.0954484
0.0894597
0.0831922
0.0766748
0.0699227
0.0629628
0.0558135
0.048471
0.0409264
0.0332019
0.0251042
0.0167147
0.00814718
0.00247438
1.34605
1.20345
1.16523
1.12155
1.07709
1.03658
0.994691
0.95111
0.904955
0.855719
0.802995
0.746439
0.685941
0.621361
0.552733
0.480211
0.404039
0.324699
0.242752
0.159039
0.0745882
-0.00942588
-0.0915436
-0.170294
-0.243983
-0.311095
-0.370114
-0.41986
-0.4594
-0.488226
-0.506269
-0.513858
-0.511766
-0.500982
-0.482738
-0.458343
-0.429118
-0.396337
-0.361145
-0.324573
-0.287495
-0.250629
-0.214565
-0.179746
-0.146519
-0.11512
-0.085705
-0.0583687
-0.0331411
-0.0100285
0.0110059
0.0300306
0.0471063
0.062323
0.0757811
0.0875744
0.0977964
0.106549
0.113926
0.120018
0.124912
0.128693
0.131443
0.133227
0.134123
0.134194
0.133505
0.132104
0.130056
0.127407
0.124201
0.120485
0.116295
0.111681
0.106671
0.101298
0.0955881
0.089578
0.0832918
0.0767558
0.0699938
0.0630232
0.0558571
0.0485061
0.0409426
0.0332172
0.0250733
0.0166442
0.00816989
0.00254446
1.351
1.20844
1.17033
1.12683
1.08261
1.04239
1.00092
0.957812
0.912301
0.863799
0.811949
0.756442
0.697135
0.633934
0.566887
0.496087
0.421866
0.344581
0.264875
0.183474
0.101376
0.0197452
-0.060151
-0.136755
-0.208666
-0.274239
-0.332188
-0.381287
-0.420631
-0.449761
-0.468525
-0.477268
-0.476627
-0.467592
-0.451287
-0.428961
-0.401873
-0.37124
-0.338168
-0.303654
-0.268536
-0.233534
-0.199198
-0.165986
-0.134234
-0.104183
-0.0759957
-0.0497619
-0.0255271
-0.00330197
0.0169359
0.0352444
0.0516922
0.0663546
0.0793159
0.0906725
0.10051
0.108929
0.116012
0.121844
0.126508
0.13009
0.13266
0.134292
0.135053
0.135003
0.134203
0.132716
0.130586
0.127864
0.124597
0.120829
0.116595
0.111935
0.106887
0.101478
0.0957455
0.0897085
0.083406
0.0768538
0.0700747
0.0630905
0.0559155
0.048553
0.0409869
0.0332514
0.0250905
0.0166512
0.00817336
0.00255034
1.35672
1.2142
1.17621
1.1329
1.08891
1.04904
1.00793
0.96542
0.920577
0.872878
0.822
0.767607
0.709638
0.647944
0.582604
0.513739
0.441613
0.366631
0.289364
0.21051
0.131046
0.0519856
-0.0253565
-0.0996818
-0.169479
-0.233397
-0.290055
-0.338378
-0.377488
-0.406872
-0.426423
-0.436376
-0.437354
-0.43022
-0.41605
-0.396019
-0.371304
-0.343073
-0.312375
-0.280158
-0.247248
-0.214319
-0.181936
-0.150526
-0.120437
-0.091896
-0.0650806
-0.0400902
-0.0169766
0.00424231
0.0235861
0.0411035
0.0568511
0.0708903
0.0832998
0.0941695
0.103577
0.111612
0.118358
0.123894
0.128304
0.131655
0.134029
0.135482
0.136091
0.135908
0.134994
0.133398
0.131183
0.128382
0.125043
0.121213
0.116922
0.112221
0.107134
0.101693
0.0959262
0.0898654
0.083536
0.0769662
0.0701671
0.0631649
0.0559711
0.0485992
0.0410255
0.033279
0.0251773
0.0167812
0.00817256
0.0024649
1.36313
1.22071
1.18286
1.13967
1.09594
1.05644
1.01579
0.973787
0.929659
0.882827
0.832936
0.779787
0.723177
0.663113
0.599606
0.532768
0.462916
0.390365
0.315697
0.239598
0.16289
0.0866588
0.011996
-0.0597847
-0.127358
-0.189396
-0.244651
-0.292076
-0.330829
-0.360446
-0.380751
-0.39197
-0.394633
-0.389543
-0.377672
-0.360116
-0.337983
-0.312356
-0.284232
-0.254521
-0.224003
-0.193349
-0.163079
-0.133638
-0.105352
-0.0784661
-0.0531506
-0.0295114
-0.00761986
0.0125099
0.0308802
0.0475244
0.0624924
0.0758493
0.0876542
0.0979892
0.106923
0.114544
0.120929
0.126148
0.13027
0.133376
0.135534
0.136795
0.137234
0.136903
0.135857
0.134151
0.131831
0.128942
0.12553
0.121634
0.117287
0.112532
0.107394
0.101916
0.0961201
0.0900295
0.0836758
0.0770785
0.0702629
0.0632462
0.0560401
0.0486534
0.0410685
0.0333118
0.025146
0.0166896
0.00819121
0.00254549
1.3703
1.2279
1.19019
1.14712
1.10368
1.06447
1.02425
0.982861
0.939431
0.893474
0.844647
0.792712
0.737578
0.679174
0.61755
0.552857
0.485312
0.415316
0.343381
0.270089
0.196352
0.122986
0.0511947
-0.017951
-0.0831258
-0.143178
-0.196882
-0.243308
-0.281646
-0.31142
-0.332487
-0.344978
-0.34938
-0.34639
-0.336917
-0.321955
-0.302525
-0.27964
-0.254241
-0.227183
-0.199209
-0.170957
-0.14295
-0.115595
-0.0892397
-0.0641121
-0.0403974
-0.0182075
0.00238599
0.0213453
0.0386745
0.0543887
0.0685373
0.0811622
0.0923196
0.102078
0.110514
0.117691
0.12368
0.12855
0.132374
0.135213
0.137136
0.138196
0.138453