/*--------------------------------*- C++ -*----------------------------------*\
  =========                 |
  \\      /  F ield         | OpenFOAM: The Open Source CFD Toolbox
   \\    /   O peration     | Website:  https://openfoam.org
    \\  /    A nd           | Version:  11
     \\/     M anipulation  |
\*---------------------------------------------------------------------------*/
FoamFile
{
    format      ascii;
    class       volScalarField;
    location    "0.008";
    object      p;
}
// * * * * * * * * * * * * * * * * * * * * * * * * * * * * * * * * * * * * * //

dimensions      [0 2 -2 0 0 0 0];

internalField   nonuniform List<scalar> 
287084
(
2.63111
2.36905
2.25175
2.17104
2.10263
2.04546
1.99291
1.94301
1.89486
1.84723
1.79977
1.75117
1.70148
1.64993
1.59599
1.54043
1.48261
1.42168
1.35851
1.29396
1.22749
1.16
1.09254
1.0251
0.958813
0.892163
0.825255
0.761832
0.700961
0.639257
0.578475
0.522285
0.470902
0.423044
0.379193
0.33952
0.304787
0.274465
0.248064
0.226242
0.208395
0.194217
0.183385
0.175493
0.170104
0.166798
0.165175
0.164809
0.165296
0.166308
0.167436
0.167917
0.167612
0.169307
0.175969
0.183137
0.182535
0.178181
0.176635
0.178666
0.182773
0.182105
0.177605
0.17636
0.175349
0.171994
0.168866
0.165347
0.161283
0.156242
0.151373
0.146219
0.139651
0.132415
0.12484
0.117338
0.109685
0.101683
0.0934108
0.0849897
0.0762689
0.0671957
0.0581263
0.0486086
0.0395417
0.0314204
0.023096
0.0138616
0.0043279
-0.00103901
2.4919
2.32024
2.22685
2.15638
2.09411
2.03882
1.98774
1.93902
1.89164
1.84475
1.79724
1.74884
1.69907
1.64789
1.59423
1.53828
1.48008
1.41911
1.35601
1.29134
1.22507
1.15752
1.08971
1.0224
0.955515
0.888021
0.821444
0.75679
0.693638
0.632046
0.572374
0.516443
0.464956
0.417224
0.373527
0.33387
0.29903
0.269007
0.242949
0.221257
0.20365
0.189756
0.179223
0.171672
0.166617
0.163655
0.16233
0.16226
0.163101
0.164499
0.166203
0.167959
0.16983
0.172371
0.175738
0.178684
0.179587
0.179233
0.179287
0.17971
0.180181
0.179818
0.178309
0.176573
0.17437
0.171481
0.168214
0.164436
0.160153
0.155371
0.150284
0.144721
0.138457
0.131711
0.124573
0.117236
0.109658
0.101799
0.0937478
0.085436
0.0768271
0.0679899
0.0589641
0.0497441
0.0404843
0.0318357
0.0235072
0.0146375
0.00616426
0.000827956
2.44386
2.29184
2.20692
2.14155
2.08284
2.02987
1.98019
1.93269
1.88623
1.83971
1.7927
1.74456
1.69488
1.64325
1.58969
1.53362
1.47487
1.41401
1.3513
1.28629
1.21939
1.15192
1.08343
1.01497
0.947513
0.880005
0.812793
0.746594
0.682546
0.62029
0.560786
0.505206
0.453392
0.405608
0.361998
0.322896
0.287941
0.257842
0.232625
0.211453
0.194364
0.181074
0.171149
0.164167
0.159708
0.157351
0.156671
0.157222
0.158638
0.160685
0.163084
0.16558
0.168127
0.170831
0.173702
0.176268
0.177818
0.178535
0.178959
0.17927
0.179422
0.178915
0.177617
0.175849
0.173609
0.170777
0.167492
0.163727
0.159445
0.154716
0.149539
0.143899
0.137756
0.131177
0.124266
0.11707
0.109587
0.101815
0.0938016
0.0855611
0.0770831
0.0683113
0.0593196
0.0501328
0.0409559
0.0321029
0.023674
0.0151258
0.006611
0.000687062
2.40356
2.26097
2.18458
2.12443
2.06914
2.01817
1.97035
1.92429
1.87852
1.83264
1.78567
1.73762
1.68825
1.63708
1.58327
1.52695
1.46794
1.40634
1.34353
1.2783
1.21097
1.14313
1.07383
1.0044
0.935666
0.866839
0.79856
0.731756
0.666766
0.603889
0.544453
0.488383
0.436283
0.388395
0.344896
0.305973
0.271722
0.242319
0.217629
0.19737
0.181198
0.168778
0.159635
0.15344
0.14978
0.148189
0.148319
0.149756
0.152024
0.154874
0.158065
0.161327
0.164578
0.167751
0.170778
0.173434
0.175422
0.176768
0.17762
0.178068
0.178154
0.177689
0.176535
0.174871
0.172696
0.169937
0.166699
0.162974
0.158727
0.154006
0.14886
0.143258
0.137204
0.130766
0.123963
0.116827
0.109407
0.10173
0.0937848
0.0856045
0.0771862
0.0684827
0.0595655
0.0504961
0.0412921
0.032339
0.0239984
0.0155916
0.00707506
0.000932179
2.37281
2.23474
2.16295
2.10619
2.05327
2.00479
1.95882
1.91388
1.86876
1.82329
1.7773
1.72959
1.67995
1.62827
1.57422
1.51811
1.45866
1.3966
1.33294
1.26723
1.19973
1.13049
1.06036
0.989957
0.919751
0.849845
0.780374
0.712497
0.646664
0.583124
0.522932
0.466198
0.41405
0.366235
0.322683
0.284195
0.250775
0.222261
0.198626
0.179615
0.164564
0.153206
0.145169
0.139979
0.137275
0.136651
0.137648
0.140027
0.143332
0.14718
0.151314
0.155473
0.15952
0.163371
0.166867
0.169912
0.17236
0.174186
0.175486
0.176241
0.176489
0.176166
0.175173
0.17366
0.171577
0.168943
0.165789
0.162114
0.157958
0.153303
0.148186
0.142653
0.136691
0.130318
0.123612
0.116587
0.109239
0.101589
0.0937366
0.0855963
0.0772015
0.0685778
0.0597248
0.0506015
0.0414434
0.0327058
0.0243271
0.0159227
0.00750846
0.00118533
2.34677
2.2107
2.14128
2.0873
2.03696
1.99015
1.94543
1.90144
1.85773
1.81281
1.76676
1.71929
1.66963
1.61782
1.56371
1.50675
1.4471
1.38491
1.3202
1.2532
1.18472
1.11503
1.04417
0.972238
0.900174
0.828695
0.757852
0.688642
0.621715
0.557265
0.49656
0.4394
0.386745
0.338767
0.295997
0.258675
0.22606
0.198778
0.176516
0.158724
0.144989
0.134929
0.128105
0.124119
0.122564
0.123057
0.125114
0.128489
0.132832
0.137763
0.14297
0.148162
0.153153
0.157782
0.161978
0.165628
0.168641
0.170998
0.17275
0.173892
0.174384
0.174287
0.173552
0.172208
0.170266
0.167795
0.164769
0.161189
0.157102
0.152524
0.147506
0.142061
0.136171
0.129878
0.123261
0.116277
0.109001
0.101452
0.0936186
0.0855349
0.0772137
0.0686213
0.0598333
0.0507457
0.0412291
0.0324135
0.0244718
0.0162344
0.00820006
0.00171778
2.32216
2.18731
2.12031
2.06815
2.02005
1.97497
1.93126
1.88874
1.84515
1.80082
1.75519
1.70736
1.65778
1.60586
1.5512
1.49359
1.43297
1.37002
1.30484
1.23711
1.1678
1.09639
1.02394
0.950704
0.877104
0.803943
0.731679
0.661128
0.592547
0.527211
0.465605
0.407944
0.354964
0.307358
0.265644
0.229144
0.197888
0.17218
0.151396
0.135119
0.122921
0.114359
0.108948
0.10629
0.10602
0.107739
0.111009
0.115511
0.120928
0.12693
0.133256
0.139579
0.1456
0.151189
0.156227
0.160593
0.16425
0.167204
0.169475
0.171059
0.171905
0.172101
0.171663
0.170551
0.168785
0.166474
0.163618
0.160147
0.156192
0.15172
0.146769
0.141431
0.135628
0.129415
0.122871
0.115967
0.108741
0.101229
0.0934909
0.0854592
0.0771697
0.0686231
0.0598719
0.0508703
0.0418146
0.0332445
0.0249571
0.0164501
0.00795452
0.00141238
2.30042
2.16609
2.10031
2.04962
2.00269
1.95884
1.91634
1.87421
1.83166
1.78794
1.74233
1.69439
1.64435
1.59184
1.5369
1.47863
1.41723
1.3535
1.28739
1.21829
1.14752
1.07526
1.00137
0.926318
0.850935
0.776125
0.702079
0.629447
0.559514
0.49297
0.430181
0.372147
0.319513
0.272524
0.231398
0.196083
0.16643
0.142396
0.123318
0.108851
0.0984847
0.0916986
0.0879887
0.0869432
0.088103
0.0911093
0.0956383
0.101338
0.107927
0.11506
0.122457
0.129901
0.137065
0.143699
0.149648
0.154877
0.159324
0.162925
0.165732
0.167797
0.16908
0.169652
0.169516
0.168641
0.167147
0.165053
0.162331
0.159039
0.155195
0.150843
0.146032
0.140758
0.135035
0.128892
0.122422
0.115618
0.10849
0.101056
0.0933117
0.0853398
0.0771439
0.0686593
0.0600209
0.0511845
0.0421895
0.0335301
0.0249082
0.0162863
0.00798001
0.00143722
2.28056
2.14624
2.08138
2.03204
1.98631
1.94292
1.90147
1.86011
1.81738
1.77414
1.72853
1.68017
1.62998
1.577
1.52094
1.46214
1.39978
1.33513
1.26786
1.19766
1.12548
1.05137
0.975609
0.899169
0.822031
0.744959
0.66881
0.594367
0.522872
0.454719
0.391201
0.332864
0.280337
0.233924
0.193557
0.159655
0.131746
0.109505
0.0924328
0.0800052
0.0717503
0.0670314
0.0653071
0.0660963
0.0689591
0.0735319
0.0793976
0.0862942
0.0941056
0.102415
0.110915
0.119418
0.127693
0.135438
0.142437
0.148569
0.153829
0.158157
0.161609
0.164208
0.165976
0.166955
0.167144
0.166599
0.165356
0.16345
0.160936
0.157843
0.154156
0.149905
0.1452
0.140052
0.134435
0.128385
0.121992
0.115257
0.108189
0.100793
0.0931017
0.0851893
0.0769198
0.0682548
0.0597328
0.0509708
0.0414625
0.0333834
0.0259691
0.017073
0.00869701
0.00203036
2.26245
2.12852
2.06408
2.01519
1.9709
1.92872
1.8869
1.84543
1.80365
1.76004
1.71379
1.66539
1.61432
1.56101
1.50437
1.44399
1.38097
1.31501
1.24639
1.17514
1.10146
1.02562
0.948051
0.869574
0.790423
0.711215
0.632662
0.55607
0.482818
0.413388
0.348445
0.289622
0.237451
0.191764
0.152686
0.120182
0.0940674
0.0738188
0.0589556
0.0488321
0.0429092
0.0404895
0.0409902
0.0438967
0.0487272
0.0550277
0.0624606
0.0707736
0.0797591
0.0892249
0.0988254
0.108414
0.117748
0.126591
0.13465
0.141767
0.14791
0.153041
0.157178
0.160356
0.162621
0.164029
0.164583
0.164381
0.16345
0.161787
0.159472
0.156554
0.153041
0.148953
0.144343
0.139291
0.133812
0.127849
0.121538
0.114888
0.107847
0.100523
0.0929224
0.0850504
0.0769516
0.0685704
0.0599862
0.051236
0.042464
0.0341135
0.0257467
0.0167901
0.00801311
0.00136981
2.2459
2.11224
2.0483
2.00017
1.95575
1.91387
1.87269
1.83149
1.78954
1.74556
1.699
1.65013
1.59854
1.54406
1.48609
1.42502
1.36093
1.294
1.22413
1.15105
1.07596
0.998233
0.91886
0.838028
0.756115
0.674754
0.594047
0.515418
0.439785
0.368536
0.302676
0.243779
0.191706
0.146277
0.108549
0.0778711
0.0537001
0.0357193
0.023263
0.0156826
0.0122942
0.0123897
0.0153368
0.0205307
0.027494
0.0357725
0.044963
0.0548239
0.0651408
0.0757002
0.0864435
0.0971616
0.107519
0.117323
0.126445
0.134595
0.141657
0.147601
0.152454
0.156279
0.159084
0.160954
0.161919
0.162059
0.161429
0.160024
0.157951
0.155215
0.15187
0.147946
0.143476
0.13852
0.133135
0.127301
0.121072
0.114499
0.107525
0.100248
0.0927114
0.0849098
0.0768519
0.0684854
0.0599086
0.0512125
0.0425315
0.0341664
0.0257827
0.0168367
0.00801716
0.00136662
2.23115
2.09769
2.03367
1.98549
1.94195
1.90051
1.85907
1.81755
1.77451
1.72997
1.68351
1.63428
1.58223
1.52686
1.46798
1.40557
1.34034
1.27214
1.20072
1.1263
1.04928
0.969521
0.887785
0.804674
0.720669
0.636777
0.553436
0.471685
0.393935
0.321156
0.254288
0.194977
0.143052
0.0988815
0.0623371
0.0331673
0.0112914
-0.00421138
-0.0140736
-0.0189564
-0.0196349
-0.0169057
-0.0113877
-0.00372637
0.00548057
0.0158817
0.0270245
0.0386019
0.0503928
0.0621974
0.073976
0.0857382
0.0971289
0.107926
0.118052
0.127192
0.135181
0.141959
0.147549
0.151992
0.15538
0.157758
0.159171
0.159665
0.15931
0.158226
0.156379
0.15382
0.150682
0.146909
0.142567
0.137782
0.132482
0.126717
0.120595
0.114088
0.107191
0.0999755
0.0924915
0.0847136
0.0766828
0.068391
0.0597022
0.0505761
0.0421498
0.0342025
0.0258161
0.0171558
0.00819973
0.00134455
2.21767
2.08437
2.02051
1.97222
1.92823
1.88668
1.84556
1.80402
1.76055
1.71548
1.66875
1.61831
1.56504
1.50921
1.44908
1.38579
1.31953
1.24965
1.17678
1.10082
1.02172
0.939978
0.856196
0.770429
0.683788
0.596982
0.510698
0.425936
0.345748
0.271756
0.204134
0.144285
0.0926825
0.0492097
0.0142685
-0.0127852
-0.0324244
-0.0453714
-0.0524737
-0.0545375
-0.052428
-0.0468964
-0.0387061
-0.0285576
-0.0169636
-0.00434372
0.00879356
0.0221615
0.0355733
0.0487701
0.0616952
0.0743837
0.0867643
0.0985199
0.109541
0.119657
0.128578
0.136205
0.142562
0.147708
0.151662
0.154499
0.156324
0.157209
0.157207
0.156387
0.15477
0.152442
0.149465
0.145851
0.141681
0.136999
0.131804
0.126166
0.1201
0.113644
0.106836
0.0996795
0.0922678
0.0845651
0.0765836
0.0683839
0.0599156
0.051239
0.0425745
0.033953
0.0254955
0.0169368
0.00814598
0.00140586
2.20526
2.0721
2.00828
1.95992
1.91586
1.87373
1.83207
1.79067
1.74692
1.7013
1.65344
1.60264
1.54871
1.49109
1.43037
1.36617
1.29836
1.22726
1.153
1.07482
0.993852
0.909967
0.823808
0.735823
0.646074
0.556225
0.46645
0.378861
0.29635
0.220411
0.15218
0.0921971
0.041058
-0.00100968
-0.0344451
-0.0595142
-0.0767387
-0.0870215
-0.0913289
-0.0905057
-0.0854944
-0.0771535
-0.0662615
-0.0535335
-0.0394939
-0.0246596
-0.00947307
0.00578579
0.0208175
0.0354562
0.0496447
0.0633667
0.0766381
0.0892734
0.101157
0.112155
0.121987
0.130438
0.137538
0.143342
0.147869
0.151233
0.15349
0.154756
0.155091
0.154539
0.153179
0.15105
0.148256
0.144824
0.140798
0.136233
0.13113
0.125572
0.119607
0.113232
0.106493
0.0994035
0.0920137
0.0843802
0.0764434
0.0682217
0.0599114
0.0514136
0.0427659
0.0342265
0.0256776
0.0168496
0.00801621
0.00134666
2.19343
2.06023
1.99661
1.94836
1.90409
1.86228
1.82015
1.77764
1.7338
1.68782
1.63907
1.58704
1.53212
1.47381
1.41212
1.34635
1.27721
1.2049
1.12891
1.04943
0.966279
0.880095
0.791473
0.700385
0.60796
0.514868
0.421124
0.33095
0.246544
0.168975
0.100003
0.0401577
-0.0105948
-0.0517142
-0.0832631
-0.106147
-0.120927
-0.128488
-0.129943
-0.126228
-0.118321
-0.107158
-0.0935347
-0.0782356
-0.0617919
-0.044725
-0.0274838
-0.0103722
0.00633184
0.0224746
0.0379229
0.0526858
0.0668239
0.0803354
0.0930615
0.104821
0.115459
0.124766
0.13263
0.139056
0.144148
0.147996
0.150705
0.152343
0.152964
0.152714
0.151594
0.14967
0.147089
0.143818
0.139902
0.135447
0.13048
0.125028
0.119141
0.112804
0.106121
0.0991373
0.091826
0.0841982
0.0763363
0.0681503
0.0598
0.051313
0.0425485
0.0338628
0.0254942
0.0169556
0.00837127
0.00164275
2.18211
2.04993
1.98631
1.93789
1.89346
1.85078
1.80846
1.76566
1.72087
1.67412
1.62467
1.57217
1.51659
1.45726
1.39417
1.32754
1.2573
1.18316
1.10569
1.02411
0.93903
0.850771
0.759306
0.665725
0.570145
0.472787
0.375953
0.283295
0.196882
0.118197
0.0483436
-0.011741
-0.0616087
-0.101349
-0.131177
-0.151891
-0.164122
-0.169
-0.167619
-0.161027
-0.150306
-0.136351
-0.120086
-0.102288
-0.0834598
-0.0642048
-0.044992
-0.0260491
-0.00768018
0.00990856
0.0266571
0.0425589
0.0575658
0.0718122
0.0853053
0.0978206
0.109214
0.119242
0.127786
0.134885
0.140544
0.144873
0.148003
0.149966
0.150942
0.150984
0.150071
0.148372
0.145946
0.142813
0.139054
0.134705
0.129824
0.124483
0.11868
0.112417
0.105799
0.0988751
0.0916203
0.0840474
0.076222
0.068138
0.0598105
0.0513717
0.0427765
0.0338714
0.0252933
0.0168906
0.00826101
0.00151164
2.17252
2.04037
1.97662
1.92759
1.88303
1.84075
1.79797
1.75429
1.70918
1.6618
1.6116
1.55836
1.50153
1.44107
1.37724
1.30955
1.23797
1.16244
1.08341
1.00019
0.912703
0.821865
0.728281
0.632021
0.532788
0.431167
0.331615
0.236727
0.148218
0.0685041
-0.00169752
-0.0615201
-0.110689
-0.149268
-0.177222
-0.195759
-0.205575
-0.207811
-0.203672
-0.194302
-0.180829
-0.164274
-0.145475
-0.125197
-0.104138
-0.0828128
-0.0616696
-0.0410048
-0.0210538
-0.00201805
0.0159935
0.0329327
0.0488584
0.063849
0.0780406
0.0912484
0.103279
0.114028
0.123239
0.130907
0.137079
0.141866
0.145407
0.14775
0.149013
0.149269
0.148599
0.147124
0.144873
0.141874
0.138234
0.134037
0.129277
0.123971
0.118219
0.112042
0.105494
0.0986019
0.0913797
0.0838825
0.0760891
0.0680249
0.0597264
0.051357
0.042916
0.0342182
0.025403
0.0168177
0.00842922
0.00162514
2.16395
2.03185
1.968
1.91844
1.87378
1.83107
1.78772
1.74396
1.6984
1.65025
1.59946
1.5452
1.48771
1.42654
1.36145
1.29272
1.22013
1.14327
1.06194
0.97721
0.888185
0.79496
0.698731
0.599273
0.496427
0.391428
0.289205
0.192216
0.102137
0.0213819
-0.0491664
-0.108908
-0.157024
-0.194424
-0.220784
-0.23705
-0.244495
-0.244166
-0.237422
-0.225488
-0.209435
-0.190357
-0.169196
-0.146673
-0.123503
-0.100225
-0.0772664
-0.0549466
-0.0335112
-0.0131417
0.00608342
0.0240375
0.0408402
0.0565661
0.071348
0.085135
0.0977835
0.109136
0.118955
0.127194
0.133855
0.13908
0.142971
0.145653
0.14722
0.147717
0.147264
0.145953
0.143851
0.141015
0.137499
0.133379
0.128703
0.1235
0.117815
0.111707
0.105229
0.0983706
0.0911787
0.0836848
0.0758492
0.0676452
0.0590017
0.0509107
0.0429396
0.0342061
0.0258302
0.0174008
0.00883174
0.0019609
2.15646
2.02439
1.96027
1.91073
1.86558
1.82226
1.77905
1.73475
1.68865
1.63998
1.58807
1.53344
1.47544
1.41314
1.34694
1.2774
1.20382
1.12545
1.04275
0.955973
0.864832
0.770065
0.671249
0.568628
0.462212
0.353993
0.249535
0.15072
0.0593719
-0.0222409
-0.0931113
-0.152477
-0.199827
-0.235733
-0.260465
-0.274762
-0.280023
-0.277416
-0.268295
-0.253942
-0.235546
-0.214229
-0.190855
-0.166255
-0.141158
-0.116111
-0.0915021
-0.0677149
-0.0449135
-0.023277
-0.00300094
0.0159251
0.0335787
0.0499622
0.065294
0.0796582
0.0928095
0.104693
0.115043
0.123779
0.130913
0.136519
0.140783
0.14375
0.145527
0.14626
0.146039
0.144907
0.142925
0.140195
0.136817
0.132804
0.128213
0.123086
0.117464
0.111411
0.104977
0.0981645
0.0910218
0.0835948
0.0758865
0.067954
0.0598264
0.0515206
0.0431457
0.0346951
0.0260571
0.0170646
0.00814481
0.00146701
2.15013
2.01802
1.95375
1.90386
1.85871
1.81526
1.77146
1.7268
1.67982
1.63048
1.57835
1.52279
1.46407
1.40134
1.33494
1.26428
1.18914
1.10976
1.02561
0.9371
0.844189
0.747005
0.646001
0.540489
0.430423
0.320136
0.213407
0.113252
0.0208547
-0.0615361
-0.132584
-0.191482
-0.238007
-0.272811
-0.295808
-0.30831
-0.311599
-0.306941
-0.295712
-0.279227
-0.258755
-0.23539
-0.210106
-0.18371
-0.156907
-0.130257
-0.104158
-0.0790116
-0.0550154
-0.0323061
-0.0110413
0.00875857
0.0271578
0.04417
0.0599582
0.0747815
0.0884383
0.100738
0.111573
0.120757
0.128294
0.134274
0.138824
0.142036
0.144065
0.144982
0.14493
0.143951
0.142107
0.13953
0.136212
0.132261
0.127758
0.122708
0.117129
0.111149
0.10476
0.097959
0.0908871
0.0835043
0.0758364
0.0679424
0.0598005
0.0514726
0.0432309
0.0348458
0.026121
0.0170468
0.00805423
0.00139755
2.14479
2.01252
1.94832
1.89836
1.85256
1.80908
1.76511
1.71975
1.67292
1.62305
1.56991
1.51401
1.45467
1.39139
1.32408
1.25246
1.17666
1.09626
1.01043
0.920358
0.82615
0.726964
0.623758
0.515669
0.402537
0.290471
0.182482
0.0807628
-0.0123742
-0.0954062
-0.166896
-0.225113
-0.270757
-0.304401
-0.326138
-0.337103
-0.33869
-0.332246
-0.319191
-0.30092
-0.278674
-0.253541
-0.226576
-0.198658
-0.170394
-0.142369
-0.115047
-0.0887361
-0.0636876
-0.0400586
-0.0179414
0.00262913
0.0216378
0.0392079
0.0554735
0.0706525
0.0846799
0.0973695
0.108589
0.118158
0.126036
0.13232
0.137155
0.140561
0.142785
0.143906
0.143974
0.143142
0.141421
0.138919
0.135697
0.13182
0.127382
0.12239
0.116871
0.110911
0.104575
0.0978516
0.0907913
0.083437
0.0758091
0.067935
0.0598156
0.0514802
0.043207
0.0348813
0.0262224
0.0171113
0.00803297
0.00136312
2.14066
2.00835
1.94406
1.89374
1.84785
1.80402
1.75988
1.71472
1.66703
1.61626
1.56323
1.50705
1.4472
1.38345
1.31543
1.24323
1.16636
1.08478
0.998117
0.906798
0.81101
0.710195
0.605039
0.494748
0.379844
0.265673
0.156419
0.0542958
-0.0398052
-0.123276
-0.194772
-0.252915
-0.297736
-0.330265
-0.350892
-0.360611
-0.360824
-0.352908
-0.33839
-0.318635
-0.294892
-0.268411
-0.240117
-0.21088
-0.181445
-0.152285
-0.123946
-0.0967373
-0.0708147
-0.0463818
-0.0235761
-0.00242994
0.0171443
0.0351857
0.0518344
0.0673157
0.0816499
0.094633
0.10614
0.116017
0.124173
0.130714
0.135751
0.139366
0.141759
0.143014
0.143213
0.142463
0.140825
0.138426
0.13528
0.131469
0.127054
0.122097
0.116671
0.11077
0.104429
0.0977146
0.0907072
0.0833878
0.0757895
0.0679387
0.0598624
0.0516302
0.0432618
0.0347421
0.026134
0.0171252
0.00801407
0.00133383
2.1377
2.00525
1.94088
1.89038
1.84432
1.80041
1.75623
1.71043
1.66269
1.61226
1.55864
1.50151
1.441
1.37716
1.30864
1.23574
1.15892
1.07657
0.989006
0.896875
0.799173
0.697209
0.590781
0.478551
0.361573
0.246242
0.137296
0.0341988
-0.061076
-0.14481
-0.216011
-0.273811
-0.318224
-0.350206
-0.369857
-0.378546
-0.377668
-0.36862
-0.352976
-0.332114
-0.307267
-0.279712
-0.25041
-0.220214
-0.189846
-0.159862
-0.13073
-0.102793
-0.0762479
-0.0512436
-0.027884
-0.00625295
0.0137004
0.0321116
0.0490475
0.0647622
0.0793278
0.0925417
0.104293
0.114395
0.122746
0.129475
0.134668
0.138449
0.140981
0.14232
0.142624
0.141957
0.140398
0.138047
0.134959
0.131206
0.126834
0.121917
0.1165
0.110615
0.104335
0.097678
0.0906436
0.0833502
0.0757727
0.067934
0.0599163
0.0516415
0.0431458
0.0346684
0.0261221
0.0170306
0.00797914
0.00135242
2.13591
2.00319
1.93862
1.8883
1.84214
1.7979
1.75343
1.70784
1.65991
1.60897
1.55543
1.4986
1.43804
1.37311
1.3044
1.23145
1.15366
1.07063
0.982678
0.889639
0.791427
0.688646
0.580721
0.467395
0.349384
0.233306
0.123906
0.0207916
-0.0748926
-0.158889
-0.23015
-0.288012
-0.332208
-0.363499
-0.38247
-0.390517
-0.388957
-0.379201
-0.362786
-0.341138
-0.315571
-0.287297
-0.257339
-0.226502
-0.195487
-0.164944
-0.135322
-0.106886
-0.0799051
-0.0545031
-0.0307922
-0.00884597
0.0114192
0.0300464
0.0471536
0.0630583
0.0777687
0.091118
0.10305
0.113264
0.121782
0.12865
0.133956
0.137845
0.140435
0.141864
0.142208
0.141606
0.14013
0.137783
0.134721
0.131031
0.126695
0.12179
0.116428
0.110556
0.10426
0.0976299
0.0906371
0.0833356
0.0756945
0.0677968
0.0595881
0.0512313
0.0426312
0.0343087
0.0261654
0.0171672
0.0085628
0.001939
2.13512
2.00226
1.93758
1.88732
1.84105
1.79669
1.75223
1.70658
1.6588
1.60781
1.55424
1.49733
1.43614
1.3713
1.30239
1.22889
1.15105
1.06823
0.979942
0.8865
0.788347
0.684875
0.576074
0.461913
0.343342
0.226418
0.116639
0.0142245
-0.0815262
-0.166239
-0.237383
-0.294823
-0.339055
-0.37003
-0.388691
-0.39645
-0.394528
-0.38439
-0.367614
-0.345607
-0.31972
-0.291103
-0.26078
-0.229641
-0.198335
-0.167489
-0.137573
-0.108904
-0.0817195
-0.0561365
-0.0322678
-0.0101461
0.010259
0.0290061
0.0461939
0.0621675
0.076968
0.0904031
0.102379
0.112688
0.121287
0.128231
0.133601
0.137505
0.140152
0.14164
0.142051
0.141455
0.139963
0.137645
0.134643
0.130959
0.126638
0.121746
0.116349
0.110543
0.104259
0.0976113
0.0906672
0.0834091
0.0758697
0.0681156
0.0600873
0.0518228
0.0433196
0.0347892
0.0262049
0.0170985
0.00801299
0.00135205
2.1358
2.00295
1.93822
1.88794
1.84162
1.79724
1.75273
1.70698
1.65916
1.6082
1.55472
1.49791
1.43672
1.37179
1.30273
1.22933
1.15163
1.06889
0.980691
0.887278
0.789151
0.685603
0.576792
0.462629
0.344044
0.227063
0.117182
0.014637
-0.081058
-0.165658
-0.23691
-0.294426
-0.338677
-0.369689
-0.38837
-0.396156
-0.394258
-0.384186
-0.367464
-0.34543
-0.319548
-0.29097
-0.260684
-0.229542
-0.198264
-0.167478
-0.137604
-0.108954
-0.081769
-0.0561954
-0.0323359
-0.0102286
0.0101653
0.0289024
0.0460831
0.0620537
0.0768573
0.090278
0.102274
0.112589
0.121185
0.128127
0.133483
0.137416
0.140097
0.141575
0.141955
0.141384
0.139899
0.137634
0.134634
0.130921
0.126617
0.121775
0.11638
0.110548
0.104297
0.0976688
0.0907562
0.0835085
0.0759639
0.0681685
0.0601054
0.0518328
0.0433595
0.0347985
0.0262435
0.0172509
0.00815899
0.00138071
2.13793
2.00506
1.94041
1.89006
1.84385
1.79954
1.75489
1.70917
1.66135
1.61051
1.55705
1.50028
1.43937
1.37454
1.30604
1.23262
1.15506
1.07251
0.984417
0.891386
0.793392
0.690404
0.582359
0.469088
0.350932
0.234529
0.124816
0.021523
-0.0739257
-0.15801
-0.229247
-0.286811
-0.331275
-0.362688
-0.381716
-0.38983
-0.388283
-0.378606
-0.362294
-0.340697
-0.315225
-0.286988
-0.257034
-0.226251
-0.195335
-0.164849
-0.135232
-0.106842
-0.0798956
-0.0545314
-0.0308529
-0.00892838
0.0113165
0.0299149
0.0470072
0.0629098
0.0776196
0.0909566
0.102876
0.113118
0.121646
0.128511
0.133834
0.137755
0.14035
0.141788
0.14217
0.141556
0.140052
0.137739
0.134736
0.131049
0.12672
0.121868
0.116465
0.110628
0.10437
0.0977435
0.090827
0.0835712
0.0760288
0.0682526
0.0602231
0.0520461
0.043747
0.0351935
0.0263219
0.0171113
0.00798209
0.00127594
2.14108
2.00836
1.9439
1.89341
1.8473
1.80331
1.75901
1.7132
1.66502
1.6149
1.56179
1.50444
1.44385
1.37981
1.31112
1.23813
1.16099
1.07892
0.991695
0.899118
0.801814
0.69979
0.592886
0.481127
0.364511
0.24867
0.138339
0.0348917
-0.0598377
-0.142985
-0.214144
-0.272288
-0.31699
-0.349026
-0.368698
-0.377457
-0.376657
-0.36774
-0.352222
-0.331394
-0.306655
-0.279183
-0.249962
-0.219847
-0.18953
-0.15967
-0.130611
-0.102666
-0.0761582
-0.0512251
-0.0279501
-0.00634145
0.0136182
0.031968
0.0488757
0.0645911
0.079156
0.0923566
0.104112
0.114222
0.122591
0.129311
0.134549
0.138357
0.140863
0.142235
0.14256
0.141893
0.140343
0.138028
0.134967
0.131239
0.126898
0.121997
0.116626
0.110789
0.104498
0.0978526
0.0909202
0.0836501
0.0760915
0.0682984
0.0602101
0.0518997
0.0433353
0.0345604
0.0259092
0.017177
0.00845554
0.00166753
2.14515
2.01273
1.94838
1.89804
1.85219
1.80838
1.76415
1.71884
1.67102
1.62042
1.56733
1.51101
1.45103
1.38699
1.31854
1.24615
1.16991
1.08855
1.00155
0.910019
0.814213
0.713407
0.608073
0.49793
0.382685
0.268366
0.158841
0.0559928
-0.0381309
-0.121157
-0.192502
-0.250979
-0.296087
-0.32861
-0.349329
-0.359163
-0.359467
-0.351711
-0.337343
-0.31769
-0.29407
-0.267674
-0.239513
-0.2104
-0.181045
-0.152005
-0.123724
-0.096531
-0.0707008
-0.0463909
-0.0235924
-0.00246546
0.017029
0.0350094
0.0516362
0.0671144
0.0814414
0.0944199
0.105939
0.115809
0.123986
0.13053
0.135584
0.139274
0.141664
0.142906
0.143131
0.142417
0.140811
0.138426
0.1353
0.131518
0.127149
0.122224
0.116825
0.110961
0.104652
0.0979942
0.0910348
0.0837486
0.0761539
0.0682849
0.0602132
0.0519127
0.0434893
0.0349552
0.0262055
0.0172205
0.00829259
0.00149531
2.15046
2.01822
1.95393
1.90381
1.85814
1.81449
1.77053
1.72537
1.67798
1.62826
1.57572
1.51933
1.45953
1.39592
1.32826
1.25679
1.18083
1.10005
1.0146
0.924586
0.829976
0.730717
0.627359
0.519375
0.406317
0.293819
0.185282
0.0832818
-0.0100267
-0.0928727
-0.164029
-0.222648
-0.268599
-0.302242
-0.324128
-0.335302
-0.33705
-0.330761
-0.317911
-0.299761
-0.27762
-0.252647
-0.225828
-0.198057
-0.169907
-0.141986
-0.114759
-0.0885247
-0.0635562
-0.0400001
-0.0179552
0.0025334
0.021503
0.0390396
0.0552597
0.0704209
0.0844385
0.0971223
0.108385
0.117937
0.125816
0.132126
0.136946
0.140435
0.142682
0.143803
0.143904
0.143078
0.141375
0.138919
0.135734
0.131888
0.127487
0.122535
0.117065
0.111151
0.104864
0.0982028
0.091188
0.083881
0.0762757
0.0684002
0.0603322
0.0520684
0.0433698
0.0346789
0.0262435
0.0174525
0.00865455
0.00177889
2.15692
2.02478
1.9606
1.91082
1.86564
1.82227
1.77833
1.73358
1.68638
1.63698
1.58491
1.52905
1.46977
1.40692
1.33995
1.26944
1.19437
1.11473
1.03044
0.941499
0.848612
0.751613
0.650218
0.544694
0.434611
0.324105
0.217136
0.116261
0.0241314
-0.0583406
-0.129528
-0.188568
-0.235423
-0.270003
-0.293352
-0.30619
-0.309677
-0.305226
-0.294172
-0.277849
-0.257533
-0.234343
-0.209208
-0.18297
-0.156329
-0.129801
-0.103822
-0.0787812
-0.0548671
-0.0322534
-0.0110431
0.00869286
0.026963
0.0439257
0.0597222
0.0745182
0.088166
0.10045
0.111304
0.120525
0.128032
0.134031
0.138637
0.141889
0.143922
0.144872
0.144821
0.143874
0.142097
0.139547
0.136262
0.132341
0.127878
0.122876
0.117391
0.111455
0.105106
0.0984076
0.0913469
0.0840387
0.076446
0.0685787
0.060504
0.0522278
0.0437532
0.0351781
0.0265089
0.0174348
0.0082945
0.00144899
2.16456
2.03257
1.96855
1.91908
1.8736
1.82995
1.78688
1.74269
1.69633
1.64757
1.59582
1.54036
1.48213
1.42026
1.35381
1.28372
1.20986
1.13143
1.04851
0.961299
0.870075
0.774757
0.675919
0.573418
0.466755
0.358779
0.253649
0.154629
0.0634142
-0.0186116
-0.0896208
-0.149179
-0.197036
-0.232931
-0.257626
-0.272321
-0.277828
-0.275461
-0.266549
-0.252385
-0.234175
-0.21302
-0.18985
-0.16548
-0.140541
-0.115612
-0.0911276
-0.067427
-0.0447226
-0.023221
-0.00301455
0.0158343
0.0333751
0.0496957
0.0649991
0.0793473
0.0924984
0.104357
0.114725
0.123475
0.13064
0.136311
0.140573
0.143551
0.145359
0.146128
0.145935
0.144838
0.142884
0.140231
0.136887
0.132904
0.128341
0.123269
0.117733
0.111747
0.105373
0.0986071
0.0915646
0.0842173
0.0765924
0.0687177
0.0605899
0.0522148
0.0436109
0.0349888
0.0263601
0.0174709
0.00861444
0.00171022
2.17312
2.04113
1.97718
1.92766
1.88256
1.83984
1.7971
1.75306
1.7071
1.65895
1.60774
1.55347
1.49585
1.43442
1.3692
1.29996
1.22707
1.1502
1.06884
0.983066
0.893689
0.800866
0.704279
0.604324
0.501665
0.396473
0.293714
0.196598
0.106732
0.0255928
-0.0451507
-0.105122
-0.153946
-0.191124
-0.217635
-0.234313
-0.242034
-0.242027
-0.2355
-0.223744
-0.207913
-0.189055
-0.168073
-0.14575
-0.1228
-0.0996774
-0.0768586
-0.0546761
-0.0333786
-0.0131236
0.00601167
0.0239068
0.0406183
0.056267
0.071008
0.0848112
0.0974315
0.108754
0.118584
0.126825
0.133548
0.138826
0.142756
0.145439
0.147028
0.147564
0.147147
0.14587
0.14381
0.141014
0.137556
0.133515
0.128894
0.12373
0.118113
0.11208
0.105666
0.0988858
0.0917805
0.0843945
0.0767203
0.0687585
0.060567
0.0520284
0.0428346
0.0342037
0.0264302
0.0179953
0.00927944
0.00215302
2.18279
2.05073
1.98697
1.93767
1.89305
1.85045
1.80795
1.76465
1.71921
1.67151
1.62127
1.56753
1.51048
1.45029
1.38587
1.31762
1.24619
1.17059
1.09058
1.00654
0.919377
0.828716
0.734242
0.637453
0.53831
0.436859
0.33693
0.241719
0.153477
0.0733591
0.00288258
-0.0574198
-0.107156
-0.145956
-0.174191
-0.192912
-0.203005
-0.205497
-0.201578
-0.192463
-0.179209
-0.162848
-0.144258
-0.124232
-0.103395
-0.0822498
-0.0612591
-0.0407392
-0.0209196
-0.00198919
0.0159187
0.0327739
0.0485805
0.0635011
0.077644
0.0908296
0.102863
0.113615
0.122846
0.130524
0.136767
0.141603
0.145132
0.147505
0.148801
0.149105
0.148494
0.147019
0.144792
0.141896
0.138333
0.134161
0.129454
0.124212
0.118527
0.112444
0.105964
0.0991707
0.0920309
0.0845771
0.0769125
0.0690116
0.0608116
0.0523871
0.0437512
0.0350843
0.0264434
0.0175224
0.00860308
0.00165842
2.19353
2.06142
1.99781
1.94929
1.90414
1.86172
1.81968
1.77677
1.73229
1.68511
1.63546
1.58275
1.52655
1.46699
1.40375
1.33675
1.26624
1.19198
1.11356
1.03169
0.946435
0.857502
0.76607
0.67253
0.576297
0.478583
0.381865
0.28893
0.20212
0.123056
0.0532234
-0.00709706
-0.0576066
-0.0976808
-0.127894
-0.148828
-0.161383
-0.166525
-0.165355
-0.159035
-0.148539
-0.134852
-0.118856
-0.101261
-0.082663
-0.0636006
-0.0445606
-0.0258216
-0.00762345
0.00988037
0.0265248
0.0423024
0.0572296
0.0714468
0.0848982
0.097363
0.108743
0.118822
0.127397
0.134485
0.140171
0.144543
0.147683
0.149714
0.150716
0.150748
0.149908
0.148256
0.145903
0.142825
0.139123
0.134841
0.130045
0.124759
0.118982
0.112852
0.106324
0.0994396
0.0922699
0.0848153
0.0771092
0.0691824
0.0610254
0.0526779
0.0441607
0.035563
0.0267931
0.0175623
0.00829982
0.00142911
2.20519
2.07301
2.00932
1.96084
1.91646
1.87453
1.83245
1.7898
1.74571
1.69915
1.65031
1.59828
1.54326
1.48491
1.4224
1.3566
1.28716
1.21424
1.13805
1.05767
0.974349
0.887955
0.798579
0.70757
0.615088
0.520935
0.427167
0.33702
0.252178
0.174676
0.105431
0.0447114
-0.00634726
-0.0475851
-0.0798213
-0.102974
-0.117996
-0.12588
-0.127552
-0.124105
-0.116498
-0.105614
-0.0922679
-0.077171
-0.0609411
-0.0441266
-0.0271053
-0.0101773
0.00639162
0.0224249
0.0377721
0.0524154
0.066411
0.0798911
0.0926085
0.10433
0.114976
0.124268
0.132126
0.138618
0.143765
0.147643
0.150375
0.152043
0.152719
0.152487