# vtk DataFile Version 2.0
tracks
ASCII
DATASET POLYDATA
POINTS 788 float
-0.2 -0.2 -0.01 -0.199975 -0.200001 -0.00999583 -0.192791 -0.200376 -0.00878643 -0.187865 -0.200623
-0.00790599 -0.186642 -0.200684 -0.00768076 -0.183308 -0.200848 -0.0070669 -0.176026 -0.201207 -0.00565001
-0.162665 -0.201862 -0.00266427 -0.15039 -0.202964 0.00129294 -0.15015 -0.203003 0.00139125 -0.1377
-0.205036 0.00647952 -0.125221 -0.209241 0.0131911 -0.104213 -0.220349 0.025859 -0.100402 -0.223077
0.0269538 -0.0970812 -0.225321 0.0277831 -0.0880472 -0.231219 0.0296746 -0.0769752 -0.237871 0.0305363
-0.075538 -0.238701 0.0306829 -0.0550525 -0.250324 0.0328424 -0.050526 -0.252427 0.033425 -0.0254997
-0.263585 0.0362676 -0.000420427 -0.272855 0.0383597 0.0497875 -0.28853 0.039516 0.0999412 -0.297501
0.036252 0.126106 -0.300022 0.0342767 0.149977 -0.30189 0.0328314 0.19999 -0.305028 0.029837
0.299999 -0.31052 0.0261207 0.4 -0.312595 0.0236701 0.5 -0.31405 0.0222273 0.6
-0.314989 0.0212019 0.7 -0.315477 0.020425 0.8 -0.315704 0.0198274 0.9 -0.315789
0.0193606 1 -0.3158 0.0189902 1.1 -0.315773 0.0186915 1.2 -0.315729 0.0184469
1.3 -0.315679 0.0182434 1.4 -0.315629 0.0180719 1.5 -0.315581 0.0179255 1.6
-0.315538 0.017799 1.7 -0.3155 0.0176887 1.8 -0.315466 0.0175915 1.9 -0.315437
0.0175053 2 -0.315411 0.0174282 2.1 -0.315389 0.0173588 2.2 -0.315369 0.0172961
2.3 -0.315353 0.0172391 2.4 -0.315338 0.0171871 2.5 -0.315326 0.0171394 2.6
-0.315315 0.0170956 2.7 -0.315306 0.0170553 2.8 -0.315298 0.0170181 2.9 -0.315291
0.0169836 3 -0.315285 0.0169517 3.1 -0.315279 0.0169221 3.2 -0.315275 0.0168946
3.3 -0.315271 0.016869 3.4 -0.315267 0.0168452 3.5 -0.315264 0.0168231 3.6
-0.315262 0.0168025 3.7 -0.315259 0.0167833 3.8 -0.315257 0.0167655 3.9 -0.315255
0.016749 4 -0.315254 0.0167336 4.1 -0.315253 0.0167193 4.2 -0.315251 0.016706
4.3 -0.31525 0.0166938 4.4 -0.315249 0.0166824 4.5 -0.315249 0.016672 4.6
-0.315248 0.0166623 4.7 -0.315247 0.0166535 4.8 -0.315247 0.0166454 4.9 -0.315246
0.016638 5 -0.315246 0.0166313 5.1 -0.315245 0.0166253 5.2 -0.315245 0.0166199
5.3 -0.315244 0.0166151 5.4 -0.315244 0.0166109 5.5 -0.315244 0.0166073 5.6
-0.315243 0.0166042 5.7 -0.315243 0.0166017 5.8 -0.315243 0.0165998 5.9 -0.315243
0.0165984 6 -0.315243 0.0165977 -6.91738e-17 -0.2 -0.01 0.000231833 -0.200025 -0.0100035
0.0499769 -0.205458 -0.0107494 0.0999906 -0.209173 -0.011873 0.199998 -0.214934 -0.0133565 0.3
-0.218348 -0.0145164 0.4 -0.220288 -0.0154422 0.5 -0.221561 -0.0161975 0.6 -0.222307
-0.0168386 0.7 -0.222708 -0.0173725 0.8 -0.22291 -0.0178126 0.9 -0.222998 -0.0181746
1 -0.223024 -0.0184738 1.1 -0.223017 -0.018723 1.2 -0.222992 -0.0189324 1.3
-0.22296 -0.0191103 1.4 -0.222927 -0.0192628 1.5 -0.222894 -0.019395 1.6 -0.222864
-0.0195104 1.7 -0.222837 -0.0196121 1.8 -0.222813 -0.0197025 1.9 -0.222792 -0.0197832
2 -0.222774 -0.0198559 2.1 -0.222758 -0.0199216 2.2 -0.222744 -0.0199814 2.3
-0.222732 -0.0200359 2.4 -0.222721 -0.0200858 2.5 -0.222712 -0.0201317 2.6 -0.222705
-0.0201741 2.7 -0.222698 -0.0202131 2.8 -0.222692 -0.0202493 2.9 -0.222687 -0.0202829
3 -0.222683 -0.020314 3.1 -0.222679 -0.0203429 3.2 -0.222675 -0.0203698 3.3
-0.222672 -0.0203949 3.4 -0.22267 -0.0204182 3.5 -0.222668 -0.0204399 3.6 -0.222666
-0.0204601 3.7 -0.222664 -0.020479 3.8 -0.222663 -0.0204965 3.9 -0.222661 -0.0205128
4 -0.22266 -0.020528 4.1 -0.222659 -0.020542 4.2 -0.222659 -0.0205551 4.3
-0.222658 -0.0205672 4.4 -0.222657 -0.0205784 4.5 -0.222656 -0.0205888 4.6 -0.222656
-0.0205983 4.7 -0.222655 -0.020607 4.8 -0.222655 -0.020615 4.9 -0.222655 -0.0206223
5 -0.222654 -0.0206289 5.1 -0.222654 -0.0206349 5.2 -0.222654 -0.0206402 5.3
-0.222653 -0.020645 5.4 -0.222653 -0.0206491 5.5 -0.222653 -0.0206527 5.6 -0.222652
-0.0206557 5.7 -0.222652 -0.0206582 5.8 -0.222652 -0.0206601 5.9 -0.222652 -0.0206614
6 -0.222652 -0.0206622 0.2 -0.2 -0.01 0.20003 -0.200001 -0.0100004 0.3
-0.20303 -0.0113194 0.4 -0.204924 -0.0123438 0.5 -0.206149 -0.0131647 0.6 -0.206862
-0.0138464 0.7 -0.20725 -0.0144045 0.8 -0.207446 -0.0148595 0.9 -0.207534 -0.0152311
1 -0.207562 -0.0155368 1.1 -0.207557 -0.0157904 1.2 -0.207536 -0.0160031 1.3
-0.207507 -0.0161833 1.4 -0.207476 -0.0163377 1.5 -0.207447 -0.0164712 1.6 -0.207419
-0.0165878 1.7 -0.207394 -0.0166904 1.8 -0.207371 -0.0167814 1.9 -0.207352 -0.0168627
2 -0.207335 -0.0169359 2.1 -0.20732 -0.017002 2.2 -0.207307 -0.017062 2.3
-0.207296 -0.0171168 2.4 -0.207286 -0.017167 2.5 -0.207278 -0.0172131 2.6 -0.20727
-0.0172556 2.7 -0.207264 -0.0172948 2.8 -0.207259 -0.0173311 2.9 -0.207254 -0.0173647
3 -0.20725 -0.0173959 3.1 -0.207246 -0.0174249 3.2 -0.207243 -0.0174519 3.3
-0.20724 -0.017477 3.4 -0.207238 -0.0175004 3.5 -0.207236 -0.0175221 3.6 -0.207234
-0.0175424 3.7 -0.207233 -0.0175613 3.8 -0.207231 -0.0175788 3.9 -0.20723 -0.0175952
4 -0.207229 -0.0176104 4.1 -0.207228 -0.0176245 4.2 -0.207227 -0.0176376 4.3
-0.207227 -0.0176497 4.4 -0.207226 -0.0176609 4.5 -0.207225 -0.0176712 4.6 -0.207225
-0.0176808 4.7 -0.207225 -0.0176895 4.8 -0.207224 -0.0176975 4.9 -0.207224 -0.0177048
5 -0.207223 -0.0177115 5.1 -0.207223 -0.0177174 5.2 -0.207223 -0.0177228 5.3
-0.207222 -0.0177275 5.4 -0.207222 -0.0177317 5.5 -0.207222 -0.0177352 5.6 -0.207222
-0.0177383 5.7 -0.207221 -0.0177407 5.8 -0.207221 -0.0177426 5.9 -0.207221 -0.017744
6 -0.207221 -0.0177447 0.4 -0.2 -0.01 0.4 -0.2 -0.01 0.4
-0.2 -0.01 0.5 -0.201211 -0.0108636 0.6 -0.201916 -0.011572 0.7 -0.202299
-0.0121466 0.8 -0.202494 -0.012612 0.9 -0.202582 -0.0129905 1 -0.202611 -0.0133008
1.1 -0.202607 -0.0135577 1.2 -0.202586 -0.0137727 1.3 -0.202559 -0.0139547 1.4
-0.202529 -0.0141103 1.5 -0.2025 -0.0142448 1.6 -0.202473 -0.0143622 1.7 -0.202449
-0.0144654 1.8 -0.202427 -0.0145569 1.9 -0.202408 -0.0146387 2 -0.202391 -0.0147121
2.1 -0.202377 -0.0147785 2.2 -0.202364 -0.0148388 2.3 -0.202353 -0.0148938 2.4
-0.202344 -0.0149441 2.5 -0.202335 -0.0149903 2.6 -0.202328 -0.0150329 2.7 -0.202322
-0.0150722 2.8 -0.202317 -0.0151086 2.9 -0.202312 -0.0151423 3 -0.202308 -0.0151736
3.1 -0.202305 -0.0152026 3.2 -0.202302 -0.0152297 3.3 -0.202299 -0.0152548 3.4
-0.202297 -0.0152782 3.5 -0.202295 -0.0153 3.6 -0.202293 -0.0153203 3.7 -0.202292
-0.0153392 3.8 -0.20229 -0.0153567 3.9 -0.202289 -0.0153731 4 -0.202288 -0.0153883
4.1 -0.202287 -0.0154024 4.2 -0.202286 -0.0154155 4.3 -0.202286 -0.0154277 4.4
-0.202285 -0.0154389 4.5 -0.202284 -0.0154493 4.6 -0.202284 -0.0154588 4.7 -0.202284
-0.0154676 4.8 -0.202283 -0.0154756 4.9 -0.202283 -0.0154829 5 -0.202282 -0.0154895
5.1 -0.202282 -0.0154955 5.2 -0.202282 -0.0155008 5.3 -0.202282 -0.0155056 5.4
-0.202281 -0.0155097 5.5 -0.202281 -0.0155133 5.6 -0.202281 -0.0155163 5.7 -0.20228
-0.0155188 5.8 -0.20228 -0.0155207 5.9 -0.20228 -0.015522 6 -0.20228 -0.0155228
-0.2 3.54365e-17 -0.01 -0.196823 -1.07843e-06 -0.00959229 -0.187695 -4.53088e-06 -0.00846637 -0.179918
-8.01935e-06 -0.00759316 -0.174898 -1.02669e-05 -0.00706462 -0.149621 -2.17379e-05 -0.0045283 -0.124794 -3.0363e-05
-0.00545752 -0.0999043 -3.66212e-05 -0.00797794 -0.0499762 -4.72972e-05 -0.0122643 5.75059e-06 -5.65469e-05 -0.0155593
0.100001 -7.0702e-05 -0.0193109 0.2 -7.6663e-05 -0.0216588 0.3 -7.96212e-05 -0.0232094 0.4
-8.10877e-05 -0.0242988 0.5 -8.17747e-05 -0.0251198 0.6 -8.20454e-05 -0.0257642 0.7 -8.20956e-05
-0.0262811 0.8 -8.2037e-05 -0.0267013 0.9 -8.1929e-05 -0.0270462 1 -8.18056e-05 -0.027332
1.1 -8.16787e-05 -0.0275713 1.2 -8.15524e-05 -0.0277735 1.3 -8.14381e-05 -0.0279461 1.4
-8.13364e-05 -0.0280948 1.5 -8.12421e-05 -0.028224 1.6 -8.11575e-05 -0.0283374 1.7 -8.10853e-05
-0.0284375 1.8 -8.10231e-05 -0.0285266 1.9 -8.0968e-05 -0.0286063 2 -8.0919e-05 -0.0286782
2.1 -8.08766e-05 -0.0287433 2.2 -8.084e-05 -0.0288026 2.3 -8.08072e-05 -0.0288567 2.4
-8.07793e-05 -0.0289063 2.5 -8.07548e-05 -0.028952 2.6 -8.0732e-05 -0.028994 2.7 -8.07116e-05
-0.0290329 2.8 -8.06923e-05 -0.0290689 2.9 -8.06736e-05 -0.0291023 3 -8.06558e-05 -0.0291333
3.1 -8.06386e-05 -0.0291621 3.2 -8.06226e-05 -0.0291889 3.3 -8.06077e-05 -0.0292139 3.4
-8.05929e-05 -0.0292371 3.5 -8.05768e-05 -0.0292588 3.6 -8.05582e-05 -0.0292789 3.7 -8.05404e-05
-0.0292977 3.8 -8.05232e-05 -0.0293152 3.9 -8.05048e-05 -0.0293315 4 -8.04859e-05 -0.0293466
4.1 -8.0467e-05 -0.0293606 4.2 -8.04477e-05 -0.0293737 4.3 -8.04234e-05 -0.0293857 4.4
-8.03914e-05 -0.0293969 4.5 -8.03529e-05 -0.0294072 4.6 -8.03089e-05 -0.0294167 4.7 -8.02568e-05
-0.0294254 4.8 -8.01964e-05 -0.0294334 4.9 -8.0126e-05 -0.0294407 5 -8.00455e-05 -0.0294473
5.1 -7.99573e-05 -0.0294532 5.2 -7.98589e-05 -0.0294585 5.3 -7.97489e-05 -0.0294632 5.4
-7.96255e-05 -0.0294673 5.5 -7.94887e-05 -0.0294709 5.6 -7.93445e-05 -0.0294739 5.7 -7.92042e-05
-0.0294763 5.8 -7.90746e-05 -0.0294782 5.9 -7.89673e-05 -0.0294795 6 -7.89039e-05 -0.0294802
-1.61646e-16 3.29607e-17 -0.01 6.19885e-06 -7.44933e-10 -0.0100003 0.00011985 -1.44026e-08 -0.0100051 0.100001
-1.18288e-05 -0.0144168 0.2 -1.70303e-05 -0.0169483 0.3 -1.93174e-05 -0.0186105 0.4 -2.02725e-05
-0.0197704 0.5 -2.06256e-05 -0.0206374 0.6 -2.0694e-05 -0.0213126 0.7 -2.06284e-05 -0.0218508
0.8 -2.0508e-05 -0.0222858 0.9 -2.03703e-05 -0.0226413 1 -2.02357e-05 -0.0229348 1.1
-2.01081e-05 -0.0231796 1.2 -1.99869e-05 -0.023386 1.3 -1.98803e-05 -0.0235618 1.4 -1.97872e-05
-0.0237129 1.5 -1.97016e-05 -0.023844 1.6 -1.9625e-05 -0.0239588 1.7 -1.95601e-05 -0.0240601
1.8 -1.95045e-05 -0.0241501 1.9 -1.94552e-05 -0.0242307 2 -1.94114e-05 -0.0243032 2.1
-1.93733e-05 -0.0243688 2.2 -1.93405e-05 -0.0244284 2.3 -1.9311e-05 -0.0244829 2.4 -1.9286e-05
-0.0245328 2.5 -1.92638e-05 -0.0245787 2.6 -1.9243e-05 -0.024621 2.7 -1.92244e-05 -0.02466
2.8 -1.92065e-05 -0.0246962 2.9 -1.91891e-05 -0.0247297 3 -1.91724e-05 -0.0247608 3.1
-1.91561e-05 -0.0247897 3.2 -1.91409e-05 -0.0248166 3.3 -1.91267e-05 -0.0248416 3.4 -1.91125e-05
-0.0248649 3.5 -1.90969e-05 -0.0248867 3.6 -1.90788e-05 -0.0249069 3.7 -1.90612e-05 -0.0249257
3.8 -1.90443e-05 -0.0249432 3.9 -1.90261e-05 -0.0249595 4 -1.90073e-05 -0.0249747 4.1
[...]
POINT_DATA 788
FIELD attributes 2
age 1 788 float
0 2.50187e-06 0.000727955 0.00127008 0.00141205 0.00180147 0.00269366 0.00454809 0.00598345 0.00601142 0.00745328
0.00922195 0.0127455 0.0134687 0.0140756 0.015687 0.0175603 0.0177937 0.0210924 0.0217629 0.0254113
0.029007 0.0359947 0.0423595 0.0453849 0.0481057 0.0537581 0.0648881 0.0754693 0.0858146 0.0960743
0.106269 0.116415 0.126527 0.136614 0.146682 0.156738 0.166783 0.17682 0.18685 0.196876
0.206897 0.216915 0.22693 0.236943 0.246954 0.256963 0.266972 0.276978 0.286984 0.29699
0.306994 0.316998 0.327001 0.337004 0.347007 0.357009 0.367011 0.377012 0.387014 0.397015
0.407016 0.417017 0.427018 0.437018 0.447019 0.457019 0.46702 0.47702 0.48702 0.49702
0.507021 0.517021 0.527021 0.537021 0.547021 0.557021 0.567021 0.577021 0.58702 0.59702
0.60702 0.61702 0.62702 0.63702 0 2.62652e-05 0.0056621 0.0112604 0.0222501 0.0329297
0.0433056 0.0535877 0.0638061 0.0739759 0.084109 0.0942144 0.104299 0.114367 0.124423 0.134469
0.144506 0.154538 0.164564 0.174586 0.184605 0.194621 0.204634 0.214646 0.224656 0.234664
0.244672 0.254678 0.264683 0.274688 0.284692 0.294696 0.304699 0.314701 0.324704 0.334706
0.344707 0.354709 0.36471 0.374711 0.384712 0.394713 0.404714 0.414714 0.424715 0.434715
0.444716 0.454716 0.464716 0.474716 0.484716 0.494716 0.504716 0.514717 0.524716 0.534716
0.544716 0.554716 0.564716 0.574716 0.584716 0.594716 0.604716 0 3.14567e-06 0.0105973
0.0209531 0.0312248 0.041436 0.0516013 0.0617317 0.0718356 0.0819191 0.0919869 0.102042 0.112088
0.122126 0.132157 0.142184 0.152206 0.162224 0.17224 0.182254 0.192265 0.202275 0.212284
0.222291 0.232297 0.242303 0.252307 0.262311 0.272315 0.282318 0.292321 0.302323 0.312325
0.322327 0.332328 0.34233 0.352331 0.362332 0.372332 0.382333 0.392334 0.402334 0.412335
0.422335 0.432335 0.442335 0.452336 0.462336 0.472336 0.482336 0.492336 0.502336 0.512336
0.522336 0.532336 0.542336 0.552336 0.562335 0.572335 0.582335 0 0 0
0.0102686 0.0204777 0.0306416 0.0407711 0.0508744 0.0609576 0.0710252 0.0810805 0.091126 0.101164
0.111195 0.121222 0.131244 0.141262 0.151278 0.161292 0.171303 0.181313 0.191322 0.201329
0.211335 0.221341 0.231345 0.24135 0.251353 0.261356 0.271359 0.281361 0.291363 0.301365
0.311366 0.321368 0.331369 0.34137 0.35137 0.361371 0.371372 0.381372 0.391373 0.401373
0.411373 0.421374 0.431374 0.441374 0.451374 0.461374 0.471374 0.481374 0.491374 0.501374
0.511374 0.521374 0.531374 0.541373 0.551373 0.561373 0 0.000403364 0.00156624 0.00256292
0.0032153 0.00652261 0.00973903 0.0126525 0.018233 0.0236163 0.0343262 0.0446895 0.0549456 0.0651672
0.0753593 0.0855224 0.0956593 0.105773 0.115868 0.125947 0.136012 0.146066 0.156111 0.166149
0.176181 0.186208 0.19623 0.206249 0.216266 0.226279 0.236291 0.246301 0.25631 0.266318
0.276324 0.28633 0.296334 0.306339 0.316342 0.326345 0.336348 0.346351 0.356353 0.366354
0.376356 0.386357 0.396358 0.406359 0.41636 0.426361 0.436362 0.446362 0.456363 0.466363
0.476363 0.486364 0.496364 0.506364 0.516364 0.526364 0.536364 0.546364 0.556364 0.566364
0.576364 0.586364 0.596364 0.606363 0.616363 0.626363 0 6.63072e-07 1.282e-05 0.0106636
0.0210279 0.0312829 0.041504 0.0516958 0.0618586 0.0719953 0.0821091 0.0922037 0.102282 0.112347
0.122401 0.132446 0.142484 0.152516 0.162542 0.172565 0.182584 0.1926 0.202614 0.212626
0.222636 0.232645 0.242652 0.252659 0.262664 0.272669 0.282673 0.292677 0.30268 0.312683
0.322685 0.332687 0.342689 0.35269 0.362692 0.372693 0.382694 0.392695 0.402695 0.412696
0.422697 0.432697 0.442697 0.452698 0.462698 0.472698 0.482698 0.492698 0.502698 0.512698
0.522698 0.532698 0.542698 0.552698 0.562698 0.572698 0.582698 0.592698 0.602697 0
0 2.99362e-06 0.0102534 0.0204736 0.030665 0.0408274 0.0509637 0.0610772 0.0711714 0.0812496
0.0913144 0.101368 0.111413 0.121451 0.131483 0.141509 0.151532 0.161551 0.171567 0.18158
0.191592 0.201602 0.211611 0.221618 0.231625 0.24163 0.251635 0.261639 0.271643 0.281646
0.291649 0.301651 0.311653 0.321655 0.331657 0.341658 0.351659 0.36166 0.371661 0.381662
0.391662 0.401663 0.411663 0.421663 0.431664 0.441664 0.451664 0.461664 0.471664 0.481664
0.491664 0.501664 0.511664 0.521664 0.531664 0.541664 0.551664 0.561664 0.568319 0.571664
0.581663 0 2.26278e-17 1.61581e-06 0.0101911 0.0203534 0.0304895 0.0403001 0.0406023 0.0506964
0.0607744 0.0708391 0.080893 0.0909379 0.100975 0.111007 0.121034 0.131056 0.141075 0.151091
0.161105 0.171117 0.181127 0.191135 0.201143 0.211149 0.221155 0.231159 0.241164 0.251167
0.26117 0.271173 0.281175 0.291177 0.301179 0.311181 0.321182 0.331183 0.341184 0.351185
0.361186 0.371186 0.381187 0.391187 0.401188 0.411188 0.421188 0.431188 0.441188 0.451188
0.461188 0.471189 0.481189 0.491188 0.501188 0.511188 0.521188 0.531188 0.541188 0.551188
0.561188 0 2.39254e-06 0.000727554 0.00127061 0.00141296 0.00179777 0.00269436 0.00454942 0.00598753
0.0060144 0.00745569 0.00922597 0.0127677 0.0134782 0.0140814 0.0157026 0.0175429 0.0178093 0.0210425
0.0217691 0.0254135 0.0290084 0.036001 0.0423664 0.0450373 0.048114 0.0537669 0.064898 0.0754803
0.0858208 0.0960774 0.106271 0.116417 0.126528 0.136615 0.146684 0.156739 0.166784 0.176821
0.186852 0.196877 0.206898 0.216916 0.226931 0.236944 0.246955 0.256965 0.266973 0.27698
0.286986 0.296991 0.306995 0.316999 0.327003 0.337006 0.347008 0.35701 0.367012 0.377014
0.387015 0.397016 0.407017 0.417018 0.427019 0.43702 0.44702 0.457021 0.467021 0.477021
0.487022 0.497022 0.507022 0.517022 0.527022 0.537022 0.547022 0.557022 0.567022 0.577022
0.587022 0.597022 0.607021 0.617021 0.627021 0.637021 0 2.52677e-05 0.00565796 0.0112538
0.0222409 0.0329196 0.0433027 0.0535848 0.0638038 0.0739742 0.0841076 0.0942132 0.104298 0.114366
0.124422 0.134468 0.144505 0.154537 0.164563 0.174585 0.184604 0.19462 0.204633 0.214645
0.224655 0.234663 0.244671 0.254677 0.264682 0.274687 0.284691 0.294695 0.304698 0.3147
0.324703 0.334705 0.344706 0.354708 0.364709 0.37471 0.384711 0.394712 0.404713 0.414713
0.424714 0.434714 0.444715 0.454715 0.464715 0.474715 0.484715 0.494715 0.504716 0.514715
0.524715 0.534715 0.544715 0.554715 0.564715 0.574715 0.584715 0.594715 0.604715 0
3.14567e-06 0.0105965 0.0209536 0.0312253 0.0414367 0.0516022 0.0617327 0.0718367 0.0819202 0.091988
0.102043 0.112089 0.122127 0.132158 0.142185 0.152207 0.162226 0.172241 0.182255 0.192267
0.202276 0.212285 0.222292 0.232298 0.242304 0.252309 0.262313 0.272316 0.282319 0.292322
0.302324 0.312326 0.322328 0.332329 0.342331 0.352332 0.362333 0.372334 0.382334 0.392335
0.402335 0.412336 0.422336 0.432337 0.442337 0.452337 0.462337 0.472337 0.482337 0.492337
0.502337 0.512337 0.522337 0.532337 0.542337 0.552337 0.562337 0.572336 0.582336 0
4.55964e-17 0.0102685 0.0204776 0.0306415 0.0407711 0.0508744 0.0609576 0.0710252 0.0810805 0.0911261
0.101164 0.111195 0.121222 0.131244 0.141263 0.151278 0.161292 0.171303 0.181313 0.191322
0.201329 0.211335 0.221341 0.231346 0.24135 0.251353 0.261356 0.271359 0.281361 0.291363
0.301365 0.311366 0.321368 0.331369 0.34137 0.351371 0.361371 0.371372 0.381372 0.391373
0.401373 0.411373 0.421374 0.431374 0.441374 0.451374 0.461374 0.471374 0.481374 0.491374
0.501374 0.511374 0.521374 0.531374 0.541373 0.551373 0.561373 
U 3 788 float
9.90259 -0.51686 1.66669 9.90306 -0.516809 1.66709 9.0858 -0.45611 1.62408 8.61545 -0.424347
1.58638 8.56097 -0.421664 1.57635 8.16235 -0.401932 1.58811 7.2049 -0.353581 1.61006
8.55169 -0.767301 2.75695 8.59665 -1.40643 3.51399 8.63474 -1.4097 3.52897 7.05551
-2.37796 3.79471 5.9622 -3.15247 3.59526 5.26899 -3.77167 1.51363 5.47203 -3.69755
1.3664 5.60656 -3.66021 1.17387 5.91038 -3.551 0.460004 6.15593 -3.55387 0.627912
6.21017 -3.52373 0.654655 6.75164 -3.13669 0.868942 6.8594 -3.05806 0.77912 6.97485
-2.57814 0.58184 7.18518 -2.24332 0.165485 7.87987 -1.40941 -0.51283 8.64834 -0.833149
-0.652887 8.7733 -0.686573 -0.531194 8.84825 -0.555197 -0.529769 8.98547 -0.49342 -0.333903
9.45089 -0.196169 -0.231597 9.66624 -0.140599 -0.139468 9.74685 -0.0915014 -0.0999365 9.80908
-0.0479088 -0.0762052 9.8561 -0.0223277 -0.0589073 9.88964 -0.00847931 -0.0461593 9.91375 -0.00108251
-0.0367245 9.93151 0.00268661 -0.029666 9.94493 0.00439863 -0.0243283 9.95522 0.00499324 -0.0202495
9.96324 0.00499822 -0.0170873 9.96958 0.00470887 -0.0145999 9.97465 0.00428882 -0.0126159 9.97874
0.00382761 -0.0110118 9.98209 0.00337368 -0.00969869 9.98483 0.00294999 -0.00861032 9.98711 0.00256634
-0.00769875 9.989 0.00222596 -0.00692688 9.99059 0.00192685 -0.00626602 9.99193 0.00166639 -0.00569576
9.99306 0.00144103 -0.00519907 9.99402 0.00124608 -0.00476252 9.99483 0.00107789 -0.00437635 9.99553
0.000933299 -0.00403204 9.99614 0.000808494 -0.00372336 9.99665 0.000700737 -0.00344454 9.9971 0.000607974
-0.00319131 9.99749 0.000528016 -0.00296117 9.99782 0.000459206 -0.00275049 9.99811 0.000399533 -0.00255641
9.99837 0.000347479 -0.00237739 9.99859 0.000302653 -0.00221191 9.99879 0.000264034 -0.00205823 9.99896
0.000230401 -0.00191487 9.99911 0.000201224 -0.00178122 9.99924 0.000175764 -0.00165639 9.99936 0.000153535
-0.00153898 9.99946 0.000134674 -0.00142843 9.99955 0.000118385 -0.00132465 9.99963 0.000104093 -0.00122684
9.9997 9.17467e-05 -0.00113435 9.99976 8.07454e-05 -0.00104682 9.99982 7.15159e-05 -0.000963701 9.99987
6.35827e-05 -0.000884863 9.99991 5.68429e-05 -0.000809785 9.99995 5.12504e-05 -0.000738021 9.99998 4.6855e-05
-0.000669486 10 4.37235e-05 -0.000603574 10 4.10072e-05 -0.000540281 10.0001 3.87636e-05 -0.000479143
10.0001 3.72062e-05 -0.000419652 10.0001 3.57378e-05 -0.000361996 10.0001 3.37847e-05 -0.000305375 10.0002
3.09618e-05 -0.000248781 10.0002 2.61986e-05 -0.000192124 10.0002 1.99208e-05 -0.000136565 10.0002 1.2044e-05
-7.55523e-05 10.0003 7.44441e-06 -4.18134e-05 8.8266 -0.965277 -0.131392 8.82656 -0.964004 -0.132353
8.93369 -0.663556 -0.200701 9.10008 -0.52425 -0.134994 9.36386 -0.319655 -0.108604 9.63773
-0.186984 -0.0892294 9.72566 -0.123808 -0.0734634 9.78622 -0.072927 -0.0627324 9.83306 -0.0395173
-0.0525026 9.86865 -0.0198688 -0.0434267 9.89566 -0.00875592 -0.0358298 9.91627 -0.00257981 -0.0296665
9.93217 0.000770556 -0.0247471 9.9446 0.00244606 -0.0208295 9.95445 0.00315487 -0.0177054 9.9623
0.00333268 -0.0151981 9.96861 0.00323141 -0.0131692 9.97373 0.0029945 -0.0115142 9.97791 0.00270246
-0.010151 9.98134 0.00239938 -0.00901677 9.98418 0.00210839 -0.0080638 9.98653 0.00184054 -0.00725622
9.9885 0.00160026 -0.00656514 9.99015 0.00138774 -0.00596795 9.99154 0.00120161 -0.00544804 9.99272
0.00103993 -0.00499181 9.99372 0.000899628 -0.00458821 9.99458 0.000778397 -0.0042289 9.99531 0.000674295
-0.00390665 9.99594 0.000584069 -0.00361591 9.99648 0.000506037 -0.00335209 9.99694 0.000439504 -0.00311173
9.99735 0.000382105 -0.00289215 9.9977 0.000332004 -0.00269019 9.998 0.000288647 -0.00250376 9.99827
0.0002513 -0.00233139 9.9985 0.000218847 -0.00217139 9.9987 0.000190748 -0.00202217 9.99888 0.000166821
-0.00188299 9.99904 0.000145902 -0.00175302 9.99918 0.000127446 -0.00163136 9.9993 0.000111049 -0.00151667
9.99941 9.72806e-05 -0.00140844 9.9995 8.61968e-05 -0.0013069 9.99958 7.6059e-05 -0.0012109 9.99966
6.68919e-05 -0.00111986 9.99972 5.92176e-05 -0.00103378 9.99978 5.29073e-05 -0.000951976 9.99983 4.74022e-05
-0.000874271 9.99988 4.29802e-05 -0.000800293 9.99992 3.92447e-05 -0.000729225 9.99995 3.5911e-05 -0.000661265
9.99997 3.3721e-05 -0.000596409 10 3.21069e-05 -0.000534153 10 3.09494e-05 -0.0004738 10.0001
3.02448e-05 -0.000414998 10.0001 2.95309e-05 -0.000357611 10.0001 2.82979e-05 -0.000301273 10.0001 2.63095e-05
-0.000245505 10.0002 2.25158e-05 -0.000189727 10.0002 1.71579e-05 -0.000134787 10.0002 1.04646e-05 -7.4236e-05
10.0002 6.51303e-06 -4.07321e-05 9.43628 -0.286001 -0.124516 9.43635 -0.285968 -0.124506 9.65645
-0.182834 -0.0989189 9.73549 -0.119288 -0.079917 9.79311 -0.0698473 -0.0667582 9.83743 -0.0380927
-0.0549086 9.87127 -0.0193683 -0.0449088 9.89721 -0.00871957 -0.0367834 9.91718 -0.00277439 -0.0303084
9.93268 0.000479667 -0.0251945 9.94488 0.00213098 -0.0211508 9.95459 0.00284771 -0.0179432 9.96236
0.00304836 -0.0153786 9.96863 0.0029757 -0.0133088 9.97372 0.00276844 -0.0116238 9.97789 0.00250481
-0.0102383 9.98131 0.0022276 -0.00908695 9.98415 0.00195969 -0.0081207 9.98651 0.00171212 -0.00730276
9.98848 0.00148945 -0.00660354 9.99013 0.00129223 -0.00599983 9.99153 0.00111925 -0.00547462 9.99271
0.000968882 -0.00501412 9.99371 0.000838303 -0.00460704 9.99457 0.000725384 -0.00424487 9.9953 0.000628445
-0.00392028 9.99593 0.000544375 -0.00362758 9.99647 0.000471634 -0.00336212 9.99694 0.000409741 -0.00312037
9.99734 0.000356303 -0.00289963 9.99769 0.000309496 -0.00269666 9.998 0.000269065 -0.00250939 9.99827
0.000234328 -0.00233634 9.9985 0.00020405 -0.00217575 9.9987 0.000177871 -0.00202597 9.99888 0.000155649
-0.00188636 9.99904 0.000136138 -0.00175602 9.99918 0.000118899 -0.00163396 9.9993 0.000103556 -0.001519
9.99941 9.07408e-05 -0.00141053 9.9995 8.05343e-05 -0.00130872 9.99959 7.10986e-05 -0.0012125 9.99966
6.25362e-05 -0.00112129 9.99972 5.54609e-05 -0.00103505 9.99978 4.96563e-05 -0.000953089 9.99984 4.45808e-05
-0.000875234 9.99988 4.05529e-05 -0.000801117 9.99992 3.71753e-05 -0.00072995 9.99995 3.40983e-05 -0.000661919
9.99997 3.20596e-05 -0.000596968 10 3.05917e-05 -0.000534626 10 2.96507e-05 -0.000474158 10.0001
2.91125e-05 -0.000415239 10.0001 2.85755e-05 -0.000357725 10.0001 2.74955e-05 -0.000301302 10.0001 2.56086e-05
-0.000245504 10.0002 2.19838e-05 -0.000189698 10.0002 1.6788e-05 -0.000134741 10.0002 1.02619e-05 -7.41607e-05
10.0002 6.38925e-06 -4.06487e-05 9.73839 -0.117921 -0.0841049 9.73839 -0.117921 -0.0841049 9.73839
-0.117921 -0.0841049 9.7952 -0.06902 -0.0693842 9.83878 -0.0377219 -0.056539 9.87212 -0.0192462
-0.0459431 9.89773 -0.00872483 -0.0374621 9.9175 -0.00284471 -0.03077 9.93289 0.000382172 -0.0255177
9.945 0.00202728 -0.0213832 9.95466 0.00274724 -0.0181149 9.9624 0.0029556 -0.0155083 9.96865
0.00289239 -0.0134088 9.97373 0.00269485 -0.011702 9.9779 0.0024405 -0.0103002 9.98132 0.00217174
-0.00913654 9.98415 0.00191135 -0.00816078 9.98651 0.00167039 -0.00733546 9.98848 0.00145345 -0.00663043
9.99013 0.0012612 -0.0060221 9.99153 0.00109251 -0.00549317 9.99271 0.000945816 -0.00502967 9.99371
0.000818398 -0.00462015 9.99457 0.00070818 -0.00425597 9.9953 0.000613569 -0.00392974 9.99593 0.000531498
-0.00363568 9.99647 0.000460476 -0.00336907 9.99694 0.000400089 -0.00312637 9.99735 0.000347935 -0.00290482
9.9977 0.0003022 -0.00270117 9.998 0.000262718 -0.00251332 9.99827 0.000228825 -0.00233978 9.9985
0.000199252 -0.00217877 9.99871 0.000173699 -0.00202862 9.99888 0.000152029 -0.00188871 9.99904 0.000132974
-0.0017581 9.99918 0.000116132 -0.00163579 9.9993 0.000101129 -0.00152063 9.99941 8.8622e-05 -0.00141198
9.9995 7.87019e-05 -0.00131 9.99959 6.94946e-05 -0.00121364 9.99966 6.11281e-05 -0.00112232 9.99973
5.42473e-05 -0.00103596 9.99978 4.86079e-05 -0.000953897 9.99984 4.36723e-05 -0.000875947 9.99988 3.97729e-05
-0.000801742 9.99992 3.65116e-05 -0.000730502 9.99995 3.35181e-05 -0.000662416 9.99998 3.15299e-05 -0.000597403
10 3.01094e-05 -0.000535003 10 2.92396e-05 -0.000474466 10.0001 2.87578e-05 -0.000415475 10.0001
2.8285e-05 -0.000357889 10.0001 2.72568e-05 -0.000301414 10.0001 2.53984e-05 -0.000245581 10.0002 2.18249e-05
-0.00018974 10.0002 1.668e-05 -0.000134759 10.0002 1.02071e-05 -7.41599e-05 10.0002 6.35938e-06 -4.06418e-05
7.87575 -0.0026736 1.01078 7.84956 -0.00296889 0.968223 7.80275 -0.00350008 0.876112 7.69494
-0.0034451 0.810177 7.64283 -0.00346839 0.766883 7.71899 -0.00268159 -0.288899 8.54297 -0.00214804
-0.865106 8.9468 -0.00191309 -0.768095 9.28468 -0.00171822 -0.612083 9.33671 -0.00132169 -0.350291
9.64934 -0.000575203 -0.226557 9.75029 -0.000288427 -0.151187 9.78319 -0.000143478 -0.10658 9.81151
-6.73974e-05 -0.0805551 9.83948 -2.66423e-05 -0.0634023 9.86495 -4.95051e-06 -0.0509962 9.88718 5.79113e-06
-0.0415417 9.90614 1.06979e-05 -0.034164 9.92206 1.22464e-05 -0.0283621 9.93523 1.26123e-05 -0.0237702
9.94606 1.25559e-05 -0.0201122 9.95496 1.13776e-05 -0.0171821 9.9623 1.01362e-05 -0.0148145 9.96836
9.39616e-06 -0.0128841 9.97336 8.43984e-06 -0.0113001 9.9775 7.20309e-06 -0.0099889 9.98093 6.20788e-06
-0.0088921 9.98379 5.50745e-06 -0.00796655 9.98618 4.88981e-06 -0.00717909 9.98819 4.23166e-06 -0.00650326
9.98988 3.65979e-06 -0.00591843 9.9913 3.27697e-06 -0.00540754 9.99251 2.78298e-06 -0.00495793 9.99354
2.4476e-06 -0.00455982 9.99442 2.28327e-06 -0.00420505 9.99517 2.04036e-06 -0.00388659 9.99581 1.93154e-06
-0.00359837 9.99637 1.8635e-06 -0.00333693 9.99685 1.78653e-06 -0.003099 9.99726 1.7131e-06 -0.00288098
9.99763 1.60168e-06 -0.00268012 9.99794 1.48876e-06 -0.002495 9.99821 1.47606e-06 -0.00232371 9.99845
1.61611e-06 -0.00216446 9.99866 1.85514e-06 -0.0020164 9.99884 1.78727e-06 -0.00187754 9.99901 1.71186e-06
-0.00174749 9.99914 1.83898e-06 -0.00162652 9.99927 1.89694e-06 -0.00151272 9.99938 1.8895e-06 -0.0014049
9.99948 1.93224e-06 -0.00130313 9.99957 2.4228e-06 -0.00120732 9.99964 3.20216e-06 -0.00111673 9.99971
3.84917e-06 -0.00103071 9.99977 4.39556e-06 -0.000949207 9.99982 5.2101e-06 -0.000871785 9.99987 6.04136e-06
-0.000797533 9.99991 7.04334e-06 -0.000726539 9.99994 8.04619e-06 -0.000659068 9.99997 8.81961e-06 -0.000594207
10 9.83915e-06 -0.000531461 10 1.10055e-05 -0.0004709 10.0001 1.23364e-05 -0.000411958 10.0001
1.36807e-05 -0.000354284 10.0001 1.44209e-05 -0.000297985 10.0001 1.40343e-05 -0.000242451 10.0001 1.29597e-05
-0.000187341 10.0002 1.07316e-05 -0.000133339 10.0002 6.33792e-06 -7.33852e-05 10.0002 3.5887e-06 -4.00315e-05
9.34869 -0.00112346 -0.39626 9.3487 -0.00112344 -0.396229 9.37781 -0.00110925 -0.414218 9.64841
-0.00050186 -0.244245 9.75134 -0.00022303 -0.162091 9.78372 -9.34413e-05 -0.113481 9.81182 -3.46423e-05
-0.0850672 9.83975 -6.73312e-06 -0.0664399 9.8652 6.46961e-06 -0.0530912 9.88741 1.19035e-05 -0.0430139
9.90634 1.36439e-05 -0.0352142 9.92223 1.33569e-05 -0.0291214 9.93538 1.2679e-05 -0.0243272 9.94618
1.20557e-05 -0.0205275 9.95506 1.06048e-05 -0.0174962 9.96238 9.27431e-06 -0.0150555 9.96842 8.54083e-06
-0.0130714 9.97341 7.63682e-06 -0.0114473 9.97754 6.47391e-06 -0.0101057 9.98097 5.55258e-06 -0.00898569
9.98383 4.91962e-06 -0.00804215 9.98621 4.37669e-06 -0.00724066 9.98822 3.79827e-06 -0.00655381 9.9899
3.28258e-06 -0.00596021 9.99132 2.94389e-06 -0.00544229 9.99253 2.50317e-06 -0.00498699 9.99356 2.21251e-06
-0.00458428 9.99443 2.07827e-06 -0.00422575 9.99518 1.86444e-06 -0.00390419 9.99582 1.78427e-06 -0.0036134
9.99638 1.73703e-06 -0.00334981 9.99686 1.67892e-06 -0.00311012 9.99727 1.62124e-06 -0.00289061 9.99763
1.52168e-06 -0.00268849 9.99795 1.4225e-06 -0.0025023 9.99822 1.41518e-06 -0.00233007 9.99846 1.55973e-06
-0.00217004 9.99866 1.81457e-06 -0.00202134 9.99885 1.76127e-06 -0.00188191 9.99901 1.69069e-06 -0.00175133
9.99915 1.8175e-06 -0.00162993 9.99927 1.87557e-06 -0.00151576 9.99938 1.87425e-06 -0.00140761 9.99948
1.91871e-06 -0.00130556 9.99957 2.40518e-06 -0.00120947 9.99964 3.19911e-06 -0.00111865 9.99971 3.85834e-06
-0.00103244 9.99977 4.3965e-06 -0.000950766 9.99982 5.2045e-06 -0.00087318 9.99987 6.03725e-06 -0.000798767
9.99991 7.04342e-06 -0.000727627 9.99995 8.05027e-06 -0.000660035 9.99997 8.83028e-06 -0.00059507 10
9.8621e-06 -0.000532219 10 1.10398e-05 -0.000471555 10.0001 1.23851e-05 -0.000412513 10.0001 1.37275e-05
-0.000354742 10.0001 1.44532e-05 -0.000298345 10.0001 1.40687e-05 -0.000242719 10.0001 1.29972e-05 -0.00018754
10.0002 1.07561e-05 -0.000133465 10.0002 6.33796e-06 -7.34539e-05 10.0002 3.57493e-06 -4.00806e-05 9.75289
-0.000208122 -0.17816 9.75289 -0.000208122 -0.17816 9.75289 -0.000208083 -0.178142 9.78449 -8.00254e-05
-0.123651 9.81226 -2.54169e-05 -0.0917181 9.84014 -9.88332e-07 -0.0709183 9.86557 9.81735e-06 -0.0561804
9.88775 1.3695e-05 -0.045185 9.90664 1.45115e-05 -0.036763 9.92248 1.36954e-05 -0.0302413 9.93559
1.27184e-05 -0.0251488 9.94635 1.19293e-05 -0.02114 9.9552 1.03903e-05 -0.0179596 9.9625 9.03821e-06