/*--------------------------------*- C++ -*----------------------------------*\
  =========                 |
  \\      /  F ield         | OpenFOAM: The Open Source CFD Toolbox
   \\    /   O peration     | Website:  https://openfoam.org
    \\  /    A nd           | Version:  11
     \\/     M anipulation  |
\*---------------------------------------------------------------------------*/
FoamFile
{
    format      ascii;
    class       volScalarField;
    location    "0.016";
    object      k;
}
// * * * * * * * * * * * * * * * * * * * * * * * * * * * * * * * * * * * * * //

dimensions      [0 2 -2 0 0 0 0];

internalField   nonuniform List<scalar> 
287084
(
0.382364
0.387841
0.389032
0.389081
0.389054
0.389053
0.38894
0.388992
0.389092
0.389081
0.389079
0.3889
0.38888
0.389107
0.389277
0.389198
0.389233
0.38929
0.389264
0.389216
0.389178
0.389122
0.389129
0.389123
0.388989
0.389039
0.389152
0.389136
0.389133
0.388926
0.389013
0.38907
0.388863
0.388973
0.389055
0.388938
0.38889
0.389028
0.389097
0.388962
0.389026
0.389041
0.388889
0.388985
0.389053
0.388852
0.388963
0.389038
0.389007
0.389004
0.388929
0.38887
0.388984
0.389083
0.38897
0.389003
0.38901
0.388981
0.388921
0.389072
0.389142
0.38898
0.389061
0.389119
0.3891
0.389123
0.389052
0.389066
0.389071
0.38899
0.388927
0.389075
0.389178
0.389108
0.389089
0.389107
0.389122
0.389089
0.389117
0.38909
0.388994
0.388953
0.388858
0.388945
0.389064
0.3889
0.388987
0.389023
0.38899
0.3889
0.382364
0.387772
0.389138
0.389263
0.38921
0.389201
0.389206
0.389222
0.3892
0.389219
0.389156
0.388943
0.388985
0.389038
0.388838
0.388954
0.389046
0.38887
0.388916
0.389259
0.389322
0.389219
0.389209
0.389231
0.38925
0.389218
0.38923
0.389177
0.389079
0.38909
0.389099
0.388941
0.389031
0.389104
0.388916
0.389022
0.389167
0.389101
0.389109
0.3891
0.389079
0.388917
0.388996
0.389095
0.38906
0.389053
0.388847
0.388927
0.388988
0.388785
0.388896
0.389051
0.389004
0.389026
0.388997
0.389043
0.389066
0.389017
0.389046
0.389061
0.388917
0.388927
0.389054
0.389057
0.38907
0.389067
0.38903
0.389041
0.389008
0.389129
0.38919
0.389136
0.38915
0.389064
0.389102
0.389175
0.389145
0.38912
0.389111
0.388929
0.388957
0.389047
0.388954
0.388963
0.388959
0.388975
0.388866
0.38896
0.389033
0.388815
0.382363
0.387768
0.389134
0.389261
0.389206
0.389215
0.389226
0.389209
0.389184
0.389166
0.389131
0.389096
0.388958
0.389007
0.389114
0.3891
0.389098
0.388919
0.388899
0.389135
0.389259
0.389218
0.389211
0.389218
0.389231
0.389099
0.389065
0.389159
0.389176
0.389091
0.389186
0.389227
0.389086
0.389209
0.389264
0.389152
0.389266
0.389303
0.389225
0.389253
0.389247
0.389261
0.389193
0.389158
0.389135
0.389149
0.389129
0.38909
0.389056
0.388915
0.388958
0.389056
0.389049
0.38903
0.389058
0.389087
0.388926
0.389012
0.389055
0.388949
0.388932
0.389109
0.389224
0.38917
0.389212
0.38916
0.389126
0.389032
0.389082
0.389098
0.388993
0.389017
0.389014
0.389041
0.388998
0.388923
0.38907
0.389176
0.389124
0.389123
0.389131
0.389164
0.389125
0.388984
0.389023
0.389052
0.388925
0.388955
0.38896
0.388827
0.382363
0.387767
0.389114
0.389385
0.389384
0.389348
0.389298
0.389259
0.389257
0.38923
0.389195
0.389177
0.389197
0.389182
0.389147
0.389106
0.38907
0.388992
0.389147
0.389221
0.389108
0.389126
0.389112
0.389124
0.389065
0.389036
0.388955
0.389058
0.389127
0.389121
0.389119
0.38893
0.389046
0.389115
0.388945
0.389044
0.38917
0.389089
0.389128
0.389195
0.389155
0.389073
0.389059
0.389021
0.388992
0.388991
0.388889
0.389002
0.389087
0.389036
0.389055
0.389004
0.389004
0.388976
0.389068
0.389094
0.389019
0.389057
0.389074
0.38904
0.388957
0.389037
0.389243
0.38922
0.389222
0.389221
0.389161
0.389124
0.389115
0.388995
0.389024
0.389098
0.389085
0.389074
0.389115
0.389144
0.389122
0.389121
0.38905
0.389058
0.389001
0.389049
0.389069
0.389026
0.389031
0.388971
0.388977
0.388983
0.388941
0.388825
0.382362
0.387767
0.389116
0.389339
0.389333
0.389291
0.389254
0.389269
0.389289
0.389222
0.389197
0.389121
0.389091
0.389108
0.389128
0.389106
0.389076
0.388953
0.389051
0.38927
0.389208
0.38925
0.38926
0.389225
0.389239
0.389199
0.389053
0.389127
0.389179
0.388996
0.389084
0.38924
0.3892
0.389213
0.389222
0.389228
0.389192
0.389121
0.389083
0.389097
0.389058
0.389077
0.389108
0.389063
0.388935
0.388965
0.389066
0.389043
0.389022
0.389065
0.389092
0.388907
0.389006
0.389114
0.38903
0.389069
0.389147
0.389108
0.389083
0.389089
0.388968
0.389073
0.389135
0.388974
0.389057
0.389089
0.388952
0.389022
0.389128
0.389033
0.38908
0.389153
0.389145
0.389124
0.389092
0.389106
0.389131
0.389074
0.389046
0.388999
0.388927
0.389059
0.389102
0.38908
0.389117
0.389065
0.389035
0.389066
0.389069
0.388856
0.382363
0.387759
0.388899
0.388911
0.388914
0.388846
0.388978
0.389065
0.388948
0.388944
0.388913
0.389083
0.389223
0.389142
0.389181
0.389198
0.389161
0.389133
0.38911
0.389118
0.389113
0.388981
0.389036
0.389085
0.388899
0.389011
0.389154
0.38911
0.389134
0.389097
0.389171
0.389248
0.389214
0.389226
0.389173
0.388968
0.389038
0.389088
0.388901
0.389027
0.389114
0.388956
0.389084
0.389156
0.389021
0.389144
0.389203
0.389145
0.389165
0.389133
0.389007
0.389045
0.389068
0.389062
0.389061
0.388859
0.388939
0.389048
0.38903
0.389027
0.388846
0.388933
0.389046
0.38903
0.389027
0.388891
0.388864
0.389034
0.389246
0.389227
0.389235
0.389228
0.389175
0.389146
0.38916
0.389054
0.389108
0.389133
0.389038
0.389069
0.389121
0.389115
0.389103
0.389117
0.38899
0.388981
0.389018
0.388945
0.388942
0.388833
0.382354
0.387817
0.388924
0.388923
0.388953
0.38895
0.388965
0.388976
0.38892
0.388989
0.389325
0.389432
0.389453
0.38946
0.389464
0.389472
0.389431
0.389388
0.389342
0.389307
0.389324
0.389344
0.389324
0.389285
0.389234
0.389134
0.389061
0.389172
0.389218
0.389189
0.389123
0.389191
0.389229
0.389086
0.389207
0.38926
0.389147
0.389225
0.389274
0.389267
0.389253
0.389218
0.389229
0.389247
0.389179
0.389143
0.389139
0.3891
0.389067
0.389064
0.389096
0.389064
0.389032
0.388913
0.388994
0.389074
0.389042
0.389036
0.388852
0.388934
0.389046
0.388947
0.388997
0.389007
0.388979
0.388859
0.38894
0.389055
0.388963
0.388972
0.388984
0.388908
0.388966
0.389068
0.389009
0.389008
0.388924
0.389067
0.389137
0.389098
0.3891
0.389076
0.389017
0.389045
0.389092
0.389005
0.388989
0.389042
0.389053
0.38885
0.382362
0.387766
0.389111
0.389377
0.389423
0.389431
0.389433
0.389437
0.38944
0.389443
0.389447
0.389452
0.389456
0.389461
0.389465
0.389474
0.389432
0.389392
0.389346
0.38931
0.389324
0.389343
0.389323
0.389285
0.38925
0.389213
0.389089
0.389135
0.389192
0.389083
0.38919
0.389235
0.389093
0.389214
0.389267
0.389153
0.389226
0.38935
0.389351
0.389343
0.389334
0.389331
0.38937
0.389375
0.389333
0.389274
0.389231
0.389213
0.389227
0.389161
0.389129
0.389108
0.389128
0.38906
0.389028
0.389009
0.389021
0.388983
0.388905
0.389023
0.389196
0.389162
0.389167
0.38912
0.38912
0.389029
0.389075
0.38909
0.388989
0.389015
0.389014
0.38902
0.388886
0.38895
0.389059
0.389038
0.389034
0.388852
0.388936
0.389097
0.389116
0.389067
0.388959
0.38895
0.388835
0.388888
0.389016
0.389012
0.389012
0.388841
0.382363
0.387796
0.388929
0.389047
0.389009
0.388923
0.388939
0.388896
0.388972
0.3893
0.389426
0.389448
0.389456
0.389461
0.389469
0.389428
0.389389
0.389342
0.3893
0.389307
0.389321
0.389338
0.3893
0.389262
0.38924
0.389202
0.389087
0.389135
0.389195
0.389086
0.389194
0.389237
0.389094
0.389215
0.389266
0.389153
0.389224
0.389352
0.389354
0.389323
0.389327
0.389296
0.389253
0.389179
0.389142
0.389133
0.389137
0.388992
0.389034
0.389055
0.388912
0.388967
0.388984
0.388845
0.388929
0.389049
0.38903
0.389026
0.388845
0.388931
0.389044
0.389028
0.389025
0.388844
0.388929
0.389091
0.38911
0.389062
0.388954
0.388946
0.388831
0.388829
0.389104
0.389184
0.389135
0.389131
0.389062
0.389029
0.389082
0.389171
0.389158
0.389137
0.389115
0.389128
0.389161
0.389106
0.388915
0.388967
0.389033
0.388815
0.38235
0.387833
0.388896
0.388822
0.388947
0.389021
0.38884
0.388946
0.389091
0.389078
0.389076
0.388898
0.388991
0.389112
0.389099
0.389098
0.388921
0.389015
0.389138
0.389091
0.389084
0.389054
0.388995
0.389058
0.38916
0.389155
0.389138
0.389172
0.389202
0.389035
0.389161
0.389236
0.389103
0.389103
0.389113
0.389119
0.389116
0.389004
0.38903
0.389042
0.388867
0.38897
0.389044
0.388865
0.388959
0.389004
0.388835
0.388936
0.389056
0.388962
0.388983
0.388926
0.388911
0.388833
0.388927
0.388988
0.388805
0.388898
0.38901
0.388903
0.388892
0.388815
0.38892
0.389048
0.388917
0.388931
0.389043
0.389035
0.389001
0.389028
0.388983
0.38885
0.388928
0.388993
0.388811
0.388905
0.389019
0.388954
0.388946
0.388827
0.388919
0.389022
0.388914
0.388903
0.388825
0.388869
0.389072
0.389105
0.38905
0.388865
0.382354
0.387808
0.389002
0.389093
0.389045
0.388892
0.388856
0.389067
0.38933
0.389311
0.389276
0.389269
0.38928
0.389298
0.389249
0.389222
0.389205
0.389171
0.389137
0.389001
0.389051
0.38916
0.389145
0.389143
0.388963
0.389054
0.389171
0.389113
0.389131
0.389108
0.389183
0.389256
0.389221
0.389193
0.389137
0.388962
0.389038
0.389083
0.388893
0.389018
0.389103
0.388945
0.389073
0.389144
0.389008
0.389104
0.389169
0.389106
0.3891
0.388984
0.389036
0.389056
0.388923
0.388984
0.389078
0.389032
0.388872
0.388921
0.389011
0.388904
0.388892
0.388815
0.388933
0.38902
0.388902
0.388896
0.388862
0.389012
0.38924
0.389219
0.389232
0.389181
0.389139
0.3891
0.389073
0.389149
0.389183
0.38916
0.389131
0.389146
0.389171
0.389122
0.389119
0.388978
0.38904
0.389089
0.388969
0.388961
0.38896
0.388857
0.382354
0.387813
0.388967
0.388995
0.389032
0.389088
0.389056
0.388927
0.388987
0.389303
0.389428
0.389451
0.389458
0.389464
0.389469
0.389478
0.389438
0.389397
0.389353
0.38932
0.389318
0.389278
0.389221
0.389188
0.389184
0.38908
0.389137
0.389193
0.389009
0.389087
0.389115
0.388939
0.389049
0.389115
0.388926
0.38905
0.389134
0.388972
0.389098
0.389166
0.389027
0.389148
0.389205
0.389144
0.389166
0.389134
0.389003
0.389039
0.389057
0.38901
0.389002
0.388817
0.388837
0.388997
0.389009
0.389005
0.388983
0.389003
0.388926
0.388958
0.389044
0.389026
0.38903
0.388891
0.388891
0.389022
0.388945
0.389054
0.389097
0.389006
0.388996
0.388873
0.388967
0.38903
0.388909
0.388901
0.388867
0.389044
0.389134
0.389048
0.389065
0.38906
0.3891
0.389046
0.389019
0.389014
0.389028
0.389024
0.389023
0.388859
0.382362
0.387766
0.38911
0.389376
0.389422
0.38943
0.389433
0.389436
0.389439
0.389444
0.389449
0.389453
0.389459
0.389465
0.389471
0.38948
0.389438
0.389403
0.389361
0.389324
0.389333
0.389353
0.389299
0.389265
0.389246
0.389203
0.389105
0.389165
0.389215
0.389102
0.389206
0.389245
0.3891
0.389175
0.389366
0.38933
0.389309
0.389347
0.389292
0.389311
0.38936
0.389329
0.389326
0.389275
0.389216
0.389223
0.389155
0.389122
0.389105
0.389067
0.389022
0.388976
0.388943
0.389093
0.389139
0.389091
0.389108
0.389051
0.389149
0.389183
0.38911
0.389137
0.389098
0.389141
0.389154
0.389034
0.389082
0.389098
0.388991
0.389014
0.389013
0.389019
0.388885
0.388949
0.389058
0.389037
0.389033
0.388852
0.388938
0.389051
0.389035
0.389032
0.388851
0.388936
0.389097
0.389116
0.389068
0.388998
0.388987
0.388815
0.38235
0.387833
0.388896
0.388902
0.388924
0.388896
0.389054
0.389129
0.389044
0.38903
0.388992
0.388913
0.389003
0.389118
0.389105
0.389104
0.388928
0.388915
0.389152
0.389317
0.38924
0.389267
0.389335
0.389322
0.389282
0.389285
0.389151
0.389157
0.389201
0.389102
0.389208
0.389248
0.389101
0.389174
0.389372
0.38934
0.38927
0.389264
0.389263
0.389261
0.389213
0.389145
0.389139
0.389119
0.38908
0.389037
0.388993
0.388916
0.389028
0.389163
0.389109
0.38911
0.389115
0.389109
0.388918
0.388941
0.389029
0.389021
0.389019
0.388883
0.388855
0.38905
0.389127
0.389046
0.389082
0.389022
0.389016
0.38901
0.389036
0.388992
0.38892
0.389058
0.38921
0.389125
0.389156
0.389187
0.389193
0.389169
0.38915
0.389145
0.388977
0.388994
0.389111
0.389065
0.389105
0.389176
0.389136
0.389089
0.389071
0.388865
0.382362
0.387766
0.38911
0.389377
0.389423
0.38943
0.389433
0.389437
0.38944
0.389445
0.389449
0.389454
0.38946
0.389466
0.389473
0.389483
0.389443
0.389408
0.389366
0.389331
0.38933
0.389293
0.389213
0.389198
0.389211
0.389086
0.389163
0.389212
0.389131
0.389113
0.389074
0.388993
0.38907
0.389118
0.388926
0.389049
0.38913
0.388967
0.389091
0.389158
0.389019
0.38914
0.389192
0.389085
0.389098
0.389096
0.389109
0.389126
0.389143
0.389093
0.388935
0.388925
0.389015
0.388989
0.388991
0.388926
0.389007
0.389289
0.389285
0.389255
0.389252
0.389216
0.389163
0.389107
0.389064
0.388986
0.389067
0.389092
0.388989
0.389013
0.389012
0.389019
0.388884
0.388948
0.389058
0.389037
0.389033
0.388851
0.388937
0.389051
0.389034
0.389031
0.388851
0.388938
0.389052
0.388987
0.388982
0.388949
0.388947
0.38881
0.382371
0.387707
0.389095
0.389246
0.38916
0.389158
0.38921
0.389227
0.389175
0.389136
0.389098
0.388961
0.389011
0.389121
0.389108
0.389107
0.388931
0.389028
0.389155
0.389122
0.389101
0.389117
0.38914
0.389115
0.389052
0.389103
0.38917
0.388979
0.389083
0.389231
0.389206
0.389179
0.389218
0.389233
0.389089
0.389083
0.389066
0.38907
0.389062
0.388929
0.388988
0.389037
0.388851
0.388963
0.3891
0.388958
0.389029
0.389082
0.389061
0.38906
0.388981
0.388899
0.389001
0.389308
0.38937
0.389381
0.389383
0.389386
0.389352
0.389309
0.389298
0.38931
0.389247
0.38921
0.3892
0.389197
0.389158
0.389075
0.389129
0.389143
0.389001
0.389066
0.389087
0.389031
0.389026
0.388946
0.38894
0.388894
0.38888
0.389064
0.389117
0.38907
0.389068
0.389018
0.389064
0.389079
0.389044
0.389017
0.388988
0.388836
0.382371
0.387709
0.389078
0.389366
0.38942
0.38943
0.389434
0.389437
0.38944
0.389445
0.38945
0.389456
0.389462
0.389469
0.389476
0.389487
0.389447
0.389411
0.389425
0.389389
0.3893
0.389309
0.389327
0.389264
0.389278
0.389221
0.389177
0.389033
0.389108
0.389163
0.389108
0.389099
0.388953
0.389015
0.389034
0.389004
0.388998
0.388858
0.388969
0.389043
0.388857
0.388979
0.38907
0.388966
0.388968
0.388885
0.388992
0.389047
0.389044
0.389043
0.388887
0.388844
0.388994
0.389307
0.389369
0.38938
0.389373
0.389328
0.3893
0.389309
0.389248
0.389212
0.389198
0.389196
0.389155
0.389109
0.389119
0.389028
0.389059
0.389067
0.388981
0.388973
0.388935
0.388938
0.38885
0.388938
0.389057
0.389037
0.389033
0.388896
0.388866
0.389062
0.389138
0.389085
0.389074
0.38908
0.38909
0.389064
0.389056
0.388866
0.382362
0.387765
0.389111
0.389377
0.389423
0.389431
0.389434
0.389437
0.389441
0.389446
0.389452
0.389456
0.389463
0.389469
0.389477
0.389485
0.389497
0.389458
0.389422
0.389438
0.389398
0.389363
0.389313
0.389279
0.389271
0.389115
0.389168
0.389229
0.389107
0.389139
0.389141
0.389006
0.389077
0.389118
0.388925
0.389046
0.389123
0.388959
0.389083
0.389149
0.389009
0.389122
0.389213
0.389153
0.389149
0.389154
0.389175
0.389139
0.389087
0.388985
0.388918
0.389062
0.389323
0.38937
0.389379
0.389366
0.38932
0.389307
0.389316
0.389255
0.389218
0.389198
0.389214
0.389152
0.389119
0.389123
0.389124
0.389124
0.389071
0.389027
0.388965
0.388935
0.388853
0.388943
0.389056
0.389036
0.389033
0.388851
0.388937
0.38905
0.389023
0.389022
0.388952
0.388942
0.388829
0.388887
0.389017
0.389013
0.389012
0.388841
0.382371
0.387709
0.389078
0.389367
0.38942
0.38943
0.389433
0.389437
0.389442
0.389446
0.389451
0.389457
0.389464
0.389471
0.389481
0.389443
0.389406
0.389421
0.389387
0.389299
0.389311
0.389329
0.389272
0.389242
0.389205
0.389064
0.389127
0.389183
0.388995
0.38912
0.389206
0.389047
0.389089
0.389165
0.389145
0.38913
0.388927
0.388922
0.388996
0.389002
0.388975
0.389003
0.389027
0.38884
0.388931
0.388977
0.38881
0.388924
0.389004
0.388885
0.388877
0.388843
0.388986
0.389301
0.389365
0.389377
0.389381
0.389359
0.389315
0.389306
0.389315
0.389256
0.389219
0.389206
0.389224
0.389154
0.389121
0.389115
0.389113
0.389073
0.389024
0.38902
0.388966
0.388936
0.388936
0.38892
0.389057
0.389098
0.389038
0.389034
0.388921
0.388995
0.389028
0.388984
0.388975
0.388943
0.388884
0.388964
0.389032
0.388814
0.382371
0.387709
0.389077
0.389369
0.389377
0.389339
0.389292
0.389256
0.389254
0.389219
0.389146
0.38915
0.389221
0.389198
0.389175
0.389171
0.389001
0.389068
0.389256
0.389164
0.389228
0.389303
0.389285
0.389278
0.389091
0.389138
0.389192
0.389007
0.389098
0.389139
0.388962
0.389072
0.389131
0.388938
0.389058
0.389137
0.389046
0.389043
0.389041
0.388938
0.388987
0.389027
0.388885
0.388883
0.388868
0.388888
0.388855
0.388847
0.389025
0.389306
0.389361
0.389371
0.389374
0.389375
0.389376
0.389377
0.389378
0.38938
0.389381
0.389383
0.389384
0.389384
0.389386
0.389388
0.389376
0.389331
0.389318
0.389327
0.389257
0.389219
0.389206
0.38922
0.389209
0.389161
0.389126
0.389034
0.389081
0.389101
0.388994
0.389018
0.389017
0.389021
0.388935
0.388897
0.388975
0.389063
0.389021
0.38894
0.388939
0.388837
0.382359
0.387766
0.388948
0.389036
0.389008
0.389034
0.388943
0.388979
0.389027
0.388845
0.38896
0.38911
0.388961
0.389026
0.389056
0.38892
0.388915
0.389134
0.389365
0.389345
0.389356
0.38937
0.389322
0.389288
0.389284
0.389133
0.389191
0.389241
0.389058
0.38916
0.389251
0.389102
0.389206
0.38927
0.389156
0.389232
0.389248
0.389202
0.389199
0.389204
0.389178
0.389129
0.389105
0.389063
0.389025
0.388884
0.388926
0.389024
0.388925
0.388924
0.388933
0.388857
0.388921
0.389024
0.388937
0.38897
0.388913
0.388879
0.388803
0.388912
0.388977
0.388796
0.388902
0.38897
0.388789
0.388867
0.389078
0.389019
0.389073
0.3891
0.389023
0.389024
0.389014
0.38902
0.388886
0.388949
0.389057
0.389037
0.389033
0.388852
0.388938
0.38905
0.388953
0.388949
0.388958
0.388885
0.388949
0.389051
0.389022
0.388931
0.382362
0.387765
0.389111
0.389378
0.389423
0.38943
0.389433
0.389437
0.389441
0.389447
0.389452
0.389461
0.389421
0.389384
0.389396
0.389357
0.389326
0.389275
0.389239
0.389211
0.389157
0.389128
0.389024
0.38911
0.389221
0.389113
0.389111
0.389051
0.389159
0.389194
0.389163
0.38908
0.389102
0.389125
0.389104
0.389055
0.389035
0.389043
0.389048
0.389008
0.389005
0.38902
0.388836
0.388948
0.389084
0.389014
0.38901
0.389025
0.388978
0.388998
0.38926
0.389355
0.389369
0.389372
0.389374
0.389375
0.389377
0.389378
0.389379
0.389381
0.389383
0.389384
0.389385
0.389387
0.389388
0.389389
0.389392
0.38937
0.389325
0.389317
0.389328
0.389257
0.389219
0.389204
0.389216
0.389175
0.389135
0.38913
0.389036
0.389063
0.389126
0.389
0.389078
0.389103
0.388994
0.388996
0.388986
0.389011
0.389003
0.38886
0.382362
0.387766
0.389111
0.389377
0.389423
0.389431
0.389434
0.389437
0.389442
0.389447
0.389452
0.389459
0.389466
0.389474
0.389482
0.389494
0.389458
0.389422
0.389438
0.389402
0.389369
0.389319
0.389285
0.389257
0.38923
0.389132
0.389197
0.389259
0.389142
0.389183
0.389189
0.389122
0.389226
0.389273
0.389156
0.389222
0.38932
0.389282
0.389279
0.389323
0.389283
0.389236
0.389207
0.389157
0.389127
0.389131
0.389109
0.389069
0.388933
0.388992
0.389279
0.389357
0.389368
0.389371
0.389373
0.389375
0.389376
0.389378
0.389379
0.389381
0.389383
0.389383
0.389385
0.389386
0.389388
0.389389
0.38939
0.389391
0.389392
0.389396
0.389354
0.389313
0.389302
0.389312
0.389261
0.389225
0.389224
0.389234
0.389217
0.389126
0.389089
0.38904
0.389098
0.38912
0.389
0.389049
0.389063
0.389034
0.389031
0.388869
0.382357
0.387801
0.388954
0.388971
0.388985
0.389076
0.389085
0.388918
0.38899
0.389029
0.38885
0.388899
0.38923
0.389434
0.389477
0.389491
0.389505
0.389468
0.389433
0.38945
0.389417
0.389329
0.389283
0.389205
0.38926
0.38929
0.389176
0.389183
0.389153
0.389165
0.38905
0.389104
0.389137
0.388939
0.389058
0.389133
0.388966
0.389046
0.389251
0.389239
0.389221
0.389239
0.389212
0.389175
0.389128
0.389051
0.389053
0.389064
0.389017
0.388994
0.388937
0.388905
0.388902
0.388892
0.389027
0.389313
0.389322
0.389287
0.389294
0.389257
0.389222
0.38915
0.389117
0.389111
0.389105
0.389064
0.389018
0.389015
0.388961
0.388932
0.388933
0.388914
0.389049
0.389248
0.389227
0.389231
0.389222
0.389162
0.389128
0.389034
0.389079
0.389093
0.388993
0.389019
0.389018
0.389025
0.388889
0.388966
0.389033
0.388814
0.382362
0.387766
0.38911
0.389377
0.389423
0.389431
0.389433
0.389437
0.38944
0.389399
0.389363
0.389374
0.389336
0.389248
0.389211
0.389212
0.389222
0.389196
0.389141
0.389113
0.38901
0.389114
0.389193
0.38917
0.389146
0.389177
0.389207
0.388995
0.389085
0.389149
0.389113
0.389018
0.389048
0.389071
0.38895
0.38894
0.388819
0.388943
0.389035
0.388856
0.388946
0.388985
0.388813
0.388914
0.388962
0.388775
0.388882
0.389021
0.38889
0.388913
0.388982
0.388968
0.38897
0.388865
0.388914
0.389032
0.388934
0.388936
0.38899
0.388996
0.388956
0.388854
0.388919
0.38898
0.388799
0.388917
0.389014
0.388819
0.388919
0.388981
0.388804
0.388796
0.389012
0.389048
0.388948
0.388947
0.388941
0.388943
0.388827
0.38891
0.389019
0.388942
0.388939
0.388834
0.388931
0.388987
0.388803
0.388914
0.388986
0.388787
0.382362
0.387766
0.38911
0.389377
0.389423
0.389431
0.389433
0.389438
0.389442
0.389447
0.389453
0.38946
0.389466
0.389477
0.389439
0.389403
0.389418
0.389386
0.3893
0.389304
0.389328
0.389293
0.389254
0.389221
0.389073
0.38914
0.3892
0.389015
0.389107
0.38915
0.388951
0.389039
0.389084
0.388868
0.388969
0.389105
0.38908
0.389073
0.388879
0.388968
0.389027
0.3889
0.388885
0.388846
0.388987
0.389111
0.38905
0.389057
0.389069
0.389066
0.388885
0.388933
0.388963
0.388776
0.388885
0.389028
0.388933
0.388944
0.388955
0.388869
0.388932
0.389034
0.38902
0.389017
0.388838
0.388943
0.38902
0.388821
0.388917
0.388988
0.388807
0.388925
0.389021
0.388978
0.388973
0.388841
0.388926
0.388989
0.388852
0.388934
0.389029
0.388943
0.388959
0.38896
0.388975
0.388863
0.388958
0.389031
0.389008
0.388946
0.382362
0.387766
0.38911
0.389377
0.389423
0.389431
0.389434
0.389438
0.389442
0.389446
0.389452
0.389459
0.389466
0.389474
0.389483
0.389492
0.389506
0.389468
0.389433
0.38945
0.389414
0.389381
0.389331
0.389296
0.389323
0.38929
0.389173
0.389211
0.389281
0.389211
0.389207
0.389167
0.389244
0.389276
0.389157
0.389231
0.389247
0.389204
0.38923
0.389167
0.389135
0.389115
0.389068
0.389011
0.388999
0.389036
0.389041
0.388902
0.388861
0.38907
0.38932
0.389362
0.389369
0.389371
0.389373
0.389374
0.389376
0.389378
0.389379
0.389381
0.389382
0.389383
0.389385
0.389386
0.389388
0.389389
0.38939
0.389393
0.38936
0.389316
0.389312
0.389323
0.389257
0.389219
0.389207
0.389221
0.389211
0.389162
0.389127
0.389036
0.389077
0.389094
0.389036
0.389033
0.388953
0.388946
0.388855
0.388955
0.389031
0.388813
0.382362
0.387765
0.389111
0.389377
0.389423
0.389431
0.389434
0.389438
0.389442
0.389447
0.389453
0.389459
0.389467
0.389474
0.389482
0.389494
0.389457
0.389422
0.389438
0.389405
0.389318
0.38933
0.389357
0.389321
0.389319
0.389166
0.389207
0.389251
0.389091
0.389187
0.389259
0.389111
0.389219
0.389274
0.389156
0.389222
0.389321
0.389283
0.389279
0.389323
0.389284
0.389237
0.389207
0.389158
0.389129
0.389132
0.389109
0.389069
0.388934
0.388993
0.389279
0.389357
0.389369
0.389372
0.389373
0.389374
0.389376
0.389378
0.389379
0.389381
0.389383
0.389384
0.389386
0.389386
0.389391
0.389342
0.3893
0.389297
0.38927
0.389228
0.389227
0.389223
0.389224
0.389087
0.389114
0.389151
0.389068
0.389117
0.389188
0.389149
0.389108
0.389104
0.389034
0.389
0.388995
0.389015
0.388936
0.388976
0.388991
0.388816
0.382362
0.387765
0.389111
0.389377
0.389423
0.389431
0.389433
0.389438
0.389441
0.389446
0.389452
0.389461
0.389422
0.389385
0.389393
0.389358
0.389275
0.389228
0.389232
0.389211
0.389153
0.389123
0.389023
0.38911
0.389222
0.389212
0.389192
0.389223
0.389244
0.389208
0.389238
0.389157
0.389123
0.38912
0.389117
0.388947
0.389019
0.389063
0.389044
0.389002
0.389005
0.38902
0.388836
0.388948
0.389084
0.38902
0.389002
0.388976
0.388954
0.389004
0.389252
0.389355
0.389369
0.389372
0.389374
0.389376
0.389377
0.389378
0.389379
0.389381
0.389383
0.389384
0.389385
0.389389
0.389358
0.389316
0.389298
0.389268
0.389225
0.389223
0.389216
0.389242
0.389198
0.389126
0.389218
0.389246
0.389178
0.389172
0.389126
0.389109
0.389068
0.388993
0.389067
0.389089
0.388957
0.389037
0.389061
0.388989
0.388979
0.388831
0.382359
0.387766
0.388948
0.38904
0.389011
0.389041
0.388949
0.388972
0.389086
0.38908
0.38908
0.388903
0.388997
0.389123
0.389046
0.38904
0.388928
0.388932
0.389182
0.389341
0.389265
0.389305
0.389315
0.389284
0.389317
0.389284
0.38917
0.389209
0.389273
0.389204
0.389205
0.389161
0.389235
0.389274
0.389157
0.389222
0.389326
0.3893
0.38925
0.389212
0.389208
0.389164
0.389121
0.3891
0.38906
0.389022
0.388881
0.388924
0.389023
0.388932
0.388966
0.388909
0.388876
0.3888
0.388906
0.38897
0.388788
0.388874
0.389039
0.388956
0.388949
0.388847
0.388922
0.389038
0.389024
0.389022
0.388886
0.388859
0.389025
0.389283
0.389276
0.389248
0.389225
0.389213
0.389173
0.389136
0.389142
0.389139
0.389039
0.389085
0.389175
0.389087
0.389095
0.389105
0.389113
0.389118
0.388968
0.38898
0.388992
0.388816
0.382371
0.387707
0.389095
0.389245
0.38916
0.389165
0.389208
0.389216
0.389174
0.389136
0.389099
0.388963
0.389029
0.389102
0.389074
0.389071
0.388919
0.389073
0.38919
0.389148
0.389122
0.389136
0.38916
0.389134
0.389068
0.38912
0.389186
0.388995
0.389112
0.389209
0.389039
0.389138
0.389265
0.389253
0.389256
0.389169
0.389166
0.389162
0.38915
0.388951
0.388985
0.389027
0.388885
0.388883
0.388868
0.388888
0.388854
0.388846
0.389049
0.389149
0.389023
0.389097
0.38912
0.389011
0.389089
0.38932
0.389375
0.389331
0.389291
0.389255
0.389218
0.389201
0.389217
0.389152
0.389118
0.389122
0.389123
0.389123
0.389071
0.389027
0.388965
0.388935
0.388854
0.388944
0.389056
0.389036
0.389032
0.38885
0.388936
0.38905
0.388917
0.388913
0.388913
0.388922
0.3889
0.388886
0.388889
0.388872
0.388872
0.388792
0.382371
0.387707
0.389094
0.389245
0.389159
0.389159
0.389212
0.389227
0.389175
0.389137
0.389099
0.388963
0.389028
0.389101
0.389035
0.389031
0.388914
0.38907
0.389188
0.389166
0.389163
0.388986
0.389081
0.389135
0.388953
0.389082
0.389179
0.388991
0.389109
0.389207
0.389056
0.389139
0.389165
0.389117
0.389117
0.389045
0.389075
0.389136
0.389094
0.388914
0.388972
0.389025
0.388843
0.388935
0.388983
0.388945
0.388893
0.388915
0.38922
0.389351
0.38937
0.389374
0.389375
0.38938
0.389331
0.389285
0.389316
0.389371
0.389382
0.389373
0.389328
0.389304
0.389312
0.389259
0.389224
0.389202
0.389215
0.389205
0.389157
0.389122
0.389029
0.389071
0.389089
0.389031
0.389028
0.38895
0.388944
0.388852
0.388939
0.389058
0.388964
0.389
0.388942
0.388914
0.388835
0.388934
0.388997
0.388882
0.38888
0.388782
0.382362
0.387765
0.38911
0.389377
0.389423
0.389431
0.389434
0.389437
0.389441
0.389445
0.38945
0.389457
0.389463
0.38947
0.389477
0.389485
0.389497
0.389458
0.389421
0.389437
0.389398
0.389364
0.389313
0.389278
0.389274
0.38913
0.389193
0.389236
0.389068
0.389195
0.389261
0.389118
0.389186
0.389344
0.389327
0.389248
0.389289
0.389329
0.389282
0.389314
0.389319
0.389328
0.389265
0.389219
0.389146
0.38911
0.389121
0.389135
0.389101
0.389047
0.388948
0.389046
0.389318
0.389369
0.389379
0.389374
0.389327
0.38931
0.389318
0.389256
0.389219
0.389199
0.389215
0.389152
0.389119
0.389123
0.389125
0.389124
0.389071
0.389027
0.388965
0.388935
0.388854
0.388943
0.389056
0.389036
0.389033
0.388851
0.388935
0.389096
0.389114
0.389066
0.388958
0.388949
0.388834
0.388887
0.389016
0.389013
0.389012
0.388841
0.382371
0.387709
0.389078
0.389367
0.389421
0.38943
0.389434
0.389437
0.389441
0.389445
0.38945
0.389456
0.389462
0.389469
0.389476
0.389484
0.389494
0.389456
0.389419
0.389433
0.389398
0.38931
0.389314
0.389336
0.389299
0.389302
0.389164
0.389169
0.389211
0.389112
0.389217
0.389253
0.389105
0.389174
0.389373
0.389345
0.389309
0.389339
0.389282
0.389303
0.389356
0.389318
0.38932
0.389261
0.389218
0.389146
0.389112
0.389095
0.389057
0.389015
0.388972
0.388944
0.389098
0.389336
0.389331
0.389293
0.38924
0.389204
0.389277
0.389374
0.389388
0.389343
0.389304
0.389313
0.389249
0.389205
0.389195
0.389188
0.389157
0.389155
0.389172
0.389088
0.389065
0.38908
0.38904
0.389009
0.389039
0.389065
0.389019
0.389012
0.388943
0.389029
0.389067
0.388942
0.389022
0.389049
0.388894
0.388975
0.389035
0.388815
0.382371
0.387709
0.389078
0.38937
0.389377
0.389341
0.389314
0.389276
0.389297
0.389308
0.389172
0.389137
0.389152
0.389138
0.389151
0.389145
0.389006
0.389047
0.389154
0.389145
0.389145
0.388969
0.389064
0.389116
0.388937
0.389068
0.389166
0.388989
0.389085
0.389132
0.389091
0.389026
0.389101
0.389168
0.389151
0.389145
0.388927
0.389009
0.389061
0.388872
0.388995
0.389084
0.388966
0.388998
0.389002
0.388965
0.388912
0.389042
0.389093
0.389066
0.38909
0.38899
0.389093
0.389333
0.389378
0.389338
0.389291
0.389326
0.389276
0.389248
0.389294
0.389308
0.38932
0.389262
0.389226
0.389199
0.389237
0.389195
0.389124
0.389217
0.389244
0.389213
0.389218
0.389182
0.389154
0.389123
0.389128
0.389042
0.389078
0.389096
0.388958
0.388977
0.389092
0.389083
0.38895
0.389028
0.389068
0.389009
0.388999
0.38882
0.382362
0.387766
0.38911
0.389377
0.389422
0.38943
0.389433
0.389436
0.38944
0.389445
0.38945
0.389454
0.38946
0.389467
0.389473
0.38948
0.38949
0.389451
0.389413
0.389427
0.38939
0.3893
0.389253
0.389173
0.389214
0.389252
0.389171
0.389186
0.389208
0.389187
0.389022
0.389085
0.38913
0.388937
0.38906
0.389141
0.388978
0.389102
0.389167
0.389027
0.389147
0.389199
0.389087
0.389171
0.389202
0.389175
0.389147
0.389115
0.389099
0.389061
0.389019
0.388977
0.388949
0.38911
0.389254
0.389198
0.389208
0.389203
0.389229
0.389218
0.38921
0.389153
0.38917
0.389196
0.389169
0.38918
0.389136
0.389121
0.389093
0.389064
0.388983
0.388942
0.38885
0.388938
0.389056
0.389037
0.389033
0.388851
0.388937
0.389051
0.389034
0.389031
0.38885
0.388938
0.389051
0.388987
0.388982
0.388948
0.388946
0.38881
0.38236
0.387811
0.388891
0.388991
0.388956
0.388927
0.388863
0.388917
0.389039
0.388939
0.388945
0.388919
0.389067
0.38939
0.38946
0.38948
0.389441
0.389407
0.389364
0.389328
0.389326
0.389291
0.389209
0.389183
0.389196
0.389089
0.389171
0.389219
0.389053
0.38918
0.38925
0.389109
0.389184
0.389381
0.389349
0.389322
0.389356
0.389299
0.389327
0.389336
0.389295
0.389301
0.389254
0.389224
0.389176
0.389138
0.389001
0.389035
0.389057
0.388959
0.388999
0.389081
0.389057
0.389021
0.389007
0.388847
0.388868
0.389005
0.388957