/*--------------------------------*- C++ -*----------------------------------*\
  =========                 |
  \\      /  F ield         | OpenFOAM: The Open Source CFD Toolbox
   \\    /   O peration     | Website:  https://openfoam.org
    \\  /    A nd           | Version:  11
     \\/     M anipulation  |
\*---------------------------------------------------------------------------*/
FoamFile
{
    format      ascii;
    class       volScalarField;
    location    "0.016";
    object      nut;
}
// * * * * * * * * * * * * * * * * * * * * * * * * * * * * * * * * * * * * * //

dimensions      [0 2 -1 0 0 0 0];

internalField   nonuniform List<scalar> 
287084
(
0.000838516
0.000851015
0.000854053
0.000854402
0.00085441
0.000854438
0.000854191
0.000854294
0.000854494
0.000854435
0.000854391
0.000853952
0.000853857
0.000854304
0.000854624
0.000854393
0.000854414
0.000854483
0.000854375
0.000854217
0.000854088
0.000853924
0.00085391
0.000853871
0.000853554
0.000853657
0.000853899
0.000853857
0.000853868
0.000853464
0.000853715
0.000853894
0.000853503
0.000853816
0.000854071
0.000853894
0.000853868
0.000854255
0.000854487
0.000854271
0.000854488
0.000854596
0.000854331
0.000854605
0.000854813
0.000854426
0.000854717
0.000854925
0.000854895
0.00085492
0.000854781
0.000854676
0.000854936
0.000855152
0.000854904
0.000854969
0.000855005
0.000854959
0.000854819
0.000855141
0.000855283
0.000854939
0.000855124
0.000855232
0.000855197
0.000855251
0.000855081
0.000855117
0.00085513
0.000854949
0.000854801
0.000855129
0.000855359
0.000855195
0.000855151
0.000855187
0.000855225
0.000855155
0.000855202
0.000855149
0.00085494
0.000854844
0.000854633
0.000854822
0.000855079
0.000854714
0.000854902
0.00085498
0.000854898
0.00085468
0.00118505
0.00120213
0.00120647
0.00120693
0.00120676
0.00120672
0.00120673
0.00120675
0.00120664
0.00120664
0.00120638
0.00120565
0.00120572
0.0012058
0.00120511
0.00120539
0.00120559
0.00120497
0.00120504
0.00120603
0.00120616
0.00120578
0.0012057
0.00120574
0.00120577
0.00120566
0.00120569
0.00120554
0.00120528
0.00120536
0.00120545
0.00120504
0.0012054
0.00120573
0.00120525
0.0012057
0.00120626
0.00120617
0.00120631
0.0012064
0.00120644
0.00120605
0.00120639
0.00120679
0.00120676
0.00120681
0.00120624
0.00120655
0.00120679
0.00120621
0.00120659
0.00120711
0.00120699
0.00120708
0.00120701
0.00120716
0.00120724
0.00120709
0.00120719
0.00120723
0.00120679
0.00120681
0.00120721
0.00120722
0.00120725
0.00120724
0.00120713
0.00120715
0.00120704
0.00120742
0.0012076
0.00120743
0.00120747
0.0012072
0.00120731
0.00120753
0.00120743
0.00120735
0.00120732
0.00120674
0.00120683
0.0012071
0.00120681
0.00120683
0.00120682
0.00120686
0.00120652
0.00120681
0.00120703
0.00120635
0.00118512
0.00120224
0.00120654
0.00120699
0.0012068
0.0012068
0.00120681
0.00120672
0.00120659
0.00120648
0.00120631
0.00120613
0.00120563
0.00120571
0.00120595
0.00120583
0.00120574
0.00120511
0.00120496
0.00120563
0.00120595
0.00120576
0.00120569
0.00120567
0.00120568
0.00120526
0.00120516
0.00120548
0.00120556
0.00120535
0.0012057
0.00120591
0.00120556
0.00120605
0.00120633
0.0012061
0.00120657
0.0012068
0.00120668
0.00120688
0.00120698
0.00120713
0.00120701
0.00120699
0.00120701
0.00120713
0.00120713
0.00120707
0.00120702
0.00120662
0.0012068
0.00120713
0.00120714
0.0012071
0.00120721
0.00120732
0.00120683
0.0012071
0.00120724
0.00120691
0.00120686
0.00120741
0.00120776
0.00120759
0.00120772
0.00120755
0.00120744
0.00120714
0.00120729
0.00120733
0.001207
0.00120707
0.00120705
0.00120713
0.00120698
0.00120675
0.0012072
0.00120752
0.00120736
0.00120734
0.00120737
0.00120746
0.00120734
0.0012069
0.00120701
0.0012071
0.0012067
0.0012068
0.00120681
0.00120639
0.00118515
0.00120232
0.00120658
0.00120745
0.0012074
0.00120725
0.00120706
0.00120689
0.00120683
0.00120668
0.00120652
0.00120638
0.00120637
0.00120624
0.00120605
0.00120584
0.00120564
0.00120532
0.00120572
0.00120587
0.00120545
0.00120544
0.00120535
0.00120534
0.00120514
0.00120504
0.00120479
0.00120513
0.00120538
0.00120541
0.00120548
0.00120497
0.00120543
0.00120575
0.00120533
0.00120576
0.00120627
0.00120615
0.00120639
0.00120672
0.00120671
0.00120656
0.00120662
0.00120659
0.00120658
0.00120666
0.00120641
0.00120682
0.00120713
0.00120702
0.00120712
0.00120699
0.00120702
0.00120695
0.00120725
0.00120735
0.00120712
0.00120725
0.0012073
0.0012072
0.00120694
0.00120719
0.00120783
0.00120775
0.00120775
0.00120774
0.00120755
0.00120743
0.00120739
0.00120701
0.00120709
0.00120732
0.00120727
0.00120723
0.00120735
0.00120744
0.00120736
0.00120735
0.00120712
0.00120714
0.00120696
0.00120711
0.00120717
0.00120703
0.00120704
0.00120685
0.00120686
0.00120689
0.00120675
0.00120638
0.00118516
0.00120236
0.00120664
0.00120735
0.00120728
0.00120711
0.00120694
0.00120693
0.00120694
0.00120666
0.00120652
0.00120621
0.00120604
0.001206
0.00120598
0.00120582
0.00120565
0.00120518
0.0012054
0.00120599
0.00120573
0.0012058
0.00120577
0.00120562
0.00120563
0.0012055
0.00120505
0.0012053
0.00120551
0.001205
0.00120534
0.00120592
0.00120589
0.00120605
0.0012062
0.00120634
0.00120636
0.00120627
0.00120627
0.00120644
0.00120643
0.0012066
0.0012068
0.00120675
0.00120644
0.00120661
0.00120699
0.00120697
0.00120696
0.00120714
0.00120725
0.00120671
0.00120704
0.0012074
0.00120715
0.00120728
0.00120754
0.00120742
0.00120734
0.00120736
0.00120699
0.00120731
0.0012075
0.00120699
0.00120725
0.00120734
0.00120691
0.00120711
0.00120744
0.00120713
0.00120727
0.00120749
0.00120746
0.00120739
0.00120728
0.00120732
0.00120739
0.00120721
0.00120712
0.00120696
0.00120674
0.00120714
0.00120727
0.0012072
0.00120731
0.00120714
0.00120705
0.00120714
0.00120715
0.00120648
0.00118517
0.00120236
0.001206
0.00120606
0.00120602
0.00120575
0.0012061
0.00120632
0.00120589
0.00120581
0.00120564
0.00120608
0.00120644
0.0012061
0.00120613
0.00120609
0.00120588
0.00120571
0.00120555
0.00120549
0.0012054
0.00120492
0.00120503
0.00120514
0.00120454
0.00120487
0.00120532
0.00120521
0.00120532
0.00120527
0.00120558
0.00120592
0.00120592
0.00120608
0.00120604
0.00120554
0.00120589
0.00120618
0.00120573
0.00120625
0.00120664
0.00120626
0.00120676
0.00120708
0.00120674
0.0012072
0.00120745
0.00120732
0.00120744
0.00120738
0.00120702
0.00120717
0.00120726
0.00120726
0.00120727
0.00120665
0.00120691
0.00120725
0.00120719
0.00120718
0.00120662
0.00120689
0.00120723
0.00120718
0.00120716
0.00120673
0.00120664
0.00120716
0.00120781
0.00120774
0.00120776
0.00120773
0.00120756
0.00120746
0.00120749
0.00120716
0.00120732
0.00120739
0.00120709
0.00120718
0.00120734
0.00120732
0.00120727
0.00120731
0.00120692
0.00120688
0.00120699
0.00120676
0.00120675
0.0012064
0.00118515
0.00120255
0.00120609
0.00120611
0.00120615
0.00120609
0.00120608
0.00120604
0.00120581
0.00120595
0.00120692
0.00120716
0.00120714
0.00120707
0.00120699
0.00120692
0.0012067
0.00120647
0.00120623
0.00120603
0.00120601
0.001206
0.00120587
0.00120571
0.00120552
0.0012052
0.00120497
0.00120534
0.00120553
0.00120551
0.00120539
0.00120571
0.00120595
0.00120563
0.00120614
0.00120645
0.00120624
0.00120663
0.00120692
0.00120703
0.00120711
0.00120712
0.00120725
0.0012074
0.00120728
0.00120724
0.00120729
0.00120722
0.00120717
0.0012072
0.00120733
0.00120726
0.00120718
0.00120682
0.00120708
0.00120734
0.00120725
0.00120723
0.00120666
0.00120691
0.00120725
0.00120694
0.00120709
0.00120711
0.00120702
0.00120664
0.00120688
0.00120723
0.00120693
0.00120695
0.00120698
0.00120674
0.00120691
0.00120722
0.00120703
0.00120702
0.00120675
0.00120719
0.0012074
0.00120727
0.00120727
0.0012072
0.00120701
0.00120709
0.00120723
0.00120696
0.0012069
0.00120707
0.0012071
0.00120646
0.00118517
0.0012024
0.00120668
0.00120753
0.00120762
0.00120759
0.00120754
0.00120748
0.00120743
0.00120735
0.00120729
0.00120721
0.00120714
0.00120706
0.00120697
0.0012069
0.00120667
0.00120644
0.0012062
0.001206
0.00120595
0.00120593
0.00120581
0.00120564
0.0012055
0.00120537
0.00120499
0.00120517
0.00120539
0.00120514
0.00120556
0.00120582
0.0012055
0.00120602
0.00120633
0.00120613
0.00120651
0.00120704
0.00120719
0.0012073
0.00120741
0.00120751
0.00120774
0.00120785
0.0012078
0.00120769
0.00120762
0.00120762
0.00120771
0.00120754
0.00120747
0.00120743
0.00120751
0.00120731
0.00120722
0.00120716
0.0012072
0.00120709
0.00120684
0.0012072
0.00120773
0.00120762
0.00120763
0.00120748
0.00120746
0.00120717
0.00120731
0.00120734
0.00120702
0.00120709
0.00120708
0.00120709
0.00120667
0.00120686
0.00120719
0.00120711
0.0012071
0.00120652
0.00120678
0.00120727
0.00120732
0.00120717
0.00120683
0.0012068
0.00120644
0.0012066
0.00120699
0.00120698
0.00120697
0.00120643
0.00118518
0.00120249
0.00120613
0.00120652
0.00120635
0.00120603
0.00120602
0.00120582
0.00120598
0.00120691
0.00120722
0.0012072
0.00120712
0.00120704
0.00120696
0.00120672
0.0012065
0.00120624
0.00120601
0.00120594
0.00120588
0.00120586
0.00120567
0.0012055
0.00120539
0.00120526
0.00120491
0.0012051
0.00120534
0.00120509
0.00120552
0.00120579
0.00120548
0.00120601
0.00120633
0.00120614
0.00120653
0.00120708
0.00120724
0.00120729
0.00120743
0.00120746
0.00120743
0.0012073
0.00120727
0.00120731
0.00120738
0.00120699
0.00120716
0.00120726
0.00120684
0.00120703
0.0012071
0.00120667
0.00120694
0.00120732
0.00120726
0.00120724
0.00120667
0.00120694
0.00120728
0.00120722
0.0012072
0.00120663
0.00120688
0.00120738
0.00120743
0.00120726
0.00120692
0.00120688
0.00120652
0.0012065
0.00120735
0.00120759
0.00120742
0.00120741
0.00120718
0.00120708
0.00120723
0.0012075
0.00120746
0.00120739
0.00120731
0.00120734
0.00120744
0.00120726
0.00120666
0.00120683
0.00120703
0.00120634
0.00118514
0.00120261
0.00120604
0.00120583
0.00120616
0.00120634
0.00120571
0.00120597
0.00120634
0.00120622
0.00120613
0.00120548
0.00120567
0.00120593
0.00120579
0.00120567
0.00120501
0.00120519
0.00120546
0.00120521
0.00120508
0.0012049
0.00120464
0.00120478
0.00120506
0.00120503
0.00120499
0.00120514
0.00120529
0.00120486
0.00120537
0.00120574
0.00120548
0.00120565
0.00120586
0.00120605
0.00120622
0.00120604
0.00120628
0.00120647
0.00120606
0.00120651
0.00120685
0.00120639
0.00120676
0.00120697
0.00120651
0.00120687
0.00120728
0.00120702
0.00120711
0.00120694
0.00120691
0.00120667
0.00120697
0.00120716
0.00120659
0.00120687
0.00120721
0.00120687
0.00120682
0.00120657
0.00120689
0.00120728
0.00120686
0.00120689
0.00120723
0.00120719
0.00120707
0.00120715
0.00120699
0.00120657
0.0012068
0.001207
0.00120643
0.00120671
0.00120705
0.00120685
0.00120681
0.00120644
0.00120672
0.00120703
0.00120669
0.00120665
0.00120641
0.00120654
0.00120717
0.00120727
0.00120709
0.00120651
0.00118515
0.00120254
0.00120637
0.00120668
0.00120647
0.00120594
0.00120576
0.00120634
0.00120708
0.00120694
0.00120674
0.00120662
0.00120655
0.00120649
0.00120622
0.00120602
0.00120585
0.00120562
0.00120539
0.00120486
0.00120491
0.00120515
0.00120502
0.00120496
0.00120436
0.00120463
0.001205
0.00120486
0.00120499
0.00120502
0.00120539
0.00120576
0.00120583
0.00120592
0.00120594
0.00120559
0.00120601
0.00120633
0.00120591
0.00120645
0.00120686
0.00120649
0.001207
0.00120732
0.00120698
0.00120735
0.0012076
0.00120745
0.00120747
0.00120714
0.00120732
0.00120739
0.00120699
0.00120718
0.00120747
0.00120733
0.00120682
0.00120696
0.00120724
0.00120689
0.00120684
0.00120659
0.00120695
0.0012072
0.00120682
0.00120679
0.00120667
0.00120713
0.00120782
0.00120774
0.00120777
0.0012076
0.00120746
0.00120733
0.00120724
0.00120747
0.00120757
0.00120749
0.00120739
0.00120743
0.0012075
0.00120735
0.00120733
0.00120689
0.00120708
0.00120723
0.00120685
0.00120682
0.00120681
0.00120648
0.00118515
0.00120255
0.00120626
0.00120638
0.00120643
0.00120655
0.00120639
0.00120591
0.00120602
0.0012069
0.00120719
0.00120716
0.00120707
0.00120697
0.00120687
0.00120678
0.00120652
0.00120627
0.001206
0.00120578
0.00120566
0.00120543
0.00120517
0.001205
0.00120494
0.00120461
0.0012048
0.00120502
0.00120453
0.00120489
0.00120512
0.00120474
0.00120527
0.00120567
0.00120529
0.00120588
0.00120634
0.00120603
0.0012066
0.00120698
0.00120669
0.0012072
0.00120748
0.00120739
0.00120754
0.00120751
0.00120716
0.00120731
0.0012074
0.00120727
0.00120726
0.0012067
0.00120677
0.00120726
0.0012073
0.00120728
0.0012072
0.00120725
0.001207
0.00120708
0.00120733
0.00120726
0.00120726
0.00120681
0.0012068
0.00120719
0.00120694
0.00120727
0.00120739
0.00120709
0.00120705
0.00120665
0.00120693
0.00120712
0.00120673
0.0012067
0.00120659
0.00120713
0.0012074
0.00120713
0.00120717
0.00120715
0.00120727
0.0012071
0.00120701
0.00120699
0.00120703
0.00120701
0.001207
0.00120648
0.00118518
0.00120241
0.00120671
0.00120756
0.00120765
0.00120761
0.00120755
0.00120748
0.00120741
0.00120733
0.00120724
0.00120715
0.00120705
0.00120695
0.00120684
0.00120674
0.00120647
0.00120623
0.00120596
0.00120572
0.00120562
0.00120557
0.00120531
0.00120514
0.00120503
0.00120488
0.0012046
0.00120484
0.00120509
0.00120486
0.00120535
0.00120565
0.0012054
0.00120585
0.00120667
0.00120678
0.00120692
0.00120724
0.00120726
0.00120749
0.0012078
0.00120783
0.00120794
0.00120787
0.00120777
0.00120785
0.0012077
0.00120763
0.00120761
0.00120751
0.00120738
0.00120724
0.00120714
0.0012076
0.00120774
0.00120757
0.00120761
0.00120742
0.00120771
0.0012078
0.00120756
0.00120763
0.00120749
0.00120761
0.00120763
0.00120724
0.00120738
0.00120741
0.00120706
0.00120712
0.00120711
0.00120711
0.00120669
0.00120687
0.0012072
0.00120713
0.00120711
0.00120654
0.0012068
0.00120714
0.00120708
0.00120707
0.0012065
0.00120676
0.00120726
0.00120731
0.00120716
0.00120694
0.0012069
0.00120635
0.00118514
0.00120262
0.00120605
0.00120609
0.0012061
0.00120596
0.00120637
0.00120653
0.00120618
0.00120603
0.00120582
0.00120546
0.00120562
0.00120585
0.00120567
0.00120552
0.00120484
0.00120466
0.00120525
0.00120562
0.00120525
0.00120522
0.00120532
0.00120521
0.00120504
0.00120503
0.00120464
0.00120472
0.00120496
0.0012048
0.0012053
0.00120562
0.00120539
0.00120585
0.0012067
0.00120684
0.00120684
0.00120704
0.00120724
0.0012074
0.00120741
0.00120734
0.00120743
0.00120747
0.00120742
0.00120735
0.00120726
0.00120706
0.00120743
0.00120786
0.0012077
0.00120771
0.00120772
0.00120769
0.00120709
0.00120714
0.0012074
0.00120736
0.00120733
0.00120689
0.00120679
0.00120738
0.0012076
0.00120733
0.00120742
0.00120722
0.00120718
0.00120715
0.00120721
0.00120706
0.00120682
0.00120724
0.0012077
0.00120742
0.00120751
0.0012076
0.00120761
0.00120752
0.00120746
0.00120743
0.00120691
0.00120695
0.00120731
0.00120716
0.00120728
0.0012075
0.00120737
0.00120722
0.00120716
0.00120651
0.00118518
0.00120241
0.00120671
0.00120756
0.00120765
0.0012076
0.00120755
0.00120747
0.0012074
0.00120731
0.00120722
0.00120712
0.00120701
0.00120689
0.00120677
0.00120666
0.00120638
0.00120612
0.00120584
0.00120558
0.00120544
0.0012052
0.00120485
0.00120472
0.00120471
0.00120431
0.00120458
0.0012048
0.00120466
0.00120476
0.00120482
0.00120479
0.00120527
0.00120567
0.00120533
0.00120597
0.00120646
0.00120618
0.00120677
0.00120716
0.00120689
0.0012074
0.00120768
0.00120744
0.00120756
0.00120761
0.00120769
0.00120777
0.00120785
0.0012077
0.00120722
0.00120718
0.00120745
0.00120736
0.00120735
0.00120713
0.00120736
0.00120822
0.00120818
0.00120807
0.00120804
0.00120791
0.00120772
0.00120753
0.00120738
0.00120711
0.00120735
0.00120741
0.00120707
0.00120713
0.00120712
0.00120712
0.00120669
0.00120688
0.00120721
0.00120713
0.00120711
0.00120654
0.0012068
0.00120714
0.00120709
0.00120707
0.0012065
0.00120677
0.00120712
0.00120691
0.00120689
0.00120679
0.00120677
0.00120634
0.00118521
0.00120222
0.00120666
0.00120715
0.00120683
0.00120676
0.00120685
0.00120682
0.00120657
0.00120634
0.00120611
0.00120557
0.00120559
0.00120579
0.0012056
0.00120544
0.00120474
0.00120488
0.00120511
0.00120486
0.00120464
0.00120456
0.00120452
0.00120436
0.00120411
0.00120426
0.00120449
0.00120398
0.00120443
0.00120505
0.00120518
0.00120534
0.00120572
0.00120603
0.00120586
0.00120611
0.00120631
0.00120655
0.00120674
0.00120652
0.00120687
0.00120716
0.0012067
0.00120714
0.00120764
0.00120725
0.00120751
0.0012077
0.00120766
0.00120766
0.00120741
0.00120715
0.00120745
0.00120839
0.00120856
0.00120858
0.00120856
0.00120855
0.00120842
0.00120826
0.0012082
0.00120822
0.001208
0.00120786
0.00120781
0.00120778
0.00120764
0.00120737
0.00120752
0.00120754
0.00120709
0.00120728
0.00120733
0.00120714
0.00120711
0.00120685
0.00120683
0.00120668
0.00120662
0.00120719
0.00120735
0.00120719
0.00120718
0.00120702
0.00120716
0.0012072
0.00120709
0.001207
0.0012069
0.00120642
0.00118521
0.00120223
0.00120661
0.00120753
0.00120763
0.0012076
0.00120754
0.00120747
0.00120738
0.00120729
0.00120719
0.00120708
0.00120697
0.00120684
0.00120671
0.00120658
0.00120629
0.00120601
0.00120588
0.00120561
0.00120518
0.00120506
0.001205
0.00120471
0.0012047
0.00120452
0.00120441
0.00120406
0.00120443
0.00120478
0.00120483
0.00120506
0.00120488
0.00120536
0.0012057
0.0012059
0.00120614
0.00120596
0.00120652
0.00120694
0.00120653
0.00120706
0.00120745
0.00120722
0.0012073
0.00120709
0.00120746
0.00120766
0.00120766
0.00120766
0.00120717
0.00120702
0.00120747
0.00120842
0.0012086
0.0012086
0.00120856
0.00120839
0.00120828
0.00120828
0.00120807
0.00120793
0.00120786
0.00120783
0.00120768
0.00120752
0.00120753
0.00120723
0.00120731
0.00120731
0.00120703
0.00120699
0.00120686
0.00120686
0.00120657
0.00120683
0.00120719
0.00120712
0.0012071
0.00120667
0.00120657
0.00120717
0.0012074
0.00120723
0.00120719
0.0012072
0.00120723
0.00120715
0.00120712
0.00120652
0.00118518
0.00120241
0.00120671
0.00120756
0.00120764
0.0012076
0.00120754
0.00120746
0.00120737
0.00120728
0.00120718
0.00120707
0.00120694
0.00120681
0.00120668
0.00120653
0.00120639
0.0012061
0.0012058
0.00120567
0.00120539
0.00120514
0.00120486
0.00120466
0.00120458
0.00120409
0.0012043
0.00120458
0.00120436
0.00120464
0.00120489
0.00120474
0.00120526
0.00120569
0.00120539
0.00120606
0.00120658
0.00120632
0.00120694
0.00120734
0.00120708
0.00120757
0.00120797
0.00120787
0.00120793
0.001208
0.00120809
0.001208
0.00120785
0.00120753
0.00120731
0.00120774
0.00120854
0.00120866
0.00120866
0.00120859
0.00120842
0.00120835
0.00120835
0.00120813
0.00120799
0.0012079
0.00120793
0.00120771
0.00120758
0.00120757
0.00120755
0.00120753
0.00120735
0.0012072
0.00120699
0.00120688
0.00120661
0.00120688
0.00120721
0.00120714
0.00120712
0.00120655
0.00120681
0.00120715
0.00120706
0.00120705
0.00120682
0.00120678
0.00120642
0.0012066
0.001207
0.00120698
0.00120697
0.00120643
0.00118521
0.00120223
0.00120661
0.00120752
0.00120763
0.0012076
0.00120753
0.00120745
0.00120737
0.00120727
0.00120717
0.00120705
0.00120692
0.00120679
0.00120665
0.00120636
0.00120606
0.00120592
0.00120563
0.00120517
0.00120504
0.00120494
0.00120464
0.00120445
0.00120428
0.00120384
0.00120408
0.00120436
0.00120394
0.00120453
0.00120506
0.00120485
0.00120529
0.00120584
0.0012061
0.00120636
0.00120601
0.00120626
0.00120672
0.00120695
0.00120704
0.00120727
0.00120746
0.00120697
0.00120732
0.00120751
0.00120702
0.00120739
0.00120764
0.00120726
0.00120723
0.0012071
0.00120752
0.00120848
0.00120865
0.00120865
0.00120863
0.00120853
0.00120837
0.00120831
0.00120831
0.00120809
0.00120795
0.00120788
0.00120792
0.00120768
0.00120755
0.00120751
0.00120749
0.00120735
0.00120718
0.00120715
0.00120696
0.00120686
0.00120684
0.00120678
0.0012072
0.00120732
0.00120712
0.0012071
0.00120674
0.00120696
0.00120706
0.00120692
0.00120689
0.00120678
0.00120659
0.00120684
0.00120705
0.00120636
0.00118521
0.00120223
0.00120661
0.00120753
0.0012075
0.00120731
0.00120709
0.00120689
0.00120678
0.00120655
0.00120621
0.00120608
0.00120615
0.00120592
0.00120567
0.00120548
0.00120476
0.00120478
0.00120517
0.0012047
0.00120472
0.00120479
0.0012046
0.00120448
0.00120385
0.00120399
0.00120421
0.00120375
0.0012042
0.00120455
0.00120427
0.0012049
0.00120541
0.00120515
0.00120585
0.00120641
0.00120642
0.00120669
0.00120692
0.00120681
0.00120713
0.0012074
0.00120708
0.00120716
0.00120718
0.00120728
0.00120721
0.0012072
0.00120775
0.00120861
0.00120877
0.00120878
0.00120876
0.00120873
0.00120871
0.00120868
0.00120865
0.00120862
0.00120859
0.00120856
0.00120853
0.00120851
0.00120848
0.00120846
0.0012084
0.00120823
0.00120817
0.00120818
0.00120794
0.0012078
0.00120774
0.00120777
0.00120772
0.00120756
0.00120744
0.00120714
0.00120727
0.00120733
0.00120699
0.00120705
0.00120704
0.00120705
0.00120677
0.00120665
0.00120688
0.00120715
0.00120702
0.00120677
0.00120676
0.00120643
0.00118517
0.00120241
0.0012062
0.0012065
0.00120635
0.00120636
0.001206
0.00120602
0.00120607
0.00120539
0.00120562
0.00120594
0.00120532
0.00120536
0.00120528
0.00120467
0.00120446
0.00120494
0.00120546
0.0012052
0.00120505
0.00120493
0.00120464
0.00120444
0.00120436
0.0012039
0.00120413
0.00120441
0.00120402
0.00120458
0.00120514
0.00120498
0.00120564
0.00120618
0.00120617
0.00120673
0.00120709
0.00120722
0.00120745
0.00120768
0.00120778
0.00120777
0.00120781
0.00120777
0.00120772
0.00120732
0.00120747
0.00120779
0.00120748
0.00120746
0.00120747
0.00120721
0.00120738
0.00120767
0.00120736
0.00120743
0.00120722
0.00120708
0.00120681
0.00120711
0.00120728
0.00120669
0.00120699
0.00120717
0.00120658
0.0012068
0.00120743
0.00120723
0.00120737
0.00120744
0.00120718
0.00120716
0.00120712
0.00120712
0.00120669
0.00120688
0.0012072
0.00120713
0.00120711
0.00120654
0.0012068
0.00120714
0.00120683
0.00120681
0.00120683
0.0012066
0.0012068
0.00120711
0.00120702
0.00120672
0.00118518
0.00120241
0.0012067
0.00120756
0.00120764
0.00120759
0.00120752
0.00120743
0.00120735
0.00120725
0.00120713
0.00120702
0.00120673
0.00120645
0.00120631
0.001206
0.00120571
0.00120534
0.00120502
0.00120474
0.00120438
0.00120412
0.00120366
0.00120382
0.00120411
0.00120378
0.00120384
0.00120378
0.0012043
0.00120465
0.00120484
0.00120491
0.00120532
0.00120574
0.00120602
0.00120621
0.00120646
0.00120676
0.00120703
0.00120711
0.00120728
0.00120748
0.00120702
0.00120745
0.00120794
0.00120776
0.00120777
0.00120783
0.00120767
0.00120773
0.00120852
0.00120879
0.0012088
0.00120877
0.00120874
0.00120871
0.00120868
0.00120864
0.00120861
0.00120858
0.00120855
0.00120852
0.0012085
0.00120847
0.00120845
0.00120843
0.00120841
0.00120832
0.00120816
0.00120812
0.00120813
0.00120789
0.00120776
0.0012077
0.00120772
0.00120758
0.00120744
0.00120742
0.00120712
0.00120719
0.00120738
0.00120698
0.00120722
0.00120729
0.00120695
0.00120695
0.00120691
0.00120699
0.00120696
0.0012065
0.00118518
0.00120241
0.0012067
0.00120756
0.00120763
0.00120759
0.00120752
0.00120744
0.00120734
0.00120724
0.00120713
0.001207
0.00120686
0.00120671
0.00120656
0.0012064
0.00120608
0.00120577
0.00120561
0.00120529
0.001205
0.00120467
0.00120442
0.00120423
0.0012041
0.0012038
0.00120406
0.00120438
0.00120421
0.00120459
0.00120491
0.00120503
0.0012057
0.00120621
0.0012062
0.00120674
0.00120736
0.00120753
0.00120777
0.00120812
0.00120818
0.00120818
0.0012082
0.00120813
0.0012081
0.00120816
0.00120811
0.00120799
0.00120756
0.00120773
0.0012086
0.00120881
0.00120881
0.00120878
0.00120875
0.00120872
0.00120869
0.00120865
0.00120862
0.00120859
0.00120856
0.00120853
0.0012085
0.00120848
0.00120845
0.00120843
0.00120841
0.00120839
0.00120837
0.00120836
0.00120821
0.00120807
0.00120802
0.00120803
0.00120786
0.00120774
0.00120772
0.00120774
0.00120768
0.00120739
0.00120727
0.00120711
0.00120728
0.00120735
0.00120697
0.00120711
0.00120716
0.00120706
0.00120704
0.00120653
0.00118517
0.00120252
0.00120622
0.00120629
0.00120628
0.00120649
0.00120644
0.00120582
0.00120594
0.00120594
0.00120525
0.00120525
0.00120612
0.00120658
0.00120653
0.00120638
0.00120621
0.00120589
0.00120557
0.00120541
0.00120511
0.00120467
0.00120438
0.00120404
0.00120415
0.00120425
0.00120396
0.00120412
0.00120423
0.00120452
0.00120447
0.00120497
0.00120543
0.00120518
0.00120591
0.00120648
0.00120628
0.00120682
0.0012077
0.00120788
0.00120801
0.00120821
0.00120824
0.00120821
0.00120813
0.00120793
0.00120795
0.00120799
0.00120784
0.00120775
0.00120755
0.00120742
0.00120737
0.00120731
0.00120769
0.00120854
0.00120853
0.00120838
0.00120836
0.00120821
0.00120807
0.00120781
0.00120768
0.00120763
0.00120758
0.00120742
0.00120726
0.00120722
0.00120703
0.00120692
0.00120691
0.00120683
0.00120723
0.00120784
0.00120776
0.00120776
0.00120772
0.00120752
0.0012074
0.0012071
0.00120724
0.00120727
0.00120695
0.00120703
0.00120702
0.00120703
0.0012066
0.00120684
0.00120704
0.00120636
0.00118518
0.00120241
0.0012067
0.00120755
0.00120763
0.00120758
0.00120752
0.00120743
0.00120734
0.00120709
0.00120684
0.00120672
0.00120645
0.001206
0.0012057
0.0012055
0.00120533
0.00120503
0.00120465
0.00120435
0.00120384
0.00120399
0.00120409
0.00120391
0.00120379
0.0012039
0.00120405
0.00120353
0.00120401
0.00120446
0.00120466
0.0012047
0.00120515
0.00120559
0.00120558
0.00120589
0.00120583
0.00120651
0.00120705
0.0012067
0.00120716
0.00120743
0.00120701
0.00120741
0.00120762
0.00120708
0.00120743
0.00120787
0.00120745
0.00120751
0.00120769
0.00120762
0.00120759
0.00120723
0.00120734
0.00120767
0.00120732
0.00120729
0.00120742
0.0012074
0.00120724
0.00120689
0.00120706
0.00120722
0.00120663
0.00120697
0.00120724
0.00120662
0.0012069
0.00120708
0.00120651
0.00120646
0.00120712
0.00120722
0.00120689
0.00120687
0.00120685
0.00120684
0.00120647
0.00120672
0.00120705
0.0012068
0.00120679
0.00120646
0.00120675
0.00120692
0.00120635
0.00120669
0.00120691
0.00120628
0.00118518
0.00120241
0.0012067
0.00120755
0.00120763
0.00120759
0.00120752
0.00120743
0.00120734
0.00120723
0.00120712
0.00120699
0.00120685
0.00120671
0.00120641
0.00120609
0.00120593
0.00120562
0.00120514
0.00120495
0.00120483
0.00120454
0.00120428
0.00120407
0.00120356
0.00120378
0.00120403
0.00120359
0.00120408
0.00120447
0.00120415
0.00120476
0.00120526
0.00120496
0.00120563
0.0012064
0.00120664
0.00120691
0.00120656
0.00120705
0.00120742
0.00120717
0.00120724
0.0012072
0.0012077
0.00120812
0.00120795
0.00120798
0.00120801
0.00120798
0.00120739
0.00120751
0.00120757
0.00120695
0.00120725
0.00120766
0.00120732
0.00120732
0.00120731
0.00120701
0.00120717
0.00120745
0.00120737
0.00120734
0.00120675
0.00120705
0.00120726
0.00120662
0.0012069
0.0012071
0.00120652
0.00120687
0.00120715
0.001207
0.00120697
0.00120655
0.0012068
0.00120698
0.00120655
0.00120679
0.00120708
0.00120681
0.00120685
0.00120685
0.00120689
0.00120654
0.00120683
0.00120705
0.00120697
0.00120677
0.00118518
0.00120241
0.0012067
0.00120755
0.00120763
0.00120759
0.00120752
0.00120743
0.00120734
0.00120723
0.00120712
0.00120699
0.00120686
0.0012067
0.00120655
0.00120638
0.00120621
0.00120589
0.00120557
0.00120541
0.00120511
0.00120483
0.00120453
0.00120432
0.00120435
0.00120425
0.00120396
0.0012042
0.00120462
0.00120466
0.00120495
0.00120516
0.00120576
0.00120622
0.00120621
0.00120678
0.00120715
0.00120731
0.00120764
0.00120766
0.00120774
0.00120782
0.00120779
0.0012077
0.00120773
0.00120788
0.00120791
0.00120749
0.00120735
0.00120799
0.00120874
0.00120884
0.00120883
0.00120879
0.00120876
0.00120873
0.00120869
0.00120866
0.00120862
0.00120859
0.00120856
0.00120853
0.00120851
0.00120848
0.00120846
0.00120843
0.00120841
0.0012084
0.00120827
0.00120812
0.00120808
0.0012081
0.00120788
0.00120775
0.0012077
0.00120773
0.00120768
0.00120752
0.0012074
0.00120711
0.00120723
0.00120728
0.00120709
0.00120707
0.00120682
0.0012068
0.00120651
0.00120682
0.00120705
0.00120636
0.00118518
0.00120241
0.0012067
0.00120756
0.00120764
0.00120759
0.00120752
0.00120744
0.00120735
0.00120724
0.00120713
0.00120701
0.00120686
0.00120672
0.00120656
0.0012064
0.00120608
0.00120576
0.0012056
0.0012053
0.00120484
0.0012047
0.00120464
0.00120443
0.00120437
0.0012039
0.00120409
0.00120436
0.00120406
0.0012046
0.00120512
0.00120499
0.00120568
0.00120621
0.0012062
0.00120674
0.00120736
0.00120753
0.00120777
0.00120812
0.00120818
0.00120818
0.0012082
0.00120814
0.00120811
0.00120816
0.00120811
0.00120799
0.00120756
0.00120773
0.0012086
0.00120881
0.00120881
0.00120879
0.00120875
0.00120872
0.00120869
0.00120865
0.00120862
0.00120859
0.00120856
0.00120853
0.0012085
0.00120848
0.00120846
0.00120829
0.00120813
0.0012081
0.00120799
0.00120784
0.00120782
0.00120779
0.00120778
0.00120733
0.0012074
0.00120751
0.00120724
0.00120738
0.00120759
0.00120746
0.00120733
0.00120731
0.00120708
0.00120697
0.00120695
0.00120701
0.00120675
0.00120688
0.00120692
0.00120636
0.00118518
0.00120241
0.0012067
0.00120756
0.00120764
0.00120759
0.00120752
0.00120744
0.00120735
0.00120724
0.00120713
0.00120702
0.00120674
0.00120645
0.0012063
0.001206
0.00120554
0.0012052
0.001205
0.00120474
0.00120437
0.00120411
0.00120366
0.00120383
0.00120411
0.00120408
0.00120408
0.00120431
0.00120456
0.00120469
0.00120507
0.00120515
0.00120538
0.00120573
0.00120607
0.00120587
0.00120641
0.00120682
0.00120701
0.00120709
0.00120728
0.00120748
0.00120702
0.00120745
0.00120794
0.00120778
0.00120775
0.00120767
0.0012076
0.00120774
0.00120849
0.00120878
0.0012088
0.00120877
0.00120874
0.00120871
0.00120868
0.00120864
0.00120861
0.00120858
0.00120855
0.00120852
0.0012085
0.00120848
0.00120835
0.0012082
0.00120812
0.001208
0.00120785
0.00120782
0.00120778
0.00120784
0.00120769
0.00120745
0.00120773
0.0012078
0.00120758
0.00120755
0.0012074
0.00120734
0.0012072
0.00120696
0.00120718
0.00120725
0.00120683
0.00120707
0.00120714
0.00120692
0.00120688
0.00120641
0.00118517
0.00120241
0.0012062
0.00120651
0.00120636
0.00120638
0.00120602
0.001206
0.00120625
0.00120612
0.00120599
0.0012053
0.00120544
0.00120566
0.00120525
0.00120504
0.0012045
0.00120431
0.00120488
0.00120518
0.00120476
0.00120473
0.00120462
0.00120443
0.00120447
0.00120437
0.00120407
0.00120431
0.00120469
0.00120471
0.00120499
0.00120517
0.00120573
0.0012062
0.00120617
0.0012067
0.00120733
0.00120752
0.00120761
0.0012077
0.00120787
0.00120788
0.00120786
0.00120788
0.00120782
0.00120775
0.00120733
0.00120748
0.00120778
0.00120749
0.00120758
0.00120737
0.00120724
0.00120698
0.00120727
0.00120743
0.00120683
0.00120706
0.00120754
0.00120725
0.0012072
0.00120685
0.00120705
0.00120738
0.00120731
0.00120728
0.00120683
0.00120673
0.00120722
0.00120801
0.00120796
0.00120786
0.00120777
0.00120772
0.00120759