/*--------------------------------*- C++ -*----------------------------------*\
  =========                 |
  \\      /  F ield         | OpenFOAM: The Open Source CFD Toolbox
   \\    /   O peration     | Website:  https://openfoam.org
    \\  /    A nd           | Version:  11
     \\/     M anipulation  |
\*---------------------------------------------------------------------------*/
FoamFile
{
    format      ascii;
    class       volScalarField;
    location    "0.016";
    object      p;
}
// * * * * * * * * * * * * * * * * * * * * * * * * * * * * * * * * * * * * * //

dimensions      [0 2 -2 0 0 0 0];

internalField   nonuniform List<scalar> 
287084
(
1.5317
1.26283
1.1837
1.12492
1.06325
1.0121
0.967604
0.927683
0.888173
0.848564
0.809387
0.770083
0.731098
0.692135
0.653227
0.614333
0.575758
0.537329
0.499219
0.461951
0.4251
0.389218
0.354668
0.321267
0.290135
0.260282
0.23138
0.208857
0.191959
0.174299
0.156443
0.14202
0.131083
0.122585
0.116764
0.113115
0.11153
0.1114
0.112568
0.114954
0.118032
0.121659
0.125661
0.129862
0.134108
0.138311
0.142378
0.146192
0.149678
0.152668
0.155039
0.156298
0.157723
0.160952
0.162107
0.162325
0.164641
0.164152
0.16454
0.165558
0.166314
0.165519
0.160773
0.160024
0.159805
0.153852
0.151385
0.149558
0.143309
0.137257
0.134144
0.129902
0.121631
0.115496
0.111819
0.10801
0.10231
0.0929479
0.0872913
0.0830556
0.0749262
0.0675782
0.0609155
0.0532507
0.0447609
0.0352271
0.0255712
0.0156004
0.00577221
0.000432403
1.40129
1.21922
1.16047
1.11025
1.05566
1.00844
0.965419
0.924891
0.885454
0.8464
0.807409
0.768508
0.729524
0.690639
0.6515
0.612509
0.573731
0.535039
0.496765
0.459049
0.422098
0.385972
0.351027
0.31789
0.286519
0.256642
0.229184
0.206685
0.186137
0.167081
0.150601
0.137081
0.126464
0.118381
0.112798
0.109378
0.10797
0.108312
0.109695
0.112264
0.115602
0.119471
0.123677
0.12808
0.132509
0.136885
0.141097
0.145075
0.148745
0.152017
0.154875
0.157319
0.159498
0.16137
0.161686
0.161806
0.164103
0.165544
0.164978
0.164975
0.165486
0.164809
0.162707
0.159711
0.157966
0.155436
0.151408
0.148029
0.143617
0.138531
0.134168
0.129387
0.123548
0.117648
0.112061
0.106436
0.100185
0.0931995
0.0867759
0.0804562
0.0733416
0.066249
0.0590908
0.0514321
0.043271
0.0347383
0.0258787
0.0165655
0.00768943
0.00183916
1.37339
1.20791
1.15129
1.10124
1.0487
1.00317
0.961246
0.92133
0.882173
0.843264
0.804556
0.765692
0.726689
0.687419
0.648094
0.608752
0.569545
0.530465
0.491724
0.453527
0.415862
0.37939
0.343994
0.310157
0.278606
0.248902
0.221555
0.197099
0.176142
0.157437
0.141223
0.128041
0.117664
0.110025
0.104804
0.10205
0.101058
0.10169
0.10379
0.106826
0.110642
0.114982
0.119646
0.124445
0.129259
0.133971
0.138506
0.142777
0.146724
0.150311
0.153487
0.156181
0.158398
0.160272
0.16181
0.163282
0.164551
0.165234
0.16514
0.165087
0.164844
0.163944
0.162019
0.159651
0.157348
0.154422
0.150954
0.147287
0.143048
0.138416
0.133756
0.128854
0.12335
0.117595
0.111837
0.105921
0.0996877
0.0930418
0.0864135
0.0797361
0.0726961
0.0654534
0.05809
0.0504551
0.0425423
0.0342687
0.02571
0.0167881
0.00803582
0.00182748
1.3346
1.18019
1.13183
1.08628
1.03808
0.995293
0.955067
0.916032
0.877458
0.839077
0.800509
0.761628
0.722359
0.682918
0.643081
0.603255
0.563532
0.523634
0.484212
0.445178
0.406613
0.369472
0.333305
0.298834
0.266652
0.236293
0.208475
0.183812
0.162129
0.143181
0.127385
0.114464
0.104545
0.0974066
0.0929017
0.0907462
0.0905608
0.0921114
0.094834
0.0985738
0.103071
0.108118
0.113444
0.118897
0.124317
0.12958
0.134598
0.139319
0.143671
0.147634
0.151179
0.154278
0.156938
0.159211
0.161054
0.162551
0.163709
0.164427
0.164628
0.164478
0.163971
0.162955
0.161297
0.159183
0.156748
0.15384
0.150484
0.146763
0.142625
0.138119
0.13341
0.128411
0.123022
0.117376
0.111555
0.10552
0.0992397
0.0927141
0.0860459
0.0792369
0.0722116
0.0649908
0.0576248
0.0500787
0.0422546
0.0341298
0.0258234
0.0170806
0.00845185
0.00214191
1.31078
1.16163
1.11662
1.0733
1.02771
0.987016
0.948096
0.910012
0.872096
0.833904
0.795464
0.756413
0.716883
0.676987
0.636554
0.596072
0.555321
0.514548
0.474167
0.434046
0.394653
0.356143
0.318979
0.283627
0.25038
0.219463
0.19115
0.165924
0.1438
0.124748
0.1091
0.0964358
0.0871381
0.0808021
0.0770745
0.0757504
0.0764242
0.0787593
0.0824631
0.0872239
0.092682
0.0986716
0.104961
0.111308
0.117563
0.123629
0.129337
0.13467
0.139574
0.144028
0.148019
0.151549
0.154597
0.157207
0.159357
0.161097
0.162398
0.163216
0.163569
0.163487
0.162985
0.16199
0.160427
0.158424
0.156003
0.153148
0.149864
0.14619
0.142131
0.137719
0.133008
0.127998
0.122674
0.117062
0.111232
0.105183
0.098914
0.0923869
0.0857139
0.0788546
0.0718187
0.0646159
0.0572767
0.0497779
0.0421018
0.0341569
0.0258761
0.0172085
0.0085226
0.00208056
1.29054
1.1456
1.10224
1.06113
1.01757
0.978322
0.940696
0.903315
0.865908
0.828015
0.78952
0.750229
0.710244
0.669677
0.628644
0.587123
0.545445
0.503541
0.461832
0.420262
0.379471
0.33968
0.301389
0.264764
0.230266
0.198395
0.169323
0.143359
0.120907
0.101712
0.0862764
0.0740951
0.0655027
0.0598933
0.0570515
0.056845
0.0584682
0.0619103
0.0667857
0.0726843
0.0793629
0.0865894
0.0940806
0.101605
0.108938
0.116019
0.122652
0.128805
0.134443
0.139506
0.144048
0.14805
0.151549
0.154528
0.157021
0.159042
0.160573
0.161589
0.162114
0.162164
0.161729
0.160816
0.159382
0.157483
0.155135
0.152361
0.149161
0.145552
0.141563
0.137211
0.132545
0.127569
0.122277
0.116708
0.1109
0.104843
0.0985646
0.0920823
0.0853913
0.0785283
0.0715105
0.0643211
0.0569996
0.0495362
0.0418569
0.0340114
0.0258922
0.0172568
0.00861743
0.00208931
1.27501
1.13171
1.08979
1.05006
1.00807
0.97009
0.933205
0.896602
0.859359
0.821453
0.782889
0.743114
0.702643
0.661303
0.619283
0.576635
0.533655
0.490294
0.447171
0.40397
0.361776
0.320127
0.280072
0.242034
0.206214
0.173194
0.14311
0.116672
0.0936158
0.074456
0.0591158
0.0474829
0.0396111
0.0348122
0.0330133
0.0338209
0.0367314
0.041601
0.0478434
0.0551916
0.0633104
0.0719383
0.080797
0.0896635
0.0983566
0.106704
0.114488
0.121681
0.128231
0.134094
0.13929
0.143876
0.147857
0.151281
0.154163
0.156502
0.158293
0.159557
0.160298
0.160539
0.160251
0.159462
0.158169
0.156392
0.154149
0.151459
0.148356
0.144823
0.140915
0.136644
0.132016
0.127089
0.121844
0.116321
0.110536
0.104501
0.0982429
0.0917509
0.0850904
0.0782317
0.0712128
0.0640317
0.0567415
0.0493416
0.0417363
0.0339449
0.0259109
0.0173374
0.00866792
0.00215237
1.26238
1.1199
1.07909
1.0403
0.999248
0.962165
0.925853
0.889438
0.852347
0.814438
0.775379
0.735187
0.693959
0.651733
0.608656
0.564718
0.520293
0.475288
0.430347
0.385234
0.340938
0.297648
0.255766
0.215924
0.178435
0.144059
0.112955
0.0855019
0.062061
0.0428418
0.02767
0.0165791
0.00942788
0.00568875
0.0051001
0.00730159
0.0118066
0.0182284
0.0260952
0.0350934
0.0448628
0.0550949
0.0654946
0.0758653
0.0859846
0.0956902
0.104839
0.113286
0.120932
0.127758
0.133782
0.139037
0.143601
0.147521
0.150822
0.153529
0.155666
0.157214
0.158205
0.158661
0.15856
0.157928
0.156797
0.155154
0.153042
0.150483
0.14746
0.144029
0.140201
0.135995
0.131449
0.12657
0.121375
0.115891
0.110139
0.104138
0.0978986
0.0914504
0.0847969
0.0779625
0.0709909
0.0638773
0.05664
0.0492667
0.0417253
0.0339912
0.0259342
0.0173356
0.0085715
0.00200026
1.25193
1.10987
1.06986
1.03167
0.991215
0.954338
0.918526
0.882354
0.844994
0.806866
0.767486
0.726558
0.684616
0.641254
0.596758
0.551454
0.505231
0.458456
0.411372
0.364229
0.317757
0.27223
0.228121
0.186346
0.147051
0.111019
0.0787136
0.050404
0.0265414
0.0071026
-0.00766268
-0.0181652
-0.0244565
-0.027104
-0.0262881
-0.0224341
-0.0161906
-0.00796363
0.00179586
0.0126586
0.0242769
0.0362882
0.0484186
0.0604328
0.0721088
0.0833069
0.0938418
0.103634
0.11259
0.12053
0.127523
0.133608
0.138838
0.14331
0.147101
0.150218
0.152707
0.154577
0.155852
0.156553
0.156681
0.156253
0.155284
0.15381
0.151841
0.149393
0.146493
0.143168
0.139432
0.135298
0.130825
0.126015
0.120881
0.115443
0.109731
0.103762
0.0975514
0.0911315
0.0844847
0.0776734
0.0706576
0.0635046
0.0563434
0.0488823
0.0411235
0.0335236
0.0256619
0.0171894
0.00876945
0.00224575
1.243
1.10113
1.0615
1.02357
0.983494
0.947061
0.911129
0.874786
0.837422
0.798846
0.758799
0.71742
0.674239
0.629811
0.584061
0.536849
0.488843
0.439894
0.390487
0.341103
0.292081
0.244145
0.197709
0.15364
0.112362
0.0745921
0.0409143
0.0115944
-0.0128187
-0.0321935
-0.0468062
-0.0566141
-0.0618912
-0.0631073
-0.0605451
-0.0549957
-0.0468237
-0.0365635
-0.0247316
-0.0118204
0.00182915
0.0157983
0.029806
0.0436049
0.0569832
0.0697453
0.0817771
0.0929705
0.103217
0.112471
0.120552
0.127579
0.13361
0.138721
0.143032
0.146607
0.149499
0.151725
0.153313
0.154278
0.154638
0.154435
0.153662
0.15236
0.150546
0.148241
0.145466
0.142247
0.138604
0.134574
0.130168
0.125422
0.120358
0.114963
0.109291
0.103382
0.0971934
0.0908088
0.0842185
0.0774241
0.0704935
0.0634448
0.0562516
0.0489096
0.0414397
0.0337348
0.0256557
0.0171286
0.0085009
0.00202104
1.23509
1.09339
1.05402
1.01634
0.976132
0.939654
0.903955
0.867555
0.829794
0.790795
0.750167
0.707743
0.663486
0.617666
0.570134
0.521259
0.471136
0.419861
0.368031
0.315851
0.264357
0.21365
0.164655
0.118187
0.0744747
0.034963
-0.000300567
-0.0304935
-0.0554331
-0.0748249
-0.089055
-0.0979697
-0.102031
-0.101962
-0.0976707
-0.0900212
-0.0797205
-0.0672307
-0.0531609
-0.0379907
-0.0221758
-0.00608313
0.00995176
0.0256505
0.040819
0.0552742
0.0688639
0.0814974
0.0930954
0.103604
0.112951
0.121032
0.12795
0.13379
0.138697
0.142769
0.146084
0.148685
0.150598
0.151872
0.152493
0.152521
0.151955
0.15083
0.149191
0.147019
0.144383
0.141287
0.137753
0.133805
0.12949
0.124807
0.1198
0.114477
0.108848
0.102979
0.0968427
0.090482
0.08392
0.0771688
0.0702541
0.0631789
0.0560102
0.0487718
0.041251
0.0334779
0.0255572
0.0171399
0.00859569
0.00213143
1.22801
1.08639
1.04704
1.00954
0.969877
0.933372
0.897194
0.860498
0.822322
0.782538
0.741068
0.697558
0.652262
0.604867
0.555692
0.504812
0.452285
0.398543
0.34404
0.2892
0.234652
0.181075
0.129232
0.080154
0.0342317
-0.00737574
-0.0441213
-0.0754713
-0.100716
-0.120099
-0.133972
-0.142016
-0.144905
-0.142908
-0.136663
-0.126999
-0.114367
-0.0995238
-0.0830577
-0.065515
-0.0473658
-0.0290416
-0.0108944
0.00683453
0.0238802
0.040093
0.05532
0.0694555
0.0824482
0.0942383
0.104776
0.114025
0.121925
0.128577
0.134158
0.13876
0.142529
0.145521
0.147788
0.149345
0.15025
0.150521
0.150178
0.149253
0.147772
0.145771
0.143271
0.140279
0.136865
0.133023
0.128776
0.12419
0.119244
0.113971
0.108404
0.102575
0.0964853
0.0901611
0.08363
0.0769021
0.0700071
0.0629566
0.0557299
0.0483929
0.0411007
0.0335156
0.0255617
0.0171489
0.0085073
0.00206894
1.22159
1.07992
1.04083
1.00341
0.963666
0.927078
0.890819
0.853629
0.814973
0.774341
0.732137
0.687377
0.640423
0.591722
0.540517
0.487452
0.432625
0.376171
0.318835
0.261111
0.203569
0.146912
0.0922387
0.0401894
-0.00815206
-0.0519289
-0.0902863
-0.122379
-0.148058
-0.167391
-0.180727
-0.18783
-0.189259
-0.185663
-0.177412
-0.165376
-0.150338
-0.132987
-0.114
-0.0939541
-0.0733898
-0.0527355
-0.0323475
-0.0125452
0.00644141
0.0244766
0.0413654
0.0570307
0.0714504
0.0845313
0.0962701
0.106647
0.115607
0.123145
0.129442
0.13463
0.138871
0.142282
0.144906
0.146803
0.147981
0.148494
0.148367
0.147642
0.146343
0.144491
0.142127
0.139272
0.135965
0.132219
0.128068
0.123553
0.118667
0.11347
0.107959
0.102168
0.0961235
0.0898394
0.083353
0.0766622
0.0698034
0.0628169
0.0556909
0.0484405
0.0410569
0.0333809
0.0254969
0.0171337
0.00844517
0.0019884
1.21569
1.0742
1.03514
0.997569
0.957735
0.921065
0.884411
0.846855
0.807333
0.765969
0.72263
0.67688
0.628788
0.578133
0.525048
0.469843
0.412383
0.353158
0.293075
0.231994
0.171335
0.111602
0.0537203
-0.000937158
-0.0519616
-0.0978492
-0.137542
-0.170455
-0.196644
-0.216127
-0.228828
-0.234942
-0.234917
-0.229247
-0.218908
-0.20456
-0.187006
-0.167066
-0.145489
-0.12288
-0.0998127
-0.0767696
-0.0541224
-0.032192
-0.0112054
0.0086589
0.0272308
0.0444822
0.0603085
0.0746829
0.0876224
0.0990971
0.109125
0.117573
0.124629
0.130459
0.135202
0.139018
0.141996
0.144209
0.145675
0.146458
0.146552
0.146026
0.144908
0.143216
0.140992
0.138263
0.135064
0.131421
0.127363
0.122924
0.11811
0.112956
0.107508
0.101773
0.0957723
0.0895321
0.0830598
0.0764094
0.0695932
0.0626125
0.0555225
0.0482273
0.0408599
0.0333388
0.0254618
0.0170896
0.0084668
0.00199515
1.21035
1.06877
1.02944
0.991658
0.951536
0.914842
0.878022
0.840006
0.800092
0.758
0.713577
0.666512
0.616883
0.56448
0.509458
0.451744
0.39171
0.329885
0.266599
0.202646
0.138692
0.0756482
0.0148039
-0.0429716
-0.0964756
-0.144249
-0.185321
-0.219112
-0.245698
-0.265149
-0.277198
-0.282201
-0.280695
-0.273275
-0.260638
-0.24386
-0.223774
-0.201214
-0.176996
-0.151801
-0.126208
-0.100763
-0.0758313
-0.0517609
-0.0287899
-0.00708951
0.0131809
0.0319667
0.049195
0.0648792
0.0789823
0.091519
0.102523
0.111951
0.1198
0.126272
0.131535
0.135784
0.139145
0.141667
0.143413
0.14443
0.144762
0.14444
0.143486
0.141951
0.139866
0.137257
0.134179
0.130635
0.126657
0.122293
0.11756
0.112474
0.107076
0.10138
0.0954188
0.0892187
0.0827961
0.0761628
0.0693877
0.0624408
0.0553192
0.0480803
0.0407443
0.0332007
0.0253678
0.017045
0.00843293
0.00195704
1.20531
1.0639
1.0242
0.986192
0.94598
0.908709
0.871655
0.833335
0.79282
0.750024
0.704582
0.656303
0.605181
0.551015
0.493859
0.433925
0.371385
0.30657
0.240365
0.173138
0.105973
0.0399652
-0.0241421
-0.0847118
-0.140726
-0.190329
-0.232596
-0.267215
-0.294354
-0.313645
-0.325142
-0.32912
-0.325975
-0.316622
-0.301816
-0.282638
-0.259977
-0.23481
-0.207975
-0.180205
-0.152135
-0.124297
-0.0971109
-0.0709432
-0.0460066
-0.0224971
-0.000569218
0.0197315
0.0383553
0.0552678
0.0705093
0.0841079
0.0960485
0.106383
0.115025
0.122153
0.127957
0.132628
0.13633
0.13918
0.141209
0.142469
0.14303
0.142882
0.142111
0.140746
0.138782
0.136304
0.133322
0.129866
0.125983
0.121694
0.117011
0.111988
0.106647
0.101005
0.0950894
0.0889274
0.0825361
0.0759405
0.0691693
0.0622358
0.0551554
0.0479488
0.0406728
0.0331354
0.0254091
0.0171562
0.00842732
0.00193141
1.20069
1.05915
1.01926
0.981121
0.940793
0.903403
0.865827
0.82702
0.786047
0.742448
0.695916
0.646399
0.59383
0.537822
0.478668
0.416395
0.351308
0.283765
0.214606
0.14446
0.0740087
0.00473359
-0.062199
-0.125598
-0.183821
-0.235039
-0.278521
-0.314035
-0.341642
-0.3608
-0.371667
-0.374446
-0.369727
-0.358563
-0.341547
-0.320033
-0.294921
-0.267226
-0.237859
-0.207594
-0.177101
-0.146958
-0.117608
-0.0893703
-0.0625525
-0.0373035
-0.0137685
0.00798249
0.0279214
0.0460487
0.0623768
0.0769388
0.0897845
0.100937
0.110381
0.118174
0.1245
0.129611
0.133671
0.136815
0.1391
0.140601
0.141362
0.141415
0.140802
0.139564
0.137739
0.13538
0.132504
0.129144
0.12533
0.121119
0.116517
0.111542
0.106244
0.100647
0.0947668
0.0886413
0.0822812
0.0757257
0.0689934
0.0621208
0.0551404
0.0479754
0.0406003
0.0330686
0.0253294
0.0170987
0.00840614
0.0018019
1.19651
1.05484
1.01495
0.976592
0.936245
0.898439
0.860448
0.821184
0.779536
0.735059
0.687683
0.637023
0.582904
0.525337
0.464234
0.399762
0.332103
0.262029
0.189863
0.11679
0.0434915
-0.0288083
-0.0986211
-0.164652
-0.22484
-0.277468
-0.32218
-0.358523
-0.386483
-0.40549
-0.415657
-0.417542
-0.411278
-0.398298
-0.379266
-0.355454
-0.328001
-0.297878
-0.266083
-0.233462
-0.200676
-0.16833
-0.136917
-0.106763
-0.0781474
-0.0512569
-0.0261998
-0.00306588
0.01813
0.037369
0.054731
0.0702117
0.0838898
0.0958009
0.105986
0.114382
0.121241
0.126764
0.131154
0.134589
0.137126
0.138857
0.139807
0.140029
0.139581
0.138483
0.136779
0.13452
0.131737
0.128469
0.124735
0.120576
0.116028
0.111117
0.105867
0.100309
0.0944774
0.0883758
0.0820391
0.075498
0.0687387
0.0618083
0.0547454
0.0477236
0.0404891
0.0328253
0.0250446
0.0169235
0.00844012
0.00194637
1.19284
1.05113
1.01098
0.972498
0.931935
0.893965
0.855756
0.81573
0.77362
0.728575
0.680075
0.628328
0.572932
0.513629
0.45059
0.384007
0.314167
0.24157
0.16683
0.0910043
0.014753
-0.0601446
-0.132609
-0.201043
-0.262728
-0.316894
-0.362597
-0.399785
-0.428016
-0.446885
-0.456489
-0.4572
-0.449668
-0.434889
-0.413962
-0.38809
-0.358474
-0.326135
-0.292116
-0.257293
-0.22239
-0.188036
-0.1547
-0.122754
-0.0924789
-0.0640703
-0.037622
-0.0132303
0.00910178
0.0294038
0.0476804
0.0640066
0.0784466
0.0910476
0.101877
0.110899
0.118231
0.124153
0.128859
0.13255
0.135329
0.137241
0.138388
0.138771
0.138447
0.137475
0.135893
0.133735
0.131042
0.127835
0.124181
0.120089
0.115601
0.110735
0.105526
0.100006
0.0942063
0.0881414
0.0818353
0.0753338
0.0686497
0.0618127
0.0548635
0.0477156
0.0403537
0.0328095
0.025011
0.0167743
0.0082772
0.00190514
1.18963
1.04787
1.00757
0.969069
0.92826
0.890009
0.851262
0.811075
0.768306
0.722551
0.673358
0.620473
0.56383
0.503045
0.43842
0.369912
0.297833
0.223023
0.145959
0.0676036
-0.0110495
-0.0886138
-0.16343
-0.233781
-0.297051
-0.352155
-0.399169
-0.436935
-0.465449
-0.484116
-0.493099
-0.492852
-0.484091
-0.467864
-0.445154
-0.417414
-0.385822
-0.351469
-0.315458
-0.278655
-0.241852
-0.205676
-0.170634
-0.137085
-0.105328
-0.0755481
-0.04785
-0.0223089
0.00105181
0.0222745
0.0413885
0.0584604
0.0735777
0.086797
0.0981804
0.107727
0.115528
0.121806
0.126808
0.130735
0.133715
0.135815
0.137113
0.137638
0.137457
0.136594
0.135105
0.133037
0.13041
0.127293
0.123693
0.119646
0.115203
0.110384
0.105211
0.0997313
0.0939648
0.0879075
0.0816427
0.0751574
0.0684658
0.0616122
0.0546003
0.0474617
0.0402093
0.0326566
0.0249024
0.0167992
0.00835244
0.00198388
1.18695
1.04513
1.00477
0.966031
0.925
0.886583
0.847691
0.806984
0.763773
0.717524
0.667421
0.613692
0.555837
0.493753
0.427646
0.357369
0.28356
0.206909
0.127602
0.0470548
-0.0336477
-0.113413
-0.190269
-0.262128
-0.326851
-0.38299
-0.43061
-0.469134
-0.497932
-0.5164
-0.524911
-0.523686
-0.513762
-0.496288
-0.472121
-0.442761
-0.409468
-0.373388
-0.335627
-0.297129
-0.258686
-0.220931
-0.184384
-0.149465
-0.116413
-0.0854452
-0.0566825
-0.0301612
-0.00590674
0.0161115
0.0359475
0.0536715
0.0693637
0.0831055
0.0949734
0.104997
0.113168
0.119768
0.125026
0.129171
0.132327
0.134576
0.136029
0.13666
0.136583
0.135834
0.134421
0.132435
0.12988
0.126811
0.123266
0.119268
0.114872
0.110089
0.104955
0.0994897
0.0937519
0.0877416
0.0814791
0.0750111
0.0683537
0.061518
0.0545483
0.0474331
0.0401342
0.032626
0.0249136
0.0167831
0.0082843
0.00192903
1.18478
1.04291
1.0025
0.963664
0.922544
0.883875
0.844573
0.803589
0.760025
0.713017
0.662549
0.60806
0.549286
0.486197
0.418712
0.347143
0.27175
0.193235
0.112384
0.0300023
-0.0525114
-0.13399
-0.212495
-0.285755
-0.351246
-0.40827
-0.456717
-0.495844
-0.524868
-0.543052
-0.551028
-0.549184
-0.538378
-0.51972
-0.494329
-0.463622
-0.428942
-0.391439
-0.35226
-0.312364
-0.272534
-0.233499
-0.195747
-0.159652
-0.125558
-0.0936194
-0.0639543
-0.0366397
-0.0116409
0.0110432
0.0314768
0.049717
0.065903
0.0800732
0.0923331
0.102743
0.111231
0.118095
0.123557
0.127878
0.131177
0.133569
0.135115
0.135861
0.135875
0.135193
0.133859
0.13193
0.129425
0.126418
0.122912
0.118957
0.114588
0.109829
0.104733
0.0993026
0.0935778
0.0875686
0.0813436
0.0748927
0.0682422
0.0614242
0.0544353
0.0473171
0.0400473
0.032551
0.0249131
0.016822
0.00829832
0.00194856
1.18309
1.04119
1.00077
0.961881
0.920577
0.881788
0.842423
0.801093
0.757162
0.709917
0.6588
0.603639
0.543998
0.480176
0.411755
0.338928
0.262592
0.182966
0.100623
0.0170044
-0.067212
-0.149924
-0.229632
-0.303931
-0.36979
-0.427779
-0.476752
-0.516349
-0.545659
-0.563611
-0.571158
-0.568692
-0.557113
-0.537727
-0.511381
-0.47967
-0.443906
-0.405297
-0.365013
-0.324048
-0.283187
-0.243153
-0.204444
-0.167494
-0.132573
-0.0998822
-0.0695362
-0.0415908
-0.0160341
0.00714227
0.0280336
0.0466968
0.0632263
0.0777397
0.0902966
0.100995
0.109724
0.116799
0.122428
0.126883
0.130298
0.132788
0.134421
0.135236
0.135322
0.134695
0.133427
0.131544
0.129086
0.126107
0.122639
0.118723
0.114369
0.109648
0.104558
0.0991368
0.0934341
0.0874647
0.0812361
0.0748056
0.0681811
0.0613864
0.0544613
0.0473734
0.040122
0.0326482
0.0249627
0.0167722
0.00818657
0.00184427
1.18203
1.04005
0.999666
0.960719
0.919281
0.880461
0.840847
0.799444
0.755207
0.70752
0.656144
0.600588
0.540736
0.476101
0.407083
0.333666
0.256351
0.175721
0.0925418
0.00784841
-0.0771842
-0.160695
-0.2414
-0.3161
-0.382402
-0.440727
-0.490461
-0.530409
-0.559697
-0.577473
-0.584643
-0.581988
-0.569995
-0.549847
-0.522874
-0.490507
-0.454025
-0.414685
-0.373677
-0.33197
-0.2904
-0.249686
-0.210347
-0.1728
-0.137318
-0.104136
-0.0733386
-0.0449685
-0.0190381
0.00449357
0.0256937
0.0446258
0.0614169
0.0761528
0.0889055
0.0998032
0.10871
0.115903
0.121666
0.126185
0.129688
0.132246
0.13393
0.134811
0.134936
0.134356
0.133111
0.131256
0.128845
0.125886
0.122441
0.11855
0.114224
0.109499
0.10444
0.0990445
0.0933302
0.0873718
0.0811515
0.0747282
0.0680875
0.061308
0.0543395
0.0472558
0.0399569
0.0324339
0.0248507
0.0167103
0.00825328
0.00189106
1.18146
1.03951
0.999144
0.960199
0.918695
0.879804
0.840181
0.79859
0.754242
0.706456
0.65484
0.599128
0.538727
0.473994
0.404657
0.330786
0.253146
0.17218
0.0885277
0.00330594
-0.0820964
-0.166202
-0.247335
-0.322416
-0.389349
-0.44726
-0.497001
-0.537371
-0.566956
-0.584743
-0.591664
-0.588657
-0.576454
-0.555997
-0.528721
-0.496015
-0.459153
-0.419438
-0.378054
-0.335972
-0.294069
-0.253008
-0.213339
-0.175493
-0.139731
-0.106284
-0.0752357
-0.0466564
-0.0205432
0.00316877
0.0245143
0.0435919
0.0604973
0.0753451
0.0882113
0.0992002
0.108189
0.115463
0.121273
0.125844
0.129382
0.131977
0.133695
0.13459
0.134739
0.134184
0.13297
0.131126
0.128718
0.125769
0.122344
0.118459
0.114139
0.109431
0.104352
0.098972
0.0932811
0.0873144
0.0811155
0.0746952
0.0680752
0.0612914
0.0543501
0.0472884
0.0400726
0.0326017
0.0249243
0.0167121
0.00813151
0.00181389
1.18134
1.03935
0.998976
0.960021
0.918522
0.879673
0.84018
0.798509
0.754198
0.706331
0.654745
0.599021
0.538651
0.473965
0.404533
0.330699
0.253004
0.171901
0.0882553
0.00299763
-0.0824199
-0.166515
-0.247606
-0.322661
-0.389509
-0.447384
-0.497134
-0.537507
-0.567098
-0.584747
-0.591748
-0.588796
-0.576587
-0.556103
-0.528809
-0.496098
-0.459232
-0.419509
-0.378133
-0.33602
-0.294097
-0.253028
-0.213362
-0.175511
-0.139736
-0.10629
-0.0752531
-0.0466673
-0.0205359
0.00318072
0.0245303
0.0436103
0.0605218
0.0753717
0.0882406
0.099228
0.108223
0.11549
0.121303
0.12588
0.129414
0.132
0.133717
0.134608
0.134754
0.134195
0.132963
0.131129
0.128715
0.125778
0.122341
0.118446
0.114121
0.109411
0.104342
0.0989509
0.0932611
0.0872852
0.0810791
0.0746398
0.0680027
0.0611996
0.0542128
0.0470996
0.0398429
0.0323408
0.0247533
0.016727
0.00824553
0.00191
1.18177
1.03977
0.999416
0.960484
0.919053
0.880263
0.840687
0.799313
0.7551
0.707384
0.655909
0.600386
0.540481
0.475828
0.40696
0.333388
0.256128
0.175554
0.0922204
0.0074772
-0.0774482
-0.161095
-0.241802
-0.316471
-0.382916
-0.441275
-0.490651
-0.530517
-0.559778
-0.577686
-0.584941
-0.582155
-0.570187
-0.550003
-0.523009
-0.490644
-0.454146
-0.414801
-0.373781
-0.332052
-0.290497
-0.249766
-0.21041
-0.172849
-0.137374
-0.104171
-0.0733546
-0.0449793
-0.019042
0.00449186
0.0256972
0.044636
0.0614246
0.0761572
0.0889138
0.099814
0.108721
0.115917
0.121669
0.126195
0.129696
0.132249
0.133927
0.134809
0.134926
0.134335
0.1331
0.131241
0.128822
0.125856
0.122405
0.118509
0.114171
0.10946
0.104374
0.0989771
0.0932837
0.087308
0.0811004
0.0746575
0.0680294
0.0612367
0.0542837
0.0471886
0.0399613
0.0325286
0.0248398
0.0166494
0.00815654
0.00188793
1.18275
1.04079
1.00041
0.961545
0.92026
0.88146
0.841996
0.800807
0.756799
0.709562
0.658546
0.603253
0.54369
0.479892
0.411438
0.338726
0.262283
0.182492
0.100261
0.0164686
-0.0675097
-0.150235
-0.23008
-0.304195
-0.370268
-0.428252
-0.477154
-0.516543
-0.545765
-0.563743
-0.571253
-0.56895
-0.557359
-0.537895
-0.511541
-0.479831
-0.444062
-0.405445
-0.365171
-0.324161
-0.283301
-0.243257
-0.204541
-0.167584
-0.13264
-0.0999536
-0.0696124
-0.0416511
-0.0161002
0.00710218
0.0279842
0.0466419
0.0631912
0.0776944
0.0902558
0.100957
0.109689
0.116757
0.122392
0.126838
0.130258
0.132731
0.134358
0.135176
0.135245
0.134627
0.133355
0.13146
0.129007
0.126032
0.122557
0.118632
0.11429
0.109552
0.104469
0.0990606
0.093355
0.0873751
0.0811608
0.0747128
0.0680788
0.0612857
0.0543149
0.0472036
0.0399677
0.0324704
0.0248212
0.0166912
0.0081533
0.00183797
1.18425
1.04238
1.00201
0.9632
0.922067
0.883427
0.844085
0.803073
0.759568
0.71252
0.662022
0.607519
0.548821
0.485686
0.418295
0.346672
0.271432
0.193034
0.111922
0.0295213
-0.0529798
-0.134386
-0.212944
-0.286113
-0.351705
-0.408879
-0.457145
-0.496021
-0.52492
-0.543243
-0.551239
-0.54949
-0.538644
-0.519885
-0.494522
-0.463828
-0.429125
-0.391617
-0.352425
-0.312509
-0.272691
-0.233642
-0.195878
-0.159782
-0.125672
-0.0937241
-0.0640568
-0.0367296
-0.0117323
0.0109337
0.0313891
0.0496498
0.0658114
0.0799823
0.0922515
0.102664
0.11115
0.118008
0.12347
0.127777
0.131089
0.133469
0.135002
0.135759
0.135761
0.13507
0.133737
0.131811
0.129317
0.126304
0.122794
0.118837
0.114472
0.109713
0.104613
0.0991869
0.09346
0.0874659
0.0812401
0.0747882
0.068155
0.0613409
0.054401
0.0473225
0.0401249
0.0327012
0.0249891
0.0167814
0.00812172
0.00173558
1.18632
1.04452
1.00415
0.965484
0.924452
0.885888
0.846914
0.806285
0.763026
0.716773
0.666955
0.61305
0.555217
0.493291
0.427139
0.356952
0.283186
0.206297
0.127101
0.046594
-0.0341721
-0.113897
-0.190752
-0.262584
-0.327177
-0.383385
-0.431087
-0.469438
-0.498113
-0.516691
-0.525111
-0.523957
-0.514036
-0.496518
-0.472381
-0.442995
-0.409681
-0.373595
-0.335835
-0.297318
-0.25886
-0.221109
-0.184551
-0.149626
-0.116565
-0.0855879
-0.0568265
-0.0302987
-0.00603614
0.0159783
0.0358193
0.0535414
0.0692392
0.082989
0.0948533
0.104876
0.113045
0.119643
0.124905
0.129033
0.132184
0.134449
0.13586
0.13651
0.136421
0.135658
0.134267
0.132275
0.129716
0.126656
0.123112
0.119113
0.114717
0.109932
0.104801
0.0993435
0.0936029
0.0876052
0.0813565
0.0748985
0.0682471
0.061428
0.0544456
0.0473613
0.0400368
0.0325196
0.0249104
0.0167593
0.00818065
0.00181067
1.18884
1.04709
1.00681
0.968233
0.927411
0.88922
0.85049
0.810301
0.767572
0.72168
0.672582
0.619753
0.563037
0.502414
0.437702
0.369305
0.297375
0.222523
0.145429
0.0669718
-0.0116216
-0.089031
-0.163904
-0.234233
-0.297486
-0.352687
-0.39941
-0.437385
-0.465717
-0.484415
-0.493459
-0.493113
-0.484421
-0.468025
-0.445419
-0.417682
-0.386049
-0.351712
-0.315676
-0.278873
-0.242056
-0.205885
-0.170829
-0.13727
-0.105506
-0.0757201
-0.0480215
-0.0224903
0.000884796
0.0220962
0.0412137
0.0583035
0.0734057
0.0866297
0.098026
0.107566
0.115366
0.121639
0.126622
0.130564
0.133525
0.135624
0.136913
0.137438
0.137245
0.136388
0.134898
0.132832
0.130222
0.127098
0.123497
0.119453
0.115015
0.110198
0.105041
0.0995663
0.0937923
0.0877733
0.0814959
0.0750295
0.0683555
0.0615171
0.0545186
0.0473941
0.0401135
0.0326443
0.0249772
0.0167457
0.00818095
0.0018682
1.19189
1.05019
1.01004
0.971634
0.931017
0.892994
0.85475
0.814896
0.772634
0.727492
0.679386
0.627446
0.572062
0.512945
0.449927
0.383319
0.313518
0.240897
0.166285
0.0903229
0.014336
-0.0607608
-0.133205
-0.201385
-0.263351
-0.317238
-0.363026
-0.400184
-0.428318
-0.447294
-0.45686
-0.45751
-0.450012
-0.43523
-0.414286
-0.388428
-0.35875
-0.326399
-0.29237
-0.257542
-0.222637
-0.188274
-0.15493
-0.122993
-0.0927043
-0.0642808
-0.037833
-0.0134317
0.0089149
0.0292014
0.0474845
0.0638022
0.0782461
0.0908496
0.101683
0.110689
0.118025
0.123938
0.128643
0.132332
0.135101
0.137022
0.138139
0.13852
0.138202
0.137228
0.13565
0.133502
0.130795
0.127606
0.123956
0.119865
0.115367
0.110509
0.105318
0.099799
0.0940077
0.0879497
0.0816797
0.0751751
0.0684859
0.06164
0.0546368
0.0475112
0.0402566
0.0327894
0.0250337
0.0167801
0.00818633
0.001799
1.19543
1.0538
1.01384
0.97543
0.935109
0.89753
0.85956
0.820115
0.778433
0.73409
0.686756
0.636075
0.582083
0.524345
0.463328
0.398875
0.331331
0.261244
0.189248
0.116055
0.0428486
-0.0293808
-0.0991753
-0.165128
-0.225303
-0.278008
-0.322591
-0.359053
-0.386893
-0.406017
-0.416141
-0.417836
-0.411679
-0.398486
-0.379511
-0.355747
-0.328256
-0.298159
-0.266358
-0.233722
-0.200937
-0.168605
-0.137185
-0.107006
-0.0783956
-0.0514881
-0.0264402
-0.003304
0.0178789
0.037127
0.0544828
0.0699681
0.0836428
0.0955662
0.105752
0.11415
0.120999
0.126505
0.130902
0.134328
0.136863
0.138564
0.139523
0.139737
0.139292
0.138192
0.136491
0.134234
0.131468
0.128191
0.124463
0.120317
0.115776
0.110876
0.105634
0.100086
0.0942618
0.0881799
0.0818599
0.0753391
0.0686298
0.0617349
0.0546963
0.0475488
0.0402106
0.0327547
0.0250796
0.0168475
0.0082692
0.00181878
1.1994
1.05791
1.01808
0.979925
0.939678
0.902324
0.864804
0.825836
0.784763
0.741141
0.694798
0.64537
0.592637
0.536881
0.477785
0.415484
0.350467
0.282942
0.213813
0.143588
0.0733508
0.00424851
-0.0628855
-0.126274
-0.18441
-0.235543
-0.278965
-0.31459
-0.342023
-0.361191
-0.372036
-0.374847
-0.370186
-0.358893
-0.341924
-0.320379
-0.295256
-0.267547
-0.23816
-0.207894
-0.177405
-0.147262
-0.117892
-0.0896668
-0.0628372
-0.037589
-0.0140474
0.00771427
0.0276535
0.0457925
0.0621121
0.07668
0.0895122
0.100666
0.110102
0.117885
0.124214
0.129312
0.133369
0.136499
0.138797
0.14029
0.14103
0.14108
0.140474
0.139232
0.137428
0.135065
0.132181
0.128837
0.12504
0.12082
0.116223
0.111264
0.105974
0.100398
0.0945208
0.0884139
0.0820816
0.075525
0.0687903
0.0619114
0.0548639
0.0477085
0.0404554
0.0329346
0.0251387
0.0169021
0.00825332
0.00179399
1.20399
1.06252
1.02283
0.984855
0.944641
0.90756
0.870537
0.831904
0.791501
0.748722
0.703325
0.655162
0.60399
0.549865
0.492806
0.432901
0.370325
0.305702
0.239436
0.172343
0.105295
0.0390864
-0.0248432
-0.0853234
-0.141263
-0.190962
-0.233044
-0.267838
-0.29488
-0.314214
-0.325732
-0.329534
-0.3264
-0.316952
-0.302142
-0.282943
-0.260293
-0.235133
-0.208291
-0.180525
-0.152455
-0.124609
-0.0974397
-0.0712562
-0.0463194
-0.0228024
-0.000871581
0.0194375
0.0380442
0.0549624
0.0702002
0.0837858
0.0957456
0.106081
0.114718
0.121833
0.127628
0.132298
0.136
0.138835
0.14085
0.14211