# vtk DataFile Version 2.0
tracks
ASCII
DATASET POLYDATA
POINTS 820 float
-0.2 -0.2 -0.01 -0.199978 -0.200001 -0.00999584 -0.193741 -0.200374 -0.00881822 -0.187867 -0.200684
-0.00763526 -0.18638 -0.200755 -0.00732191 -0.182106 -0.200959 -0.00642127 -0.176139 -0.20124 -0.00503566
-0.162621 -0.201867 -0.00138297 -0.154018 -0.202561 0.00188759 -0.151047 -0.203006 0.0032288 -0.137702
-0.205251 0.00947725 -0.131667 -0.20713 0.0132018 -0.125288 -0.209528 0.0175583 -0.114035 -0.215218
0.0259068 -0.112846 -0.216319 0.0269961 -0.10311 -0.225393 0.0359881 -0.100703 -0.227807 0.0382586
-0.100318 -0.228208 0.0386305 -0.0906818 -0.238292 0.0479241 -0.0886498 -0.240051 0.0496098 -0.0865342
-0.241827 0.0513186 -0.0762842 -0.250274 0.0593714 -0.0755484 -0.250779 0.0598353 -0.0690996 -0.25521
0.0639435 -0.0639102 -0.258738 0.0669312 -0.056744 -0.263372 0.0712691 -0.0517231 -0.266408 0.0745521
-0.047438 -0.268803 0.0774223 -0.0390961 -0.273494 0.0827939 -0.0348268 -0.27592 0.0857564 -0.0297707
-0.278793 0.0893407 -0.0264987 -0.280685 0.0918766 -0.0142899 -0.287451 0.101224 -0.0138607 -0.287692
0.101513 -0.0126674 -0.288334 0.102291 -0.000975921 -0.293796 0.109247 0.02462 -0.295014 0.115368
0.0497769 -0.292815 0.114144 0.0999352 -0.291141 0.106357 0.127335 -0.291797 0.100053 0.149975
-0.292847 0.0950876 0.19999 -0.295231 0.0856702 0.299999 -0.29985 0.0720635 0.306946 -0.300001
0.0716001 0.4 -0.302007 0.0656342 0.5 -0.303625 0.0618954 0.6 -0.304718 0.0594878
0.7 -0.305301 0.0578345 0.8 -0.305583 0.0566453 0.9 -0.305693 0.0557594 1
-0.30571 0.055081 1.1 -0.305679 0.0545493 1.2 -0.305628 0.0541235 1.3 -0.305569
0.0537762 1.4 -0.30551 0.0534882 1.5 -0.305455 0.053246 1.6 -0.305405 0.0530395
1.7 -0.30536 0.0528616 1.8 -0.305321 0.0527066 1.9 -0.305287 0.0525703 2
-0.305258 0.0524497 2.1 -0.305233 0.052342 2.2 -0.305211 0.0522454 2.3 -0.305192
0.0521582 2.4 -0.305176 0.0520791 2.5 -0.305162 0.0520071 2.6 -0.30515 0.0519414
2.7 -0.305139 0.0518811 2.8 -0.30513 0.0518257 2.9 -0.305122 0.0517746 3
-0.305116 0.0517275 3.1 -0.30511 0.051684 3.2 -0.305105 0.0516437 3.3 -0.3051
0.0516064 3.4 -0.305097 0.0515718 3.5 -0.305093 0.0515396 3.6 -0.30509 0.0515098
3.7 -0.305088 0.0514821 3.8 -0.305086 0.0514564 3.9 -0.305084 0.0514325 4
-0.305082 0.0514104 4.1 -0.305081 0.0513899 4.2 -0.305079 0.0513709 4.3 -0.305078
0.0513532 4.4 -0.305077 0.051337 4.5 -0.305077 0.051322 4.6 -0.305076 0.0513081
4.7 -0.305075 0.0512955 4.8 -0.305075 0.0512838 4.9 -0.305074 0.0512733 5
-0.305074 0.0512636 5.1 -0.305073 0.051255 5.2 -0.305073 0.0512472 5.3 -0.305073
0.0512403 5.4 -0.305073 0.0512343 5.5 -0.305073 0.051229 5.6 -0.305072 0.0512246
5.7 -0.305072 0.0512209 5.8 -0.305072 0.051218 5.9 -0.305072 0.0512158 6
-0.305072 0.0512144 -6.91738e-17 -0.2 -0.01 0.00012702 -0.200025 -0.0100013 0.049974 -0.209974
-0.0105338 0.099989 -0.217669 -0.0117015 0.199997 -0.228602 -0.0144863 0.3 -0.233846 -0.0180687
0.4 -0.236762 -0.0200955 0.5 -0.238643 -0.0215382 0.6 -0.239746 -0.0226707 0.7
-0.240336 -0.0235755 0.8 -0.240631 -0.0243014 0.9 -0.240759 -0.0248884 1 -0.240795
-0.0253675 1.1 -0.240783 -0.0257627 1.2 -0.240749 -0.0260923 1.3 -0.240706 -0.0263701
1.4 -0.24066 -0.0266068 1.5 -0.240617 -0.0268105 1.6 -0.240577 -0.0269874 1.7
-0.240541 -0.0271425 1.8 -0.240509 -0.0272795 1.9 -0.240482 -0.0274013 2 -0.240458
-0.0275103 2.1 -0.240437 -0.0276085 2.2 -0.240419 -0.0276974 2.3 -0.240404 -0.0277782
2.4 -0.240391 -0.0278519 2.5 -0.240379 -0.0279194 2.6 -0.24037 -0.0279813 2.7
-0.240361 -0.0280384 2.8 -0.240354 -0.0280911 2.9 -0.240347 -0.0281397 3 -0.240342
-0.0281848 3.1 -0.240337 -0.0282266 3.2 -0.240333 -0.0282653 3.3 -0.240329 -0.0283013
3.4 -0.240326 -0.0283347 3.5 -0.240324 -0.0283658 3.6 -0.240321 -0.0283947 3.7
-0.240319 -0.0284216 3.8 -0.240318 -0.0284466 3.9 -0.240316 -0.0284698 4 -0.240315
-0.0284913 4.1 -0.240313 -0.0285114 4.2 -0.240312 -0.0285299 4.3 -0.240312 -0.0285471
4.4 -0.240311 -0.028563 4.5 -0.24031 -0.0285777 4.6 -0.24031 -0.0285912 4.7
-0.240309 -0.0286036 4.8 -0.240309 -0.028615 4.9 -0.240308 -0.0286253 5 -0.240308
-0.0286347 5.1 -0.240308 -0.0286432 5.2 -0.240307 -0.0286508 5.3 -0.240307 -0.0286576
5.4 -0.240307 -0.0286636 5.5 -0.240307 -0.0286687 5.6 -0.240307 -0.0286731 5.7
-0.240307 -0.0286767 5.8 -0.240307 -0.0286795 5.9 -0.240307 -0.0286817 6 -0.240307
-0.028683 0.2 -0.2 -0.01 0.200022 -0.200001 -0.0100008 0.3 -0.204014 -0.0134962
0.4 -0.206693 -0.0156781 0.5 -0.208449 -0.0172167 0.6 -0.209466 -0.0184084 0.7
-0.210015 -0.0193504 0.8 -0.210295 -0.0201009 0.9 -0.210421 -0.0207042 1 -0.210461
-0.0211945 1.1 -0.210457 -0.0215977 1.2 -0.21043 -0.0219332 1.3 -0.210394 -0.0222155
1.4 -0.210356 -0.0224556 1.5 -0.210318 -0.0226619 1.6 -0.210284 -0.022841 1.7
-0.210253 -0.0229978 1.8 -0.210225 -0.0231361 1.9 -0.210201 -0.023259 2 -0.21018
-0.0233689 2.1 -0.210162 -0.0234678 2.2 -0.210147 -0.0235573 2.3 -0.210133 -0.0236386
2.4 -0.210122 -0.0237127 2.5 -0.210112 -0.0237806 2.6 -0.210103 -0.0238429 2.7
-0.210096 -0.0239002 2.8 -0.210089 -0.0239531 2.9 -0.210084 -0.024002 3 -0.210079
-0.0240472 3.1 -0.210075 -0.0240891 3.2 -0.210071 -0.024128 3.3 -0.210068 -0.024164
3.4 -0.210065 -0.0241976 3.5 -0.210063 -0.0242287 3.6 -0.210061 -0.0242577 3.7
-0.210059 -0.0242846 3.8 -0.210057 -0.0243097 3.9 -0.210056 -0.024333 4 -0.210055
-0.0243546 4.1 -0.210054 -0.0243746 4.2 -0.210053 -0.0243932 4.3 -0.210052 -0.0244104
4.4 -0.210051 -0.0244263 4.5 -0.210051 -0.024441 4.6 -0.21005 -0.0244546 4.7
-0.21005 -0.024467 4.8 -0.210049 -0.0244784 4.9 -0.210049 -0.0244888 5 -0.210049
-0.0244982 5.1 -0.210049 -0.0245067 5.2 -0.210048 -0.0245143 5.3 -0.210048 -0.0245211
5.4 -0.210048 -0.0245271 5.5 -0.210048 -0.0245322 5.6 -0.210048 -0.0245366 5.7
-0.210048 -0.0245402 5.8 -0.210048 -0.0245431 5.9 -0.210048 -0.0245452 6 -0.210048
-0.0245466 0.4 -0.2 -0.01 0.4 -0.2 -0.01 0.4 -0.2 -0.01
0.5 -0.201734 -0.0116727 0.6 -0.202736 -0.012944 0.7 -0.203278 -0.0139349 0.8
-0.203555 -0.0147167 0.9 -0.20368 -0.0153406 1 -0.203722 -0.0158449 1.1 -0.203719
-0.0162578 1.2 -0.203695 -0.0166003 1.3 -0.20366 -0.0168878 1.4 -0.203624 -0.0171318
1.5 -0.203588 -0.0173412 1.6 -0.203554 -0.0175226 1.7 -0.203524 -0.0176811 1.8
-0.203498 -0.0178208 1.9 -0.203475 -0.0179449 2 -0.203455 -0.0180557 2.1 -0.203437
-0.0181554 2.2 -0.203422 -0.0182455 2.3 -0.203409 -0.0183273 2.4 -0.203398 -0.0184019
2.5 -0.203388 -0.0184701 2.6 -0.20338 -0.0185327 2.7 -0.203373 -0.0185903 2.8
-0.203366 -0.0186434 2.9 -0.203361 -0.0186924 3 -0.203356 -0.0187378 3.1 -0.203352
-0.0187799 3.2 -0.203349 -0.0188189 3.3 -0.203346 -0.0188551 3.4 -0.203343 -0.0188887
3.5 -0.203341 -0.0189199 3.6 -0.203339 -0.018949 3.7 -0.203337 -0.018976 3.8
-0.203336 -0.0190011 3.9 -0.203334 -0.0190244 4 -0.203333 -0.019046 4.1 -0.203332
-0.0190661 4.2 -0.203331 -0.0190848 4.3 -0.203331 -0.019102 4.4 -0.20333 -0.019118
4.5 -0.203329 -0.0191327 4.6 -0.203329 -0.0191463 4.7 -0.203328 -0.0191587 4.8
-0.203328 -0.0191701 4.9 -0.203328 -0.0191805 5 -0.203327 -0.0191899 5.1 -0.203327
-0.0191985 5.2 -0.203327 -0.0192061 5.3 -0.203327 -0.0192129 5.4 -0.203327 -0.0192189
5.5 -0.203327 -0.019224 5.6 -0.203327 -0.0192284 5.7 -0.203326 -0.019232 5.8
-0.203326 -0.0192349 5.9 -0.203326 -0.019237 6 -0.203326 -0.0192384 -0.2 3.54365e-17
-0.01 -0.197606 1.77051e-06 -0.00956669 -0.187699 8.2265e-06 -0.00778095 -0.174867 1.12112e-05 -0.00541614
-0.149572 5.82952e-06 -0.000735112 -0.139744 -1.41585e-06 0.000533867 -0.137686 -3.11053e-06 0.000723772 -0.124751
-1.38831e-05 0.00180997 -0.0998805 -3.44224e-05 0.00254764 -0.0571791 -6.31012e-05 6.90153e-05 -0.0499716 -6.58401e-05
-0.000668748 6.50622e-06 -8.53269e-05 -0.00609741 0.100001 -0.000117797 -0.0150374 0.2 -0.000134172 -0.0199886
0.3 -0.000143111 -0.0230658 0.4 -0.000148266 -0.0251801 0.5 -0.000151188 -0.0267041 0.6
-0.00015286 -0.0278526 0.7 -0.000153814 -0.0287463 0.8 -0.000154352 -0.0294565 0.9 -0.000154647
-0.0300295 1 -0.000154802 -0.0304982 1.1 -0.000154879 -0.0308861 1.2 -0.000154907 -0.0312109
1.3 -0.000154914 -0.0314856 1.4 -0.000154912 -0.0317204 1.5 -0.0001549 -0.031923 1.6
-0.000154882 -0.0320993 1.7 -0.00015486 -0.032254 1.8 -0.000154838 -0.0323908 1.9 -0.000154819
-0.0325125 2 -0.000154801 -0.0326216 2.1 -0.000154784 -0.0327198 2.2 -0.00015477 -0.0328087
2.3 -0.000154756 -0.0328896 2.4 -0.000154745 -0.0329633 2.5 -0.000154738 -0.0330309 2.6
-0.000154731 -0.0330929 2.7 -0.000154724 -0.0331501 2.8 -0.000154717 -0.0332028 2.9 -0.000154711
-0.0332515 3 -0.000154705 -0.0332965 3.1 -0.0001547 -0.0333383 3.2 -0.000154696 -0.0333771
3.3 -0.000154692 -0.0334131 3.4 -0.000154692 -0.0334466 3.5 -0.000154692 -0.0334777 3.6
-0.000154689 -0.0335066 3.7 -0.000154687 -0.0335335 3.8 -0.000154686 -0.0335584 3.9 -0.000154687
-0.0335816 4 -0.000154689 -0.0336032 4.1 -0.000154693 -0.0336232 4.2 -0.000154702 -0.0336418
4.3 -0.000154713 -0.033659 4.4 -0.00015472 -0.0336749 4.5 -0.000154722 -0.0336895 4.6
-0.000154727 -0.033703 4.7 -0.000154733 -0.0337154 4.8 -0.000154741 -0.0337268 4.9 -0.000154748
-0.0337372 5 -0.000154754 -0.0337466 5.1 -0.000154764 -0.0337551 5.2 -0.000154778 -0.0337627
5.3 -0.000154792 -0.0337694 5.4 -0.000154807 -0.0337754 5.5 -0.000154822 -0.0337805 5.6
-0.000154837 -0.0337849 5.7 -0.000154851 -0.0337885 5.8 -0.000154863 -0.0337914 5.9 -0.000154865
-0.0337935 6 -0.000154866 -0.0337949 -1.61646e-16 3.29607e-17 -0.01 6.19883e-06 -1.66252e-09 -0.0100005
5.37297e-05 -1.441e-08 -0.0100046 0.100001 -2.6274e-05 -0.0186518 0.2 -4.01987e-05 -0.0233973 0.3
-4.74801e-05 -0.0263524 0.4 -5.14615e-05 -0.0283919 0.5 -5.36249e-05 -0.0298688 0.6 -5.48355e-05
-0.0309865 0.7 -5.55256e-05 -0.0318598 0.8 -5.59234e-05 -0.0325558 0.9 -5.61512e-05 -0.033119
1 -5.62819e-05 -0.0335806 1.1 -5.63579e-05 -0.0339635 1.2 -5.63968e-05 -0.0342845 1.3
-5.64194e-05 -0.0345563 1.4 -5.64351e-05 -0.034789 1.5 -5.64401e-05 -0.0349899 1.6 -5.6438e-05
-0.0351649 1.7 -5.64313e-05 -0.0353186 1.8 -5.64229e-05 -0.0354546 1.9 -5.64154e-05 -0.0355757
2 -5.64071e-05 -0.0356843 2.1 -5.63986e-05 -0.0357821 2.2 -5.63922e-05 -0.0358706 2.3
[...]
POINT_DATA 820
FIELD attributes 2
age 1 820 float
0 2.26125e-06 0.000642864 0.0012973 0.00147577 0.00199452 0.00277273 0.0047704 0.00576113 0.00614149 0.00790475
0.00869505 0.00959953 0.0114193 0.011682 0.0138365 0.0143873 0.0144775 0.0167463 0.0171696 0.0176016
0.0196793 0.0198133 0.0209912 0.0219188 0.0232111 0.024149 0.0249386 0.0264951 0.0272983 0.028266
0.0289143 0.0313283 0.0314147 0.0316503 0.0338231 0.0367899 0.0390565 0.0439702 0.0468121 0.0492595
0.0547107 0.0656515 0.0663936 0.0763217 0.0867716 0.0970876 0.107315 0.117484 0.127612 0.137712
0.147791 0.157854 0.167905 0.177946 0.18798 0.198008 0.208031 0.21805 0.228067 0.23808
0.248092 0.258102 0.26811 0.278117 0.288123 0.298128 0.308132 0.318135 0.328138 0.338141
0.348143 0.358144 0.368146 0.378147 0.388147 0.398148 0.408148 0.418148 0.428148 0.438148
0.448148 0.458148 0.468147 0.478147 0.488146 0.498146 0.508145 0.518144 0.528143 0.538143
0.548142 0.558141 0.56814 0.578139 0.588138 0.598137 0.608136 0.618135 0.628134 0.638133
0 1.52966e-05 0.00601792 0.0118845 0.0232969 0.0342868 0.0449096 0.0553355 0.0656432 0.0758728
0.0860477 0.0961833 0.10629 0.116374 0.126442 0.136497 0.146542 0.156579 0.16661 0.176635
0.186657 0.196674 0.206689 0.216702 0.226713 0.236722 0.246729 0.256736 0.266741 0.276746
0.28675 0.296753 0.306756 0.316758 0.32676 0.336762 0.346763 0.356764 0.366765 0.376765
0.386766 0.396766 0.406766 0.416766 0.426765 0.436765 0.446765 0.456764 0.466764 0.476763
0.486763 0.496762 0.506761 0.51676 0.526759 0.536759 0.546758 0.556757 0.566756 0.576755
0.586754 0.596753 0.606752 0 2.42098e-06 0.0108005 0.0213434 0.0317292 0.0420131 0.052229
0.0623961 0.0725272 0.0826312 0.0927144 0.102782 0.112836 0.122881 0.132918 0.142949 0.152974
0.162995 0.173013 0.183028 0.193041 0.203052 0.213061 0.223069 0.233075 0.243081 0.253085
0.263089 0.273093 0.283095 0.293098 0.3031 0.313101 0.323102 0.333103 0.343104 0.353105
0.363105 0.373105 0.383105 0.393105 0.403105 0.413104 0.423104 0.433104 0.443103 0.453102
0.463102 0.473101 0.4831 0.4931 0.503099 0.513098 0.523097 0.533096 0.543095 0.553094
0.563093 0.573092 0.583091 0 0 0 0.0103791 0.0206581 0.0308708 0.0410359
0.0511656 0.0612687 0.0713514 0.0814182 0.0914726 0.101517 0.111554 0.121585 0.13161 0.141631
0.151649 0.161664 0.171677 0.181687 0.191697 0.201704 0.211711 0.221716 0.231721 0.241725
0.251728 0.261731 0.271733 0.281735 0.291737 0.301738 0.311739 0.321739 0.33174 0.34174
0.351741 0.361741 0.37174 0.38174 0.39174 0.40174 0.411739 0.421739 0.431738 0.441737
0.451736 0.461736 0.471735 0.481734 0.491733 0.501732 0.511732 0.521731 0.53173 0.541729
0.551728 0.561727 0 0.000322359 0.00165001 0.00333112 0.00666667 0.00797199 0.00824477 0.00995852
0.0131858 0.018322 0.0191197 0.0245656 0.0353806 0.0459007 0.0562745 0.0665718 0.0768183 0.0870253
0.097198 0.107341 0.117459 0.127555 0.137635 0.147701 0.157755 0.1678 0.177837 0.187868
0.197894 0.207916 0.217934 0.22795 0.237963 0.247974 0.257983 0.267991 0.277998 0.288004
0.298008 0.308012 0.318016 0.328019 0.338021 0.348023 0.358025 0.368026 0.378027 0.388028
0.398028 0.408029 0.418029 0.428029 0.438029 0.448029 0.458029 0.468028 0.478028 0.488027
0.498027 0.508026 0.518025 0.528025 0.538024 0.548023 0.558022 0.568021 0.578021 0.58802
0.598019 0.608018 0.618017 0.628016 0 6.71835e-07 5.82326e-06 0.0107818 0.0213028 0.031678
0.0419764 0.0522236 0.0624312 0.0726044 0.0827477 0.0928656 0.102963 0.113042 0.123108 0.133162
0.143207 0.153245 0.163276 0.173302 0.183324 0.193342 0.203358 0.213371 0.223382 0.233391
0.243399 0.253406 0.263412 0.273417 0.283421 0.293424 0.303427 0.31343 0.323432 0.333433
0.343434 0.353435 0.363436 0.373437 0.383437 0.393437 0.403438 0.413437 0.423437 0.433437
0.443437 0.453436 0.463436 0.473435 0.483434 0.493434 0.503433 0.513432 0.523432 0.533431
0.54343 0.553429 0.563428 0.573427 0.583426 0.593425 0.603424 0 0 9.56227e-07
0.0103694 0.0206635 0.0309076 0.0411129 0.0512843 0.0614262 0.071543 0.0816391 0.0917181 0.101783
0.111837 0.121882 0.131919 0.14195 0.151976 0.161997 0.172015 0.182031 0.192044 0.202055
0.212064 0.222072 0.232079 0.242084 0.252089 0.262093 0.272097 0.282099 0.292102 0.302104
0.312105 0.322107 0.332108 0.342108 0.352109 0.362109 0.372109 0.38211 0.392109 0.402109
0.412109 0.422109 0.432108 0.442108 0.452107 0.462106 0.472106 0.482105 0.492104 0.502103
0.512103 0.522102 0.532101 0.5421 0.552099 0.562098 0.572097 0.582096 0 2.27399e-17
2.27189e-07 0.0102427 0.0204469 0.0306175 0.0407587 0.050875 0.0609707 0.0710494 0.0811143 0.0911679
0.101212 0.111249 0.12128 0.131306 0.141327 0.151345 0.161361 0.171374 0.181385 0.191394
0.201402 0.211408 0.221414 0.231419 0.241423 0.251426 0.261429 0.271431 0.281433 0.291435
0.301436 0.311437 0.321438 0.331438 0.341439 0.351439 0.361439 0.371439 0.381439 0.391439
0.401438 0.411438 0.421437 0.431437 0.441436 0.451435 0.461434 0.471434 0.481433 0.491432
0.501431 0.51143 0.521429 0.531428 0.541427 0.551427 0.561426 0 2.16268e-06 0.000642581
0.00129797 0.00147694 0.00198687 0.00277374 0.00477233 0.00576561 0.00614452 0.00790936 0.00870376 0.00960637
0.0114336 0.0116918 0.0138461 0.0144105 0.0145059 0.0167431 0.017202 0.0176796 0.0196849 0.0197418
0.0211204 0.0219106 0.0231553 0.0241422 0.0249354 0.0265116 0.0275859 0.0281768 0.0290072 0.0312279
0.0315578 0.0323311 0.0337003 0.0367796 0.0391137 0.0441644 0.0459042 0.0495327 0.0550124 0.0659861
0.0719556 0.0766244 0.0870725 0.097387 0.107613 0.117782 0.127911 0.138011 0.148089 0.158152
0.168203 0.178244 0.188278 0.198306 0.20833 0.218349 0.228365 0.238379 0.248391 0.258401
0.268409 0.278416 0.288422 0.298427 0.308431 0.318434 0.328437 0.33844 0.348442 0.358443
0.368445 0.378446 0.388446 0.398447 0.408447 0.418447 0.428447 0.438447 0.448447 0.458447
0.468446 0.478446 0.488445 0.498445 0.508444 0.518443 0.528442 0.538442 0.548441 0.55844
0.568439 0.578438 0.588437 0.598436 0.608435 0.618434 0.628433 0.638432 0 1.4791e-05
0.00601116 0.011869 0.0232691 0.0342545 0.0448932 0.0553225 0.0656318 0.0758619 0.086037 0.0961728
0.106279 0.116364 0.126432 0.136487 0.146532 0.156569 0.1666 0.176625 0.186646 0.196664
0.206679 0.216692 0.226703 0.236712 0.246719 0.256726 0.266731 0.276736 0.28674 0.296743
0.306746 0.316748 0.32675 0.336752 0.346753 0.356754 0.366755 0.376755 0.386755 0.396756
0.406756 0.416756 0.426755 0.436755 0.446755 0.456754 0.466754 0.476753 0.486752 0.496752
0.506751 0.51675 0.526749 0.536748 0.546748 0.556747 0.566746 0.576745 0.586744 0.596743
0.606742 0 2.4242e-06 0.0107977 0.0213435 0.0317303 0.0420147 0.0522307 0.0623979 0.0725291
0.0826331 0.0927163 0.102783 0.112838 0.122883 0.13292 0.142951 0.152976 0.162997 0.173015
0.18303 0.193043 0.203054 0.213063 0.22307 0.233077 0.243083 0.253087 0.263091 0.273094
0.283097 0.2931 0.303101 0.313103 0.323104 0.333105 0.343106 0.353106 0.363107 0.373107
0.383107 0.393107 0.403107 0.413106 0.423106 0.433105 0.443105 0.453104 0.463104 0.473103
0.483102 0.493101 0.503101 0.5131 0.523099 0.533098 0.543097 0.553096 0.563095 0.573094
0.583093 0 4.60774e-17 0.0103787 0.0206576 0.0308703 0.0410353 0.0511651 0.0612682 0.0713508
0.0814176 0.0914721 0.101517 0.111553 0.121584 0.131609 0.141631 0.151649 0.161664 0.171676
0.181687 0.191696 0.201704 0.21171 0.221716 0.23172 0.241724 0.251728 0.26173 0.271733
0.281734 0.291736 0.301737 0.311738 0.321739 0.331739 0.34174 0.35174 0.36174 0.37174
0.38174 0.391739 0.401739 0.411738 0.421738 0.431737 0.441737 0.451736 0.461735 0.471734
0.481734 0.491733 0.501732 0.511731 0.52173 0.531729 0.541728 0.551727 0.561726 
U 3 820 float
9.73571 -0.582722 1.83789 9.73635 -0.582442 1.83831 8.97553 -0.47332 1.80758 8.33197 -0.397076
1.7558 8.2388 -0.392636 1.73617 7.66764 -0.361984 1.7805 6.76675 -0.313787 1.82848
8.68345 -0.699865 3.30118 7.81307 -1.17195 3.52612 7.56783 -1.2727 3.54369 7.63747
-2.37764 4.71285 7.05251 -2.65153 4.81658 6.18357 -3.12715 4.58772 4.52525 -4.1874
4.14589 4.5193 -4.21189 4.17368 4.36923 -4.38261 4.12212 4.26274 -4.43992 4.11981
4.24739 -4.44476 4.09628 4.80122 -4.15582 3.98299 4.89695 -4.11094 3.95539 4.93322
-4.06568 3.87573 5.49206 -3.76742 3.46213 5.47471 -3.76174 3.48774 5.5948 -3.80399
3.22105 5.54544 -3.58587 3.35681 5.35339 -3.23645 3.50031 5.42645 -3.03346 3.63475
5.35936 -3.01344 3.45107 5.31549 -3.02141 3.68838 5.22499 -2.96872 3.70407 5.0466
-2.91744 3.91122 5.05766 -2.80295 3.87239 4.96818 -2.79182 3.34451 5.06403 -2.72613
3.2993 5.38074 -2.51358 3.20137 8.62742 -0.410633 2.06319 11.0993 0.970271 -0.540126
10.2078 0.340669 -1.58457 9.64134 -0.230889 -2.2185 9.25066 -0.429017 -2.02876 9.17505
-0.43723 -1.72755 9.14096 -0.42224 -1.24367 9.3611 -0.202841 -0.624488 9.37277 -0.202034
-0.600908 9.56949 -0.154898 -0.357779 9.69365 -0.105916 -0.233393 9.77781 -0.0570177 -0.161657
9.83408 -0.0277339 -0.116946 9.87283 -0.010884 -0.0874622 9.90099 -0.00162789 -0.0671618 9.9219
0.00302142 -0.0527621 9.9376 0.00512501 -0.0423148 9.94958 0.0058578 -0.0345552 9.95889 0.00586363
-0.0286766 9.96622 0.00550837 -0.0241422 9.97207 0.00499678 -0.0205866 9.97677 0.0044387 -0.0177559
9.9806 0.00389328 -0.0154703 9.98373 0.0033886 -0.0135996 9.98632 0.00293433 -0.0120501 9.98847
0.00253391 -0.0107525 9.99027 0.0021848 -0.00965305 9.99178 0.00188223 -0.00871261 9.99305 0.00162206
-0.00790128 9.99413 0.00139801 -0.00719469 9.99505 0.0012052 -0.00657467 9.99583 0.00104036 -0.00602652
9.9965 0.000898984 -0.00553878 9.99708 0.000777171 -0.00510206 9.99758 0.000672657 -0.00470826 9.99802
0.000582933 -0.00435191 9.99839 0.000505781 -0.00402834 9.99872 0.000439286 -0.00373279 9.999 0.000381292
-0.00346174 9.99925 0.000331067 -0.00321224 9.99947 0.000288157 -0.00298205 9.99966 0.000250848 -0.00276897
9.99983 0.000218315 -0.0025708 9.99998 0.000190256 -0.00238647 10.0001 0.000165538 -0.00221453 10.0002
0.00014414 -0.00205339 10.0003 0.000125871 -0.00190231 10.0004 0.000109859 -0.0017606 10.0005 9.59381e-05
-0.00162713 10.0006 8.34664e-05 -0.00150114 10.0006 7.25495e-05 -0.00138181 10.0007 6.28012e-05 -0.0012687
10.0008 5.39728e-05 -0.00116125 10.0008 4.66742e-05 -0.0010588 10.0008 4.00949e-05 -0.000961246 10.0009
3.38926e-05 -0.000867494 10.0009 2.86128e-05 -0.00077701 10.0009 2.37887e-05 -0.000689917 10.0009 1.94738e-05
-0.000605688 10.001 1.57492e-05 -0.000524106 10.001 1.22459e-05 -0.000444916 10.001 9.83002e-06 -0.00036795
10.001 7.58113e-06 -0.000291093 10.001 5.68302e-06 -0.00022046 10.001 3.54419e-06 -0.000134874 10.001
1.8372e-06 -8.09655e-05 8.30381 -1.65818 -0.0880945 8.30419 -1.65742 -0.0886998 8.52535 -1.31154
-0.199044 8.76314 -0.958068 -0.244018 9.09952 -0.47716 -0.325968 9.4137 -0.27452 -0.190798
9.59154 -0.180368 -0.138376 9.70143 -0.107011 -0.109871 9.77561 -0.0576841 -0.0884491 9.82808
-0.0289821 -0.071347 9.86621 -0.0126125 -0.0579104 9.8946 -0.00356624 -0.047403 9.91609 0.00114481
-0.0391898 9.93253 0.00339564 -0.032735 9.94526 0.00431676 -0.0276299 9.95525 0.00451601 -0.0235631
9.96317 0.00434105 -0.0202955 9.96951 0.0039906 -0.0176423 9.97463 0.00357408 -0.0154669 9.9788
0.00315112 -0.0136659 9.98222 0.00275123 -0.0121596 9.98504 0.00238707 -0.010889 9.98737 0.00206398
-0.00980718 9.98933 0.00178091 -0.00887671 9.99096 0.00153482 -0.00807016 9.99234 0.00132282 -0.00736568
9.99351 0.00113989 -0.00674522 9.9945 0.0009825 -0.00619518 9.99535 0.000848158 -0.00570425 9.99608
0.000732648 -0.00526345 9.9967 0.000632834 -0.0048653 9.99724 0.000547675 -0.00450398 9.99771 0.000474987
-0.00417538 9.99811 0.00041195 -0.00387457 9.99846 0.000357261 -0.00359784 9.99877 0.000310135 -0.00334332
9.99904 0.000269506 -0.00310818 9.99927 0.000234094 -0.00288969 9.99948 0.000203797 -0.0026869 9.99966
0.000177742 -0.00249806 9.99982 0.000154845 -0.0023218 9.99996 0.000134482 -0.00215675 10.0001 0.000116799
-0.00200135 10.0002 0.000102251 -0.0018557 10.0003 8.94582e-05 -0.00171884 10.0004 7.78001e-05 -0.00158937
10.0005 6.74824e-05 -0.00146707 10.0005 5.87138e-05 -0.00135118 10.0006 5.08674e-05 -0.00124117 10.0007
4.38989e-05 -0.00113677 10.0007 3.78567e-05 -0.00103685 10.0007 3.18845e-05 -0.000940868 10.0008 2.69148e-05
-0.000849227 10.0008 2.30613e-05 -0.00076163 10.0008 1.92997e-05 -0.000676728 10.0009 1.58778e-05 -0.000594239
10.0009 1.28049e-05 -0.00051441 10.0009 9.88292e-06 -0.000436664 10.0009 7.82022e-06 -0.000360969 10.0009
6.00427e-06 -0.00028565 10.0009 4.77294e-06 -0.000216544 10.0009 3.03909e-06 -0.000132151 10.0009 1.42482e-06
-7.8834e-05 9.25874 -0.37164 -0.323734 9.25879 -0.371614 -0.323703 9.4851 -0.254169 -0.20696
9.6285 -0.169046 -0.148141 9.724 -0.0988777 -0.11588 9.78866 -0.053791 -0.0922145 9.83561
-0.0274952 -0.073817 9.8706 -0.0124148 -0.0595508 9.8971 -0.00400194 -0.0485245 9.91746 0.000454623
-0.0399866 9.93326 0.00262915 -0.033322 9.94562 0.00356673 -0.0280735 9.9554 0.0038243 -0.0239045
9.96321 0.00372276 -0.0205614 9.96949 0.00344746 -0.017852 9.97458 0.00310216 -0.0156343 9.97874
0.00274371 -0.0138007 9.98215 0.00240054 -0.012269 9.98497 0.00208586 -0.0109785 9.98732 0.00180543
-0.00988089 9.98928 0.00155896 -0.00893782 9.99092 0.00134429 -0.00812108 9.9923 0.0011591 -0.00740829
9.99348 0.000999098 -0.00678111 9.99448 0.000861231 -0.00622561 9.99533 0.000743593 -0.00573014 9.99606
0.000642371 -0.00528562 9.99669 0.000554736 -0.00488428 9.99723 0.000480187 -0.00452027 9.9977 0.000416666
-0.00418958 9.9981 0.000361244 -0.00388685 9.99846 0.000313139 -0.0036084 9.99876 0.000271963 -0.00335261
9.99903 0.000236357 -0.00311645 9.99927 0.000205181 -0.00289691 9.99948 0.000178718 -0.00269328 9.99966
0.000155986 -0.0025038 9.99982 0.000135863 -0.00232679 9.99996 0.000117808 -0.00216118 10.0001 0.0001022
-0.00200539 10.0002 8.9627e-05 -0.00185925 10.0003 7.8489e-05 -0.00172195 10.0004 6.81835e-05 -0.00159214
10.0005 5.90621e-05 -0.00146955 10.0005 5.13789e-05 -0.00135341 10.0006 4.44928e-05 -0.00124316 10.0007
3.83698e-05 -0.00113852 10.0007 3.31096e-05 -0.00103837 10.0007 2.77641e-05 -0.000942272 10.0008 2.33252e-05
-0.000850556 10.0008 1.99542e-05 -0.000762846 10.0008 1.66933e-05 -0.00067782 10.0009 1.36597e-05 -0.000595211
10.0009 1.10306e-05 -0.000515167 10.0009 8.55523e-06 -0.000437302 10.0009 6.65736e-06 -0.000361545 10.0009
5.11125e-06 -0.000286082 10.0009 4.20375e-06 -0.000216892 10.0009 2.70109e-06 -0.000132329 10.0009 1.20392e-06
-7.88791e-05 9.6347 -0.167097 -0.161157 9.6347 -0.167097 -0.161157 9.6347 -0.167097 -0.161157
9.7286 -0.0974296 -0.123682 9.79174 -0.053078 -0.0970305 9.83762 -0.0272411 -0.0769057 9.87191
-0.0124104 -0.0615907 9.89795 -0.00412047 -0.0499119 9.91801 0.000286788 -0.0409594 9.93362 0.00244776
-0.0340242 9.94587 0.00339099 -0.028592 9.95557 0.00366279 -0.0242939 9.96333 0.00357856 -0.0208579
9.96958 0.00332083 -0.018081 9.97465 0.00299212 -0.0158136 9.97879 0.00264871 -0.0139429 9.98219
0.00231881 -0.012383 9.98501 0.00201568 -0.0110707 9.98735 0.00174522 -0.00995622 9.9893 0.00150728
-0.0089998 9.99094 0.00129993 -0.00817242 9.99232 0.00112101 -0.0074511 9.9935 0.000966359 -0.00681706
9.99449 0.000833045 -0.00625597 9.99534 0.000719303 -0.00575592 9.99607 0.000621403 -0.00530765 9.9967
0.000536609 -0.00490319 9.99724 0.000464536 -0.00453655 9.99771 0.000403129 -0.00420369 9.99811 0.000349482
-0.00389912 9.99847 0.000302921 -0.00361909 9.99877 0.000263119 -0.003362 9.99904 0.000228664 -0.00312474
9.99928 0.000198483 -0.00290422 9.99949 0.000172906 -0.00269976 9.99967 0.00015093 -0.00250958 9.99983
0.000131463 -0.00233191 9.99997 0.000113942 -0.00216576 10.0001 9.8811e-05 -0.0020095 10.0002 8.6703e-05
-0.00186292 10.0003 7.59512e-05 -0.00172523 10.0004 6.59618e-05 -0.0015951 10.0005 5.71194e-05 -0.0014722
10.0006 4.96883e-05 -0.00135579 10.0006 4.30202e-05 -0.0012453 10.0007 3.70876e-05 -0.00114044 10.0007
3.20092e-05 -0.00104007 10.0007 2.68086e-05 -0.000943811 10.0008 2.24871e-05 -0.000851954 10.0008 1.92262e-05
-0.000764097 10.0008 1.60784e-05 -0.000678928 10.0009 1.3123e-05 -0.000596162 10.0009 1.06063e-05 -0.000515946
10.0009 8.2452e-06 -0.000437963 10.0009 6.38122e-06 -0.00036211 10.0009 4.88836e-06 -0.000286507 10.0009
4.05229e-06 -0.000217203 10.0009 2.62285e-06 -0.000132535 10.0009 1.16708e-06 -7.90172e-05 7.42733 0.00549237
1.34418 7.46213 0.00486269 1.34503 7.63257 0.00177544 1.4067 7.58349 -0.00161343 1.40338
7.52932 -0.00555064 0.972157 7.54393 -0.00621265 0.696187 7.54797 -0.00628596 0.63381 7.70628
-0.00636426 0.228573 8.31389 -0.00558369 -0.482583 9.03448 -0.00343326 -0.924782 9.17734 -0.0035783
-0.99685 9.24585 -0.00300234 -0.826626 9.50554 -0.00155652 -0.470641 9.6397 -0.000861708 -0.296633
9.71127 -0.000500554 -0.205327 9.75946 -0.000285184 -0.148733 9.79717 -0.000163813 -0.112518 9.83018
-9.37477e-05 -0.0878593 9.85912 -5.30644e-05 -0.0700121 9.8837 -2.91351e-05 -0.0566365 9.90417 -1.53705e-05
-0.0464171 9.92101 -7.66794e-06 -0.0384914 9.93482 -2.81947e-06 -0.0322644 9.94611 -6.88342e-07 -0.027325
9.95532 1.82949e-07 -0.0233727 9.96284 1.2348e-06 -0.0201803 9.969 1.84122e-06 -0.017575 9.97406
2.16763e-06 -0.0154305 9.97823 2.15391e-06 -0.0136483 9.98169 1.89335e-06 -0.0121535 9.98456 1.82365e-06
-0.0108894 9.98695 1.72219e-06 -0.00981035 9.98895 1.39485e-06 -0.00888209 9.99064 1.3538e-06 -0.00807686
9.99206 1.10616e-06 -0.00737215 9.99327 7.23076e-07 -0.00675103 9.99429 7.01381e-07 -0.00620025 9.99517
6.97616e-07 -0.00570904 9.99592 6.79644e-07 -0.0052678 9.99657 6.18814e-07 -0.00486872 9.99712 5.65673e-07
-0.00450688 9.9976 4.90581e-07 -0.00417792 9.99802 4.89494e-07 -0.00387652 9.99838 3.38933e-07 -0.0035998
9.9987 3.13958e-08 -0.00334497 9.99898 -2.33713e-08 -0.00310915 9.99922 2.60173e-07 -0.00289099 9.99943
2.94856e-07 -0.00268793 9.99962 3.59988e-08 -0.00249804 9.99979 -7.6855e-08 -0.0023216 9.99993 -1.59731e-07
-0.00215696 10 -4.2857e-07 -0.00200178 10.0002 -9.36176e-07 -0.00185565 10.0003 -1.09137e-06 -0.00171827
10.0004 -6.57473e-07 -0.00158898 10.0005 -2.73691e-07 -0.00146662 10.0005 -4.14383e-07 -0.00135069 10.0006
-6.13483e-07 -0.00124114 10.0006 -7.87953e-07 -0.00113652 10.0007 -7.04092e-07 -0.00103619 10.0007 -6.13146e-07
-0.000940697 10.0008 -1.03119e-06 -0.000849398 10.0008 -1.34813e-06 -0.000761312 10.0008 -1.43999e-06 -0.000676458
10.0009 -1.48017e-06 -0.000594402 10.0009 -1.55725e-06 -0.000514443 10.0009 -1.441e-06 -0.000436785 10.0009
-1.39946e-06 -0.000360989 10.0009 -1.23016e-06 -0.000285792 10.0009 -2.16343e-07 -0.000217178 10.0009 -8.65488e-08
-0.000132582 10.0009 -6.81685e-07 -7.89947e-05 9.22672 -0.0024746 -0.781887 9.22674 -0.00247456 -0.78189
9.27496 -0.00243685 -0.802452 9.50475 -0.00132352 -0.451054 9.63835 -0.000701811 -0.28482 9.71029
-0.000386608 -0.198041 9.75872 -0.000211119 -0.144126 9.79662 -0.000118592 -0.109504 9.82975 -6.784e-05
-0.0858345 9.85877 -3.92146e-05 -0.0686217 9.88342 -2.25147e-05 -0.055662 9.90394 -1.29446e-05 -0.0457202
9.92083 -7.54352e-06 -0.0379833 9.93467 -3.85915e-06 -0.031888 9.94599 -2.25471e-06 -0.0270422 9.95522
-1.56204e-06 -0.0231579 9.96276 -4.99717e-07 -0.0200157 9.96893 2.09017e-07 -0.0174474 9.974 6.75321e-07
-0.0153304 9.97818 8.31828e-07 -0.0135689 9.98165 7.50444e-07 -0.0120898 9.98452 8.30726e-07 -0.010838
9.98692 8.45e-07 -0.00976846 9.98893 6.37111e-07 -0.00884767 9.99061 7.13492e-07 -0.00804838 9.99204
5.51554e-07 -0.00734844 9.99325 2.37937e-07 -0.00673116 9.99428 2.8324e-07 -0.00618349 9.99516 3.38291e-07
-0.00569483 9.99591 3.69596e-07 -0.00525567 9.99656 3.51948e-07 -0.00485833 9.99711 3.35035e-07 -0.00449794
9.99759 2.89567e-07 -0.00417017 9.99801 3.17552e-07 -0.00386977 9.99838 1.89318e-07 -0.00359389 9.99869
-9.77329e-08 -0.00333981 9.99897 -1.29444e-07 -0.00310463 9.99921 1.65569e-07 -0.00288698 9.99942 2.04268e-07
-0.00268435 9.99962 -4.78422e-08 -0.00249488 9.99978 -1.45713e-07 -0.00231879 9.99992 -2.13744e-07 -0.00215444
10 -4.79507e-07 -0.00199951 10.0002 -9.78034e-07 -0.00185361 10.0003 -1.1167e-06 -0.00171645 10.0004
-6.91416e-07 -0.00158737 10.0005 -3.19058e-07 -0.00146515 10.0005 -4.41935e-07 -0.00134936 10.0006 -6.27231e-07
-0.00123994 10.0006 -7.99577e-07 -0.00113544 10.0007 -7.12251e-07 -0.00103524 10.0007 -6.21944e-07 -0.00093985