/*--------------------------------*- C++ -*----------------------------------*\
  =========                 |
  \\      /  F ield         | OpenFOAM: The Open Source CFD Toolbox
   \\    /   O peration     | Website:  https://openfoam.org
    \\  /    A nd           | Version:  11
     \\/     M anipulation  |
\*---------------------------------------------------------------------------*/
FoamFile
{
    format      ascii;
    class       volScalarField;
    location    "0.072";
    object      k;
}
// * * * * * * * * * * * * * * * * * * * * * * * * * * * * * * * * * * * * * //

dimensions      [0 2 -2 0 0 0 0];

internalField   nonuniform List<scalar> 
287084
(
0.381272
0.394529
0.408187
0.419519
0.426944
0.430542
0.431414
0.431426
0.431421
0.431369
0.431387
0.431362
0.431493
0.431615
0.431597
0.4316
0.431578
0.431565
0.431399
0.431366
0.431498
0.43147
0.431585
0.431761
0.431759
0.43175
0.431527
0.431506
0.431629
0.431621
0.431705
0.431738
0.431711
0.431723
0.43169
0.43162
0.431436
0.431373
0.431333
0.431283
0.431151
0.43112
0.431102
0.431113
0.431115
0.431083
0.431065
0.430911
0.430897
0.430796
0.430798
0.431047
0.431137
0.43113
0.431126
0.431011
0.43096
0.430915
0.430776
0.430864
0.431
0.430983
0.43097
0.430891
0.43109
0.431201
0.431171
0.431123
0.431019
0.4311
0.431149
0.431108
0.430976
0.430954
0.431125
0.431225
0.431209
0.431231
0.431198
0.431131
0.431115
0.431019
0.431122
0.431304
0.431295
0.431286
0.431173
0.43115
0.431088
0.430882
0.381314
0.39449
0.407972
0.419316
0.426841
0.430594
0.431556
0.431481
0.431471
0.431721
0.431858
0.431789
0.431823
0.431834
0.431797
0.431728
0.431555
0.431562
0.431644
0.431627
0.431552
0.431603
0.432008
0.432102
0.43209
0.432061
0.432039
0.432016
0.431901
0.431781
0.431749
0.431644
0.431725
0.431786
0.431662
0.431683
0.431688
0.431643
0.431449
0.431494
0.431614
0.431616
0.431612
0.431376
0.431358
0.431453
0.431365
0.431456
0.431513
0.43151
0.431506
0.431347
0.431325
0.431282
0.431142
0.431143
0.431167
0.431141
0.431104
0.431079
0.430988
0.431088
0.431333
0.431333
0.431321
0.431132
0.431164
0.431376
0.431389
0.431383
0.431242
0.431332
0.431516
0.431438
0.431431
0.431432
0.431419
0.431363
0.431327
0.431234
0.431298
0.431336
0.43131
0.431237
0.431289
0.431409
0.431305
0.431296
0.431285
0.431104
0.381318
0.394477
0.407955
0.419325
0.426721
0.430552
0.431801
0.43188
0.43186
0.431845
0.431807
0.431689
0.431741
0.431777
0.431751
0.431681
0.431684
0.431897
0.431928
0.431891
0.431747
0.431708
0.431808
0.43205
0.43209
0.432061
0.432064
0.432036
0.432039
0.431991
0.431959
0.431919
0.431887
0.43184
0.431825
0.431823
0.431789
0.431735
0.431514
0.431538
0.431618
0.431417
0.431481
0.431544
0.43154
0.431537
0.431315
0.431351
0.43155
0.431561
0.431527
0.431518
0.431479
0.431408
0.431224
0.431172
0.431195
0.431163
0.431152
0.431134
0.431089
0.431188
0.431251
0.431226
0.431153
0.431139
0.43144
0.431506
0.431485
0.431488
0.431446
0.431439
0.431381
0.431173
0.431161
0.431204
0.431191
0.43115
0.431165
0.431181
0.431008
0.431005
0.431222
0.431315
0.431262
0.431316
0.43134
0.431327
0.431319
0.431069
0.381292
0.394493
0.407986
0.41924
0.426659
0.430559
0.43186
0.431954
0.431923
0.431829
0.431891
0.431982
0.431974
0.43197
0.431762
0.431803
0.431953
0.43183
0.431907
0.431964
0.431863
0.43186
0.431859
0.431726
0.431777
0.431823
0.431775
0.431767
0.43162
0.431726
0.43199
0.431945
0.43194
0.431948
0.431956
0.431916
0.431905
0.431843
0.431672
0.431581
0.431551
0.431547
0.431505
0.431422
0.431415
0.431363
0.431435
0.431469
0.431417
0.431245
0.431253
0.431343
0.431362
0.431324
0.431279
0.431275
0.43123
0.431094
0.431088
0.431351
0.431437
0.431411
0.431377
0.43133
0.431129
0.431155
0.431344
0.431193
0.431222
0.43141
0.431456
0.431433
0.431407
0.43138
0.431212
0.431161
0.431363
0.431541
0.431456
0.43145
0.43145
0.431446
0.431347
0.431385
0.431441
0.431396
0.431251
0.431276
0.431334
0.431113
0.381287
0.394503
0.407977
0.419179
0.426754
0.430516
0.431557
0.431803
0.43185
0.431818
0.431726
0.431741
0.431842
0.431849
0.431848
0.431745
0.431733
0.431624
0.431686
0.43174
0.43171
0.43167
0.431633
0.431837
0.431898
0.431797
0.431788
0.431799
0.43179
0.43184
0.431882
0.431827
0.431822
0.431825
0.431824
0.43175
0.431555
0.431645
0.431872
0.431863
0.431867
0.431806
0.431763
0.431716
0.431725
0.431691
0.431668
0.431631
0.431581
0.431485
0.431261
0.431204
0.431188
0.431131
0.431157
0.431111
0.431078
0.430996
0.431093
0.431199
0.431125
0.431125
0.431066
0.431059
0.431043
0.43106
0.430987
0.431084
0.4312
0.431188
0.431208
0.431139
0.431358
0.431525
0.43147
0.431505
0.431513
0.431484
0.431497
0.431475
0.431454
0.431426
0.431366
0.431236
0.431107
0.431219
0.431331
0.431331
0.431327
0.431123
0.381289
0.394481
0.407958
0.419284
0.426757
0.430262
0.431259
0.431423
0.431733
0.431813
0.431747
0.43174
0.431746
0.431731
0.431517
0.431518
0.431681
0.431816
0.431797
0.431705
0.431698
0.431697
0.431601
0.431661
0.431792
0.431666
0.431605
0.431779
0.431941
0.431907
0.431907
0.43191
0.431922
0.431852
0.431611
0.431629
0.431704
0.431531
0.431592
0.431668
0.431604
0.431586
0.431551
0.431551
0.431544
0.431476
0.431267
0.43127
0.431349
0.431359
0.431359
0.431297
0.431207
0.431255
0.43136
0.431357
0.431357
0.431276
0.431216
0.431271
0.431363
0.431323
0.431319
0.431293
0.431149
0.431085
0.431314
0.431465
0.431428
0.431435
0.431443
0.431421
0.431283
0.431185
0.431237
0.431232
0.431338
0.431448
0.431386
0.431383
0.431378
0.431326
0.431184
0.431263
0.431415
0.431405
0.431412
0.43139
0.431331
0.43114
0.381268
0.394484
0.407971
0.419269
0.426775
0.430207
0.431539
0.43171
0.431683
0.431646
0.431573
0.43146
0.431591
0.431986
0.431868
0.431893
0.432224
0.432306
0.432286
0.432294
0.432274
0.432241
0.432191
0.432028
0.432087
0.432186
0.432146
0.432065
0.431987
0.431957
0.431917
0.431926
0.431916
0.431788
0.431824
0.431858
0.431813
0.431746
0.431592
0.431685
0.431756
0.431702
0.431516
0.431489
0.431548
0.431574
0.431574
0.431437
0.431393
0.431407
0.431403
0.431251
0.431291
0.431336
0.431263
0.431262
0.431212
0.431219
0.431188
0.431291
0.43134
0.431306
0.431267
0.431147
0.431137
0.4311
0.431199
0.431274
0.431235
0.431106
0.431119
0.431223
0.431215
0.431189
0.431167
0.431278
0.43132
0.431331
0.431303
0.431293
0.43118
0.431238
0.431388
0.431359
0.431324
0.431159
0.431158
0.431303
0.431311
0.431213
0.381284
0.394469
0.408053
0.419162
0.426518
0.430561
0.432093
0.432425
0.43239
0.432386
0.4323
0.432377
0.432426
0.432378
0.43238
0.432358
0.432342
0.432319
0.432314
0.432162
0.432222
0.432327
0.432245
0.432262
0.432313
0.432298
0.432248
0.432258
0.432204
0.432193
0.432143
0.432108
0.432102
0.432059
0.432005
0.431955
0.431882
0.431654
0.431645
0.431855
0.431871
0.431827
0.431688
0.431621
0.43161
0.431599
0.43163
0.431632
0.431638
0.431598
0.431546
0.431373
0.43143
0.431599
0.431576
0.431571
0.431411
0.43149
0.431559
0.431559
0.431559
0.431514
0.431438
0.43138
0.431346
0.431298
0.431144
0.431145
0.431285
0.431192
0.43127
0.431393
0.431394
0.431393
0.431222
0.431191
0.431438
0.43153
0.431496
0.431493
0.431443
0.431348
0.43121
0.431339
0.431464
0.431421
0.431299
0.431265
0.4313
0.431125
0.381281
0.394473
0.407981
0.419277
0.426639
0.430395
0.4316
0.431678
0.431656
0.431653
0.4315
0.431551
0.43202
0.432103
0.432004
0.43204
0.43205
0.431985
0.432121
0.432339
0.432241
0.43229
0.432304
0.432143
0.432217
0.432318
0.432252
0.432273
0.432326
0.432308
0.432256
0.432254
0.432183
0.432023
0.431904
0.431856
0.431778
0.431744
0.431696
0.431531
0.431538
0.43167
0.43154
0.431501
0.431641
0.431686
0.431593
0.431658
0.431687
0.431673
0.431668
0.431534
0.431525
0.431491
0.431413
0.43122
0.431122
0.43127
0.431339
0.431291
0.431156
0.431119
0.431328
0.43139
0.431339
0.431336
0.431316
0.431224
0.431098
0.431279
0.431463
0.431474
0.431475
0.431406
0.431388
0.431251
0.43118
0.43141
0.43159
0.431513
0.431569
0.431589
0.431535
0.43139
0.431303
0.431307
0.43127
0.431283
0.43127
0.431121
0.381313
0.394374
0.408064
0.419278
0.426627
0.430361
0.431437
0.431486
0.431393
0.431423
0.431749
0.431833
0.431787
0.431624
0.431594
0.431752
0.431734
0.431833
0.431924
0.431884
0.431741
0.43177
0.431895
0.43181
0.431852
0.431862
0.431829
0.431758
0.431879
0.432027
0.431943
0.431944
0.431923
0.431743
0.431742
0.431806
0.431718
0.431708
0.431699
0.431702
0.431703
0.431722
0.431726
0.431666
0.431525
0.431319
0.431197
0.431216
0.431223
0.431184
0.431053
0.431105
0.431175
0.431129
0.430969
0.430944
0.431019
0.431008
0.430936
0.431035
0.431296
0.431328
0.431292
0.431215
0.4312
0.431096
0.430974
0.431045
0.431198
0.431239
0.431221
0.431209
0.431051
0.431034
0.431142
0.431139
0.431073
0.431161
0.431379
0.431373
0.431359
0.43116
0.431141
0.431419
0.4315
0.431451
0.431448
0.431451
0.431415
0.431162
0.381298
0.394452
0.407994
0.419225
0.426686
0.430452
0.431523
0.431569
0.431476
0.431562
0.431696
0.43168
0.431631
0.431665
0.431796
0.43163
0.431659
0.431889
0.43184
0.431963
0.432209
0.432209
0.43216
0.431956
0.432012
0.432115
0.431891
0.431945
0.432033
0.431999
0.431991
0.431841
0.431924
0.432041
0.432001
0.432032
0.432027
0.431987
0.431947
0.431931
0.431891
0.431811
0.431612
0.431514
0.431422
0.431206
0.431105
0.431254
0.43137
0.431335
0.431215
0.43128
0.431338
0.431295
0.431154
0.431168
0.431207
0.43117
0.431079
0.431086
0.431264
0.431265
0.431231
0.431075
0.431153
0.43126
0.431248
0.431242
0.431064
0.431112
0.431247
0.431228
0.431144
0.431208
0.431291
0.431278
0.431275
0.431091
0.431106
0.431292
0.431302
0.431254
0.43133
0.431476
0.431439
0.431293
0.431301
0.431361
0.431331
0.431194
0.381269
0.394493
0.407972
0.419246
0.426671
0.430382
0.431728
0.431869
0.431866
0.431863
0.431711
0.431685
0.431887
0.432248
0.432234
0.432116
0.432118
0.432109
0.431983
0.431974
0.432109
0.432116
0.432174
0.432187
0.43208
0.432175
0.43233
0.432271
0.432279
0.432267
0.43227
0.432246
0.432249
0.432205
0.43217
0.432145
0.43214
0.432063
0.431919
0.431776
0.431658
0.431565
0.431475
0.431194
0.431164
0.431228
0.431256
0.431259
0.431107
0.43109
0.431056
0.431168
0.431401
0.431369
0.431404
0.431368
0.431306
0.431292
0.431263
0.431216
0.431181
0.431136
0.430995
0.431007
0.431333
0.431377
0.431351
0.43134
0.431181
0.431267
0.431417
0.43141
0.431405
0.431226
0.431282
0.431379
0.431359
0.431346
0.43115
0.431225
0.431352
0.431323
0.431223
0.431221
0.431399
0.431457
0.431428
0.431391
0.431341
0.431102
0.381288
0.394457
0.408078
0.419116
0.426548
0.430589
0.431983
0.432095
0.431959
0.432023
0.432204
0.432089
0.432045
0.432073
0.432
0.432065
0.432352
0.432382
0.432332
0.432152
0.432176
0.432354
0.432335
0.432264
0.43234
0.432465
0.43232
0.432398
0.432437
0.432409
0.432412
0.432374
0.432313
0.432232
0.432055
0.431873
0.431875
0.431873
0.431822
0.431726
0.431614
0.431622
0.431633
0.431578
0.431393
0.431373
0.43147
0.431429
0.431515
0.431543
0.431468
0.431467
0.431469
0.431444
0.431296
0.431255
0.431304
0.431306
0.43126
0.431139
0.431256
0.431415
0.43136
0.4314
0.431416
0.431373
0.431215
0.431176
0.431231
0.431155
0.431244
0.431349
0.431352
0.431352
0.431159
0.431163
0.431433
0.431479
0.431429
0.431256
0.431243
0.431367
0.431366
0.431371
0.43137
0.431264
0.431278
0.431331
0.431305
0.431177
0.381296
0.394444
0.407959
0.419318
0.426744
0.430197
0.431458
0.431567
0.431363
0.431433
0.431561
0.431391
0.431478
0.431572
0.431386
0.431379
0.431565
0.431553
0.43169
0.431903
0.431867
0.4318
0.431845
0.432001
0.432085
0.432246
0.432089
0.432173
0.432257
0.432226
0.43219
0.43215
0.432103
0.432057
0.431974
0.431885
0.431823
0.431641
0.43168
0.431745
0.431639
0.431659
0.431702
0.431713
0.43168
0.431627
0.431446
0.431485
0.431544
0.431547
0.431547
0.431453
0.43141
0.43127
0.431284
0.431294
0.431253
0.431133
0.431197
0.431309
0.43131
0.43131
0.431109
0.431161
0.431248
0.431229
0.431235
0.431145
0.431167
0.431152
0.431281
0.431366
0.431362
0.431361
0.431235
0.431217
0.431096
0.431126
0.431351
0.431249
0.431288
0.431536
0.43161
0.43159
0.431571
0.431382
0.431362
0.431476
0.431474
0.431333
0.381285
0.394469
0.408047
0.419172
0.426487
0.430576
0.43212
0.432274
0.432133
0.4322
0.43236
0.432167
0.432227
0.432364
0.43224
0.432242
0.432234
0.432116
0.432122
0.432245
0.432167
0.432237
0.432442
0.432438
0.432398
0.43246
0.432475
0.432395
0.432424
0.432429
0.432395
0.432384
0.432375
0.432329
0.432284
0.432234
0.432179
0.432109
0.431935
0.431816
0.43172
0.431534
0.431258
0.431295
0.431418
0.431372
0.431383
0.43134
0.431235
0.431129
0.431107
0.431119
0.431075
0.431188
0.431339
0.431307
0.431325
0.431305
0.431276
0.431212
0.431139
0.431268
0.431454
0.431423
0.431298
0.431318
0.431487
0.431494
0.431459
0.431235
0.431214
0.431333
0.431346
0.431308
0.431121
0.431147
0.431439
0.431465
0.431418
0.431241
0.431246
0.431378
0.431294
0.431363
0.431387
0.431343
0.431206
0.431237
0.431303
0.431101
0.381294
0.394524
0.407933
0.419192
0.426743
0.430286
0.431717
0.431877
0.431813
0.431693
0.431689
0.431808
0.431801
0.431753
0.431672
0.431855
0.432014
0.431982
0.431856
0.43189
0.431995
0.431824
0.431835
0.432024
0.432036
0.431969
0.432074
0.432194
0.432041
0.43199
0.43198
0.43198
0.4319
0.431934
0.431963
0.431901
0.431893
0.431859
0.431855
0.431866
0.431873
0.431844
0.431781
0.431739
0.431701
0.431626
0.431466
0.431244
0.431177
0.431007
0.431045
0.43127
0.431283
0.431236
0.431071
0.431159
0.431367
0.431302
0.431524
0.431734
0.431745
0.431746
0.431561
0.431599
0.431633
0.431491
0.431589
0.431668
0.431665
0.431665
0.431627
0.431595
0.43136
0.431369
0.43142
0.431385
0.431263
0.431288
0.43132
0.431213
0.431148
0.431277
0.431509
0.431492
0.431458
0.431285
0.431322
0.43136
0.431315
0.431177
0.381283
0.394489
0.408037
0.41919
0.426438
0.430488
0.43225
0.432492
0.432484
0.43248
0.432331
0.432416
0.432517
0.432496
0.432506
0.432489
0.432472
0.43236
0.432234
0.432266
0.43237
0.432356
0.432354
0.432227
0.432272
0.432447
0.43241
0.432412
0.432431
0.43243
0.432339
0.432334
0.432301
0.43226
0.432223
0.432153
0.432098
0.43204
0.431982
0.431933
0.43186
0.431724
0.431407
0.431264
0.43119
0.431154
0.431152
0.431129
0.431096
0.430899
0.43091
0.431087
0.431089
0.431098
0.431019
0.431091
0.431448
0.43147
0.431398
0.431359
0.431319
0.43121
0.431269
0.431423
0.43137
0.43136
0.43137
0.431384
0.431364
0.431355
0.431256
0.431144
0.431245
0.431441
0.431415
0.431379
0.431255
0.431211
0.431256
0.431237
0.431347
0.431414
0.43139
0.431382
0.431279
0.431254
0.431222
0.431152
0.431128
0.431065
0.381283
0.39448
0.408021
0.41923
0.426417
0.430557
0.432273
0.432486
0.432352
0.432437
0.432507
0.4325
0.432499
0.432276
0.43233
0.432447
0.432231
0.432244
0.432388
0.432361
0.432318
0.432404
0.432512
0.432384
0.432474
0.432609
0.432579
0.432542
0.432517
0.432518
0.432481
0.432461
0.432402
0.432391
0.432328
0.432264
0.432199
0.432079
0.431911
0.431765
0.431687
0.431568
0.431432
0.431366
0.431301
0.431224
0.431026
0.430959
0.431184
0.431282
0.431274
0.431273
0.431199
0.431102
0.431114
0.431372
0.431442
0.431257
0.43133
0.431499
0.431337
0.431423
0.431527
0.431527
0.431527
0.431371
0.431364
0.431333
0.431276
0.431215
0.431352
0.431595
0.431589
0.431556
0.431564
0.431525
0.43141
0.431397
0.431383
0.43139
0.431347
0.431189
0.431224
0.431404
0.431418
0.431416
0.431209
0.431227
0.431311
0.431114
0.381284
0.394482
0.408059
0.419147
0.426484
0.430537
0.432084
0.432402
0.432377
0.432239
0.432279
0.432381
0.432344
0.432346
0.432322
0.432333
0.43228
0.432189
0.43222
0.432384
0.432386
0.43239
0.432259
0.432315
0.432433
0.432313
0.432306
0.43229
0.432311
0.432293
0.432289
0.43225
0.43219
0.432097
0.431995
0.431739
0.431661
0.431751
0.431807
0.431769
0.431731
0.431727
0.431687
0.431645
0.431574
0.43151
0.431439
0.431321
0.43097
0.430933
0.431155
0.431181
0.431149
0.431108
0.430992
0.431054
0.431425
0.431436
0.431319
0.431379
0.431527
0.431363
0.431445
0.431557
0.431556
0.431554
0.431363
0.431405
0.431449
0.431274
0.431338
0.431443
0.431242
0.431308
0.431429
0.431432
0.431432
0.431245
0.4313
0.431496
0.431491
0.431457
0.431454
0.431399
0.431169
0.43116
0.431225
0.431242
0.431242
0.431039
0.38125
0.394565
0.407964
0.419172
0.426588
0.430532
0.431867
0.432015
0.43198
0.431852
0.431903
0.431993
0.431963
0.43192
0.431832
0.431872
0.431822
0.431946
0.432126
0.432047
0.432042
0.432017
0.432191
0.43243
0.432571
0.432547
0.432543
0.432541
0.432457
0.432444
0.432441
0.43245
0.432394
0.432345
0.432272
0.432228
0.432126
0.432025
0.431949
0.431857
0.43172
0.431638
0.431515
0.431372
0.431281
0.431019
0.430992
0.431017
0.431026
0.431027
0.430858
0.431009
0.431628
0.431669
0.431586
0.431653
0.43185
0.431887
0.431852
0.431787
0.431671
0.43164
0.431647
0.431555
0.431638
0.431689
0.431653
0.431592
0.43154
0.43157
0.431557
0.431628
0.431652
0.431603
0.431409
0.43143
0.431492
0.431392
0.431395
0.431367
0.431347
0.431325
0.431283
0.431182
0.431162
0.431158
0.431141
0.431177
0.431139
0.430999
0.381294
0.394471
0.407976
0.419239
0.426713
0.43038
0.431316
0.431271
0.431285
0.431561
0.431675
0.431676
0.431677
0.431477
0.431511
0.431746
0.431764
0.43177
0.431699
0.431757
0.432255
0.432561
0.432443
0.432542
0.432605
0.432524
0.432517
0.432532
0.432552
0.432525
0.432474
0.432422
0.432366
0.432299
0.43219
0.431946
0.431723
0.431693
0.431653
0.431613
0.431583
0.431553
0.431515
0.431456
0.431339
0.431111
0.431131
0.431212
0.431102
0.431157
0.431211
0.431169
0.431169
0.43114
0.431117
0.430919
0.430945
0.431044
0.430995
0.430991
0.430914
0.430982
0.431018
0.430978
0.430857
0.430862
0.431023
0.431028
0.430999
0.430988
0.431132
0.431147
0.431278
0.431462
0.431452
0.431436
0.431229
0.431202
0.431325
0.431289
0.431384
0.431426
0.431382
0.43124
0.431252
0.431287
0.431079
0.431121
0.431261
0.43107
0.38129
0.394454
0.408087
0.419103
0.42656
0.430597
0.432027
0.432164
0.432163
0.43216
0.431982
0.432003
0.432169
0.432162
0.432178
0.432181
0.432212
0.43221
0.432222
0.432117
0.432182
0.43246
0.432404
0.432465
0.432575
0.432523
0.43252
0.43252
0.432539
0.432536
0.432456
0.432278
0.432183
0.432096
0.432052
0.432001
0.431901
0.431863
0.431815
0.431773
0.4317
0.431649
0.431581
0.431537
0.431483
0.431379
0.431134
0.430969
0.431026
0.431122
0.431078
0.430908
0.430889
0.431334
0.431653
0.431639
0.431557
0.431622
0.43182
0.431744
0.431774
0.431737
0.431614
0.431694
0.431807
0.431723
0.431716
0.43166
0.431539
0.431444
0.431466
0.431404
0.431477
0.431662
0.431576
0.431681
0.431768
0.431625
0.431713
0.431771
0.431765
0.431761
0.431632
0.431455
0.431402
0.431394
0.431355
0.431382
0.431336
0.431112
0.381284
0.394473
0.408039
0.419195
0.426454
0.430619
0.432051
0.432085
0.432211
0.432403
0.432247
0.432301
0.432337
0.432301
0.432191
0.432217
0.432396
0.432358
0.432302
0.432394
0.432558
0.432546
0.432514
0.432615
0.432776
0.43263
0.432696
0.432716
0.43266
0.43265
0.432618
0.432605
0.432537
0.432462
0.432361
0.432138
0.432016
0.431908
0.431694
0.431404
0.431426
0.431478
0.431422
0.431416
0.431396
0.431358
0.431106
0.431099
0.431284
0.431316
0.431268
0.431125
0.431057
0.431335
0.431671
0.431818
0.43189
0.431777
0.431866
0.43191
0.431864
0.431715
0.431744
0.431861
0.431755
0.431758
0.431706
0.431524
0.431518
0.43164
0.431579
0.431695
0.431786
0.431625
0.431717
0.431806
0.431803
0.431802
0.431576
0.431623
0.431674
0.431521
0.431592
0.431637
0.43161
0.431589
0.431352
0.431359
0.431391
0.431189
0.381307
0.394446
0.407955
0.419343
0.426596
0.430386
0.431542
0.431661
0.431624
0.431483
0.43156
0.431638
0.431584
0.431514
0.431625
0.431968
0.431884
0.432019
0.432444
0.432423
0.432425
0.432428
0.432432
0.432433
0.432436
0.432436
0.432356
0.432437
0.43249
0.432379
0.432389
0.432369
0.432336
0.432301
0.432289
0.432259
0.432178
0.43204
0.431719
0.43152
0.43144
0.431232
0.431273
0.431331
0.431201
0.43119
0.43119
0.431179
0.431174
0.431144
0.431109
0.431037
0.431001
0.431043
0.431044
0.430924
0.430946
0.431111
0.431031
0.43111
0.431144
0.431124
0.431088
0.431191
0.431478
0.431462
0.431469
0.43146
0.431441
0.431244
0.431303
0.43143
0.431422
0.431423
0.431359
0.431358
0.431317
0.431231
0.431264
0.431391
0.431363
0.431336
0.43133
0.431181
0.431221
0.431386
0.431383
0.431383
0.431341
0.43117
0.381263
0.394521
0.408
0.419144
0.426658
0.430485
0.431904
0.432031
0.432012
0.431958
0.431973
0.432081
0.432066
0.432104
0.432124
0.432082
0.432089
0.431993
0.432074
0.432225
0.432206
0.432183
0.432136
0.432274
0.432306
0.432251
0.43238
0.432522
0.432525
0.432522
0.432461
0.432353
0.432171
0.432107
0.432047
0.431988
0.43194
0.431885
0.43184
0.431776
0.431641
0.431556
0.431491
0.431404
0.431216
0.431043
0.430923
0.430887
0.43088
0.430809
0.430759
0.430975
0.431129
0.43111
0.43109
0.430957
0.430914
0.430783
0.430752
0.430873
0.430881
0.431011
0.431153
0.431022
0.4311
0.431241
0.431213
0.431178
0.43106
0.430982
0.431106
0.431188
0.431054
0.431141
0.431262
0.431041
0.431022
0.431222
0.431296
0.431252
0.431096
0.431151
0.431367
0.431304
0.431316
0.431389
0.431397
0.431416
0.431387
0.431083
0.381287
0.394462
0.40807
0.41913
0.426537
0.430607
0.431997
0.432109
0.432
0.432093
0.432301
0.432119
0.432163
0.432374
0.432377
0.432347
0.432417
0.43248
0.432347
0.432421
0.432461
0.43232
0.432403
0.432624
0.432557
0.432623
0.432689
0.432668
0.432674
0.432631
0.432575
0.432526
0.432443
0.432384
0.432274
0.432028
0.431878
0.431803
0.431699
0.431631
0.43158
0.431533
0.43151
0.431483
0.431448
0.431397
0.431284
0.430974
0.430883
0.430998
0.431081
0.431043
0.430896
0.430956
0.431112
0.431132
0.431095
0.430884
0.430927
0.43106
0.431047
0.430988
0.430982
0.431158
0.431108
0.431218
0.431291
0.431273
0.431272
0.4312
0.431186
0.431127
0.430989
0.431114
0.431356
0.43136
0.431361
0.431237
0.431321
0.431368
0.431347
0.431335
0.431097
0.431143
0.431308
0.431312
0.431309
0.431204
0.431179
0.431053
0.381283
0.394479
0.40802
0.419233
0.426417
0.430566
0.432262
0.432531
0.432497
0.432324
0.432316
0.432408
0.432251
0.43233
0.432473
0.432269
0.43229
0.432449
0.432429
0.432376
0.43246
0.432558
0.432419
0.43251
0.432717
0.432659
0.432672
0.432658
0.43261
0.432571
0.432574
0.432529
0.432494
0.432484
0.432434
0.432238
0.432065
0.431941
0.43187
0.431812
0.43176
0.431712
0.43165
0.431608
0.431527
0.431334
0.431285
0.431147
0.431152
0.431164
0.431097
0.430981
0.431048
0.431578
0.431581
0.431704
0.431896
0.431872
0.431871
0.431776
0.431769
0.431727
0.431806
0.43184
0.431767
0.431792
0.431748
0.431607
0.431524
0.431554
0.431524
0.431531
0.431528
0.431543
0.43154
0.431403
0.431407
0.431494
0.431456
0.431509
0.431537
0.431496
0.431411
0.43132
0.431437
0.431527
0.4315
0.431498
0.431431
0.431185
0.381284
0.394473
0.408039
0.419195
0.426453
0.43062
0.432053
0.432088
0.432214
0.432407
0.432231
0.432296
0.432397
0.432363
0.432293
0.432247
0.432322
0.432335
0.432339
0.432312
0.432267
0.432412
0.432647
0.432485
0.432573
0.432726
0.432707
0.432707
0.432693
0.43265
0.432607
0.432577
0.432419
0.432322
0.432244
0.432103
0.432019
0.431919
0.43172
0.431411
0.431434
0.4315
0.431478
0.431474
0.431403
0.431362
0.43113
0.431134
0.431297
0.43131
0.43126
0.431089
0.431052
0.431411
0.431639
0.431505
0.431582
0.431798
0.431809
0.431802
0.431666
0.43156
0.431533
0.431431
0.431488
0.431635
0.431632
0.431638
0.431619
0.431605
0.43143
0.4315
0.431653
0.431527
0.43161
0.431656
0.431597
0.431615
0.431577
0.431505
0.431388
0.431331
0.431165
0.431193
0.431354
0.431255
0.431354
0.431421
0.431366
0.431172
0.38129
0.394452
0.408089
0.4191
0.426567
0.430597
0.43196
0.432284
0.432259
0.432112
0.432164
0.432216
0.432052
0.432025
0.432229
0.432365
0.432322
0.432316
0.432285
0.432189
0.432283
0.432488
0.432481
0.432482
0.432421
0.432418
0.432403
0.432267
0.432305
0.432442
0.432449
0.432445
0.432367
0.43238
0.432347
0.432309
0.432284
0.432237
0.43211
0.43184
0.431655
0.431579
0.431499
0.431442
0.431398
0.431305
0.431062
0.430943
0.4311
0.431191
0.431144
0.431015
0.43098
0.431389
0.431635
0.431624
0.431572
0.431578
0.431828
0.431867
0.431813
0.431663
0.431601
0.431727
0.431775
0.431723
0.431722
0.431728
0.431706
0.431511
0.431466
0.431651
0.431692
0.431664
0.431661
0.431602
0.431547
0.431377
0.431411
0.431614
0.431639
0.431643
0.431573
0.431578
0.431545
0.431497
0.431322
0.431329
0.431345
0.431165
0.381299
0.394459
0.407989
0.419243
0.426671
0.430389
0.431495
0.431548
0.431452
0.431433
0.43166
0.431821
0.431762
0.431763
0.431761
0.431631
0.431691
0.431912
0.431866
0.431836
0.431955
0.432377
0.432395
0.432401
0.432304
0.432361
0.432413
0.432237
0.432311
0.432393
0.432386
0.432382
0.432326
0.432323
0.432284
0.432224
0.432028
0.431961
0.431848
0.431564
0.431439
0.431413
0.431398
0.431361
0.431386
0.431409
0.431241
0.431297
0.431343
0.431165
0.431218
0.431374
0.431374
0.431379
0.431328
0.431299
0.431272
0.43121
0.43097
0.430923
0.431178
0.431272
0.431229
0.431137
0.431059
0.431257
0.431403
0.431374
0.431409
0.431372
0.431285
0.431275
0.431218
0.431336
0.431543
0.431358
0.431427
0.431541
0.43135
0.43142
0.43151
0.431509
0.431507
0.431322
0.431289
0.431453
0.431546
0.431528
0.431501
0.431249
0.381302
0.394512
0.407934
0.419206
0.426743
0.430273
0.431699
0.431865
0.431833
0.431831
0.431847
0.431847
0.431753
0.431635
0.431745
0.431996
0.431914
0.431973
0.431998
0.431969
0.431883
0.431988
0.432431
0.43245
0.43241
0.432304
0.432227
0.432204
0.432176
0.432242
0.432251
0.432196
0.432086
0.432041
0.431993
0.431936
0.431817
0.431772
0.431722
0.43165
0.431571
0.431526
0.431474
0.431438
0.431401
0.431385
0.431334
0.431342
0.431353
0.431326
0.431304
0.431087
0.430986
0.431043
0.431064
0.430954
0.430952
0.431145
0.431373
0.431472
0.431483
0.431445
0.431301
0.431381
0.431441
0.431402
0.431278
0.431288
0.431389
0.431206
0.431201
0.431428
0.431471
0.431443
0.431416
0.43129
0.431378
0.431499
0.431458
0.431455
0.431406
0.431301
0.431214
0.431322
0.431376
0.431327
0.431158
0.431185
0.431258
0.431048
0.381294
0.394523
0.407934
0.419194
0.426744
0.430289
0.431716
0.431873
0.431638
0.431665
0.431756
0.431752
0.431751
0.431583
0.431672
0.432074
0.432097
0.43205
0.43189
0.431922
0.432178
0.432158
0.432165
0.432143
0.432277
0.432358
0.432321
0.432314
0.432278
0.43227
0.432212
0.431966
0.431906
0.431947
0.431884
0.431888
0.431889
0.431888
0.431827
0.431789
0.431729
0.431697
0.431645
0.431539
0.431289
0.431132
0.43109
0.431057
0.431018
0.430888
0.430991
0.431189
0.43109
0.431261
0.431631
0.431631
0.431614
0.431476
0.431392
0.431416
0.431406
0.431503
0.431539
0.43152
0.431519
0.431467
0.431325
0.431281
0.4314
0.431436
0.431475
0.431491
0.431453
0.431389
0.431271
0.431324
0.431445
0.431409
0.431416
0.431416
0.431372
0.431353
0.431299
0.431279
0.431267
0.431203
0.431096
0.431196
0.431265
0.431093
0.381284
0.394475
0.408033
0.419203
0.426447
0.43058
0.432187
0.432413
0.432382
0.432244
0.432271
0.432411
0.432265
0.432356
0.432476
0.432459
0.432461
0.432334
0.432299
0.432295
0.43228
0.432279
0.432248
0.432381
0.432532
0.432358
0.432443
0.432511
0.43246
0.432484
0.432446
0.432371
0.432135
0.432021
0.431954
0.431891
0.43184
0.43174
0.431712
0.431669
0.431629
0.431586
0.431504
0.431434
0.431217
0.431221
0.431382
0.431223
0.431215
0.431442
0.431533
0.431486
0.431491
0.431474
0.431386
0.431195
0.431213
0.431281
0.431329
0.431377
0.431369
0.431347
0.431313
0.43131
0.431274
0.431208
0.431282
0.431379
0.431356
0.431285
0.431381
0.431599
0.43159
0.431558
0.431536
0.431496
0.431397
0.43138
0.431403
0.43141
0.431374
0.431305
0.431202
0.431348
0.43147
0.431425
0.431297
0.431261
0.431297
0.431126
0.381281
0.394494
0.408027
0.419216
0.426384
0.430568
0.432166
0.432325
0.432437
0.432456
0.432265
0.432336
0.432456
0.432428
0.432446
0.432416
0.432438
0.43242
0.432513
0.432639
0.432648
0.432622
0.432613
0.432452
0.432505
0.432587
0.432492
0.432471
0.432437
0.432413
0.432446
0.432409
0.432373
0.432344
0.432179
0.432104
0.432025
0.431974
0.431906
0.431759
0.43172
0.431686
0.431613
0.431435
0.431373
0.431325
0.43129
0.431294
0.431241
0.431257
0.431228
0.43133
0.431423
0.431385
0.431254
0.431251
0.431409
0.431414
0.431421
0.431432
0.431427
0.431263
0.43123
0.431366
0.431323
0.431393
0.431576
0.431494
0.431593
0.431646
0.431629
0.431626
0.431467
0.431522
0.431635
0.431637
0.431638
0.43158
0.431541
0.431437
0.431403
0.431398
0.431407
0.4314
0.43131
0.431195
0.431246
0.431289
0.431238
0.43107
0.381256
0.394546
0.408001
0.419123
0.426605
0.430575
0.431761
0.431826
0.431848
0.43183
0.431794
0.431698
0.431727
0.431741
0.431634
0.431739
0.431926
0.431903
0.431854
0.431825
0.431968
0.431986
0.432117
0.432249
0.432151
0.432196
0.432206
0.432153
0.431967
0.431972
0.432062
0.432076
0.432068
0.431831
0.431854
0.431879
0.431754
0.431746
0.43175
0.431753
0.431741
0.431695
0.431589
0.431312
0.431131
0.431097
0.431147
0.431133
0.43097
0.431061
0.431298
0.431298
0.431267
0.431232
0.431191
0.431125
0.431058
0.431235
0.43155
0.431433
0.431514
0.431561
0.431486
0.431487
0.431481
0.431342
0.431389
0.431513
0.431412
0.431431
0.431392
0.431251
0.431302
0.43143
0.431224
0.43121
0.431382
0.431451
0.431411
0.43127
0.431363
0.43147
0.43136
0.431392
0.4314
0.431365
0.43127
0.431311
0.431344
0.431168
0.381285
0.394471
0.408044
0.419174
0.426498
0.430532
0.432168
0.432442
0.432413
0.432408
0.432281
0.43237
0.432449
0.43222
0.432237
0.432347
0.432185
0.432256
0.432445
0.432256
0.432285
0.432432
0.432328
0.432436
0.432533
0.432535
0.432534
0.432433
0.432423
0.432358
0.432149
0.432176
0.432202
0.432122
0.43211
0.432107
0.432097
0.431994
0.431907
0.431825
0.431719
0.431646
0.431529
0.431338
0.43125
0.431203
0.431109
0.431068
0.430951
0.430948
0.431276
0.431411
0.431415
0.431414
0.431295
0.431219
0.431287
0.431322
0.431211
0.431192
0.431226
0.43121
0.431166
0.431226
0.431262
0.43114
0.431208
0.431272
0.431117
0.431124
0.431403
0.431535
0.431547
0.431509
0.431472
0.431375
0.431353
0.431382
0.431365
0.431277
0.431219
0.431344
0.431439
0.431415
0.431425
0.431383
0.431183
0.431228
0.431296
0.431095
0.381288
0.394454
0.407983
0.419287
0.42669
0.430356
0.431335
0.431381
0.431328
0.431448
0.431709
0.431696
0.431688
0.431524
0.431498
0.431809
0.431949
0.431831
0.431845
0.432112
0.43219
0.432071
0.432166
0.432436
0.432324
0.432434
0.432578
0.432546
0.432507
0.432421
0.432411
0.432348
0.432318
0.43222
0.431956
0.431883
0.431862
0.431789
0.431757
0.431772
0.431779
0.431742
0.431739
0.431706
0.431625
0.43135
0.431313
0.431481
0.431506
0.431478
0.431487
0.431451
0.431382
0.431122
0.4311
0.431236
0.431294
0.431259
0.431067
0.431122