/*--------------------------------*- C++ -*----------------------------------*\
  =========                 |
  \\      /  F ield         | OpenFOAM: The Open Source CFD Toolbox
   \\    /   O peration     | Website:  https://openfoam.org
    \\  /    A nd           | Version:  11
     \\/     M anipulation  |
\*---------------------------------------------------------------------------*/
FoamFile
{
    format      ascii;
    class       volScalarField;
    location    "0.072";
    object      nut;
}
// * * * * * * * * * * * * * * * * * * * * * * * * * * * * * * * * * * * * * //

dimensions      [0 2 -1 0 0 0 0];

internalField   nonuniform List<scalar> 
287084
(
0.000835859
0.000865701
0.000897128
0.000923848
0.000941838
0.000951087
0.000953873
0.000954423
0.000954714
0.000954745
0.000954828
0.000954759
0.000955028
0.000955268
0.000955186
0.000955131
0.00095501
0.000954903
0.000954459
0.000954315
0.000954542
0.000954427
0.000954639
0.000954992
0.000954979
0.000954958
0.000954473
0.000954445
0.000954738
0.00095476
0.000955022
0.000955232
0.000955396
0.000955655
0.000955792
0.000955839
0.000955626
0.000955678
0.000955776
0.000955847
0.000955725
0.000955821
0.000955935
0.000956097
0.000956229
0.000956274
0.000956334
0.000956078
0.000956123
0.000955963
0.000956019
0.000956592
0.000956799
0.00095679
0.000956777
0.000956516
0.000956385
0.000956268
0.00095594
0.000956118
0.000956408
0.000956351
0.000956302
0.000956106
0.000956519
0.000956743
0.000956652
0.000956505
0.000956241
0.0009564
0.000956491
0.000956359
0.000956034
0.000955971
0.000956337
0.000956547
0.000956493
0.000956522
0.000956437
0.000956273
0.000956219
0.000955998
0.000956207
0.000956595
0.000956561
0.000956512
0.000956234
0.000956166
0.000956023
0.000955529
0.00118153
0.00122238
0.00126461
0.00130029
0.00132418
0.00133631
0.00133962
0.00133959
0.00133967
0.00134051
0.00134094
0.00134069
0.00134074
0.0013407
0.00134049
0.00134016
0.00133952
0.00133942
0.00133957
0.00133941
0.00133909
0.00133917
0.00134036
0.00134062
0.00134057
0.00134048
0.00134043
0.00134044
0.00134021
0.00133995
0.00134001
0.00133988
0.00134034
0.00134077
0.00134063
0.00134095
0.00134122
0.00134135
0.00134101
0.0013414
0.00134202
0.00134226
0.00134246
0.00134192
0.00134204
0.0013425
0.00134237
0.00134277
0.00134305
0.00134314
0.00134319
0.00134276
0.00134273
0.00134264
0.00134222
0.00134223
0.0013423
0.00134221
0.00134207
0.00134197
0.00134166
0.00134195
0.00134268
0.00134266
0.00134259
0.00134196
0.00134203
0.00134265
0.00134266
0.00134261
0.00134215
0.0013424
0.00134295
0.00134268
0.00134264
0.00134263
0.00134257
0.00134236
0.00134223
0.00134192
0.00134209
0.0013422
0.00134208
0.00134183
0.00134197
0.00134233
0.001342
0.00134197
0.00134193
0.00134136
0.00118158
0.00122255
0.00126479
0.00130059
0.00132406
0.00133638
0.00134051
0.00134092
0.00134093
0.00134092
0.00134079
0.00134038
0.00134047
0.0013405
0.00134031
0.00133998
0.00133987
0.00134041
0.0013404
0.00134017
0.00133963
0.00133942
0.00133967
0.00134038
0.00134049
0.00134041
0.00134048
0.00134047
0.00134058
0.00134058
0.00134065
0.00134071
0.00134082
0.0013409
0.0013411
0.00134136
0.00134152
0.00134162
0.0013412
0.00134154
0.00134203
0.00134164
0.00134206
0.00134245
0.00134262
0.00134277
0.00134222
0.00134245
0.00134318
0.0013433
0.00134327
0.00134329
0.00134322
0.00134302
0.00134247
0.00134232
0.00134241
0.0013423
0.00134225
0.00134217
0.001342
0.00134229
0.00134246
0.00134235
0.0013421
0.00134202
0.00134292
0.0013431
0.00134301
0.00134299
0.00134283
0.00134279
0.00134259
0.00134191
0.00134185
0.00134196
0.0013419
0.00134175
0.00134177
0.0013418
0.00134124
0.00134122
0.00134187
0.00134215
0.00134197
0.00134213
0.00134219
0.00134215
0.00134212
0.0013413
0.00118152
0.00122272
0.00126513
0.00130067
0.00132428
0.0013368
0.00134105
0.00134141
0.00134133
0.001341
0.00134114
0.00134134
0.00134123
0.00134111
0.00134034
0.00134035
0.00134068
0.00134017
0.00134029
0.00134035
0.00133994
0.00133984
0.00133977
0.00133931
0.00133945
0.00133961
0.00133951
0.00133957
0.00133922
0.00133969
0.00134069
0.00134075
0.00134096
0.00134122
0.00134151
0.00134166
0.0013419
0.00134199
0.00134173
0.00134171
0.00134187
0.0013421
0.00134219
0.00134213
0.00134229
0.00134229
0.00134265
0.00134288
0.00134282
0.00134237
0.00134246
0.0013428
0.0013429
0.00134281
0.00134268
0.00134268
0.00134254
0.00134211
0.00134208
0.00134288
0.00134313
0.00134303
0.00134289
0.00134271
0.00134206
0.00134211
0.00134267
0.00134217
0.00134222
0.00134278
0.00134289
0.00134279
0.00134268
0.00134257
0.00134202
0.00134183
0.00134244
0.00134297
0.00134268
0.00134265
0.00134263
0.0013426
0.00134227
0.00134238
0.00134254
0.00134239
0.00134193
0.00134199
0.00134217
0.00134143
0.00118152
0.00122284
0.00126523
0.00130064
0.00132475
0.00133682
0.00134024
0.00134105
0.00134118
0.00134103
0.00134067
0.00134062
0.00134083
0.00134073
0.00134059
0.00134014
0.00133996
0.00133949
0.00133954
0.00133959
0.00133939
0.00133917
0.00133898
0.00133957
0.00133974
0.00133944
0.00133946
0.00133958
0.00133966
0.00133998
0.00134029
0.00134033
0.00134056
0.00134083
0.0013411
0.00134116
0.00134085
0.00134142
0.00134241
0.00134265
0.00134293
0.00134298
0.00134307
0.00134313
0.00134334
0.00134339
0.00134346
0.00134346
0.00134341
0.00134319
0.00134255
0.00134243
0.00134241
0.00134226
0.00134235
0.00134221
0.00134211
0.00134184
0.00134213
0.00134244
0.00134219
0.00134216
0.00134194
0.00134189
0.00134181
0.00134183
0.00134157
0.00134184
0.00134217
0.0013421
0.00134213
0.00134188
0.00134253
0.00134303
0.00134283
0.00134291
0.00134291
0.0013428
0.00134281
0.00134272
0.00134264
0.00134254
0.00134233
0.00134192
0.0013415
0.00134184
0.00134218
0.00134217
0.00134215
0.00134147
0.00118153
0.00122279
0.00126522
0.00130106
0.00132489
0.00133619
0.00133946
0.00134001
0.00134093
0.00134109
0.00134079
0.00134065
0.00134054
0.00134035
0.00133954
0.00133939
0.00133975
0.00134002
0.00133982
0.0013394
0.00133926
0.00133916
0.00133878
0.00133891
0.0013393
0.00133892
0.00133878
0.00133941
0.00134004
0.0013401
0.0013403
0.00134054
0.00134083
0.00134089
0.00134044
0.0013408
0.00134134
0.00134111
0.0013416
0.00134212
0.00134219
0.00134239
0.00134251
0.00134271
0.00134288
0.00134282
0.00134231
0.00134243
0.00134277
0.00134288
0.00134294
0.00134279
0.00134254
0.00134271
0.00134304
0.00134304
0.00134303
0.00134276
0.00134255
0.0013427
0.00134296
0.0013428
0.00134276
0.00134264
0.00134216
0.00134193
0.0013426
0.00134304
0.00134289
0.00134288
0.00134287
0.00134277
0.00134231
0.00134197
0.00134211
0.00134207
0.00134237
0.00134269
0.00134247
0.00134244
0.00134241
0.00134223
0.00134177
0.001342
0.00134246
0.00134242
0.00134243
0.00134235
0.00134216
0.00134152
0.00118147
0.00122283
0.0012653
0.00130108
0.00132503
0.00133609
0.00134041
0.00134096
0.00134082
0.00134062
0.00134027
0.00133978
0.00134005
0.00134112
0.0013406
0.00134051
0.00134137
0.00134147
0.00134125
0.00134113
0.00134094
0.00134073
0.00134049
0.00133992
0.00134008
0.0013404
0.00134034
0.00134018
0.00134007
0.00134015
0.00134024
0.00134052
0.00134076
0.00134067
0.0013411
0.00134153
0.00134173
0.00134184
0.00134168
0.00134227
0.00134277
0.00134286
0.00134252
0.00134264
0.00134301
0.00134325
0.00134338
0.00134307
0.00134302
0.00134313
0.00134318
0.00134274
0.00134289
0.00134304
0.00134282
0.0013428
0.00134263
0.00134264
0.00134251
0.0013428
0.00134293
0.00134279
0.00134263
0.00134221
0.00134215
0.001342
0.00134227
0.00134246
0.0013423
0.00134187
0.00134187
0.00134216
0.00134211
0.00134199
0.0013419
0.00134222
0.00134232
0.00134233
0.00134222
0.00134217
0.00134179
0.00134196
0.00134241
0.0013423
0.00134218
0.00134166
0.00134164
0.00134208
0.0013421
0.00134175
0.00118152
0.00122279
0.00126558
0.00130078
0.00132428
0.00133725
0.0013422
0.00134325
0.00134307
0.00134295
0.00134255
0.00134264
0.00134263
0.00134231
0.00134214
0.00134189
0.00134166
0.00134141
0.00134123
0.0013406
0.00134065
0.00134085
0.0013405
0.00134049
0.00134062
0.0013406
0.0013405
0.00134063
0.00134061
0.00134077
0.00134085
0.00134101
0.0013413
0.00134149
0.00134167
0.00134187
0.001342
0.00134163
0.00134194
0.00134291
0.00134325
0.00134339
0.00134319
0.00134319
0.00134334
0.00134347
0.00134369
0.00134381
0.00134391
0.00134385
0.00134373
0.00134322
0.00134342
0.00134395
0.00134387
0.00134384
0.00134332
0.00134354
0.00134372
0.00134369
0.00134365
0.00134347
0.00134319
0.00134297
0.00134283
0.00134264
0.00134212
0.00134208
0.00134248
0.00134215
0.00134236
0.0013427
0.00134267
0.00134264
0.00134208
0.00134195
0.00134269
0.00134296
0.00134283
0.0013428
0.00134262
0.0013423
0.00134186
0.00134225
0.00134262
0.00134247
0.00134208
0.00134197
0.00134207
0.00134147
0.00118151
0.00122281
0.00126537
0.00130116
0.00132469
0.00133678
0.0013407
0.00134096
0.00134082
0.00134069
0.00134006
0.00134006
0.00134135
0.00134141
0.00134092
0.00134083
0.00134067
0.00134027
0.00134051
0.00134102
0.00134056
0.00134058
0.00134052
0.00133995
0.00134015
0.00134048
0.00134034
0.00134051
0.00134084
0.001341
0.00134109
0.00134138
0.0013415
0.00134136
0.00134136
0.00134159
0.00134173
0.001342
0.00134221
0.00134203
0.00134235
0.00134304
0.00134289
0.00134298
0.0013436
0.00134389
0.00134373
0.00134403
0.0013442
0.00134421
0.00134423
0.00134384
0.00134382
0.00134371
0.00134345
0.00134283
0.00134249
0.00134292
0.0013431
0.00134291
0.00134244
0.00134228
0.00134289
0.00134304
0.00134284
0.00134278
0.00134267
0.00134235
0.00134191
0.00134244
0.00134297
0.00134297
0.00134294
0.00134269
0.0013426
0.00134215
0.0013419
0.00134259
0.00134312
0.00134286
0.00134302
0.00134306
0.00134288
0.00134241
0.00134212
0.00134212
0.00134199
0.00134202
0.00134197
0.00134145
0.00118161
0.00122251
0.00126563
0.00130118
0.00132467
0.0013367
0.00134022
0.00134038
0.00134001
0.00133997
0.00134083
0.00134091
0.00134058
0.00133988
0.00133957
0.00133986
0.00133959
0.00133969
0.00133977
0.00133946
0.00133884
0.00133879
0.00133906
0.00133873
0.00133882
0.00133887
0.00133883
0.00133873
0.00133928
0.00133998
0.00134
0.00134033
0.00134063
0.00134046
0.00134087
0.00134148
0.00134162
0.00134199
0.00134233
0.00134269
0.00134302
0.00134337
0.00134363
0.00134367
0.00134341
0.00134292
0.00134266
0.00134281
0.00134291
0.00134283
0.00134245
0.00134263
0.00134284
0.00134268
0.00134216
0.00134205
0.00134225
0.00134218
0.00134191
0.00134217
0.00134293
0.00134298
0.00134282
0.00134253
0.00134243
0.00134206
0.00134163
0.00134181
0.00134224
0.00134233
0.00134223
0.00134216
0.00134163
0.00134154
0.00134185
0.00134181
0.00134157
0.00134182
0.00134248
0.00134243
0.00134237
0.00134173
0.00134165
0.0013425
0.00134274
0.00134257
0.00134255
0.00134255
0.00134243
0.00134159
0.00118157
0.00122275
0.00126542
0.00130102
0.00132486
0.00133699
0.0013405
0.00134065
0.00134027
0.0013404
0.00134065
0.00134041
0.00134005
0.00133994
0.00134013
0.00133939
0.00133924
0.00133974
0.00133936
0.00133954
0.00134012
0.00133996
0.00133968
0.00133896
0.0013391
0.00133944
0.00133882
0.00133912
0.00133959
0.00133974
0.00134002
0.00133992
0.00134058
0.00134137
0.00134169
0.00134224
0.00134266
0.00134296
0.00134324
0.00134357
0.00134378
0.00134383
0.00134346
0.00134338
0.00134328
0.00134275
0.00134255
0.0013431
0.00134353
0.00134346
0.0013431
0.0013433
0.00134347
0.00134331
0.00134284
0.00134284
0.00134292
0.00134276
0.00134242
0.00134239
0.00134289
0.00134284
0.00134267
0.00134213
0.00134232
0.0013426
0.00134252
0.00134245
0.00134185
0.00134195
0.00134233
0.00134223
0.00134193
0.0013421
0.00134232
0.00134225
0.00134221
0.00134161
0.00134163
0.00134219
0.0013422
0.00134202
0.00134224
0.00134268
0.00134255
0.00134208
0.0013421
0.00134227
0.00134217
0.00134169
0.00118147
0.00122288
0.00126535
0.00130109
0.00132482
0.00133678
0.00134114
0.00134158
0.00134147
0.00134132
0.00134067
0.00134039
0.00134079
0.00134168
0.0013414
0.00134079
0.00134055
0.00134028
0.00133965
0.0013394
0.00133962
0.00133947
0.00133951
0.00133945
0.00133908
0.0013394
0.00133996
0.00133992
0.00134017
0.00134041
0.00134076
0.00134108
0.00134153
0.00134186
0.00134224
0.00134265
0.00134311
0.00134333
0.00134331
0.00134325
0.00134324
0.00134326
0.00134324
0.00134259
0.00134267
0.00134302
0.00134321
0.0013433
0.00134288
0.00134285
0.00134275
0.00134309
0.00134379
0.00134366
0.00134373
0.00134357
0.00134332
0.00134321
0.00134306
0.00134286
0.00134268
0.00134248
0.00134199
0.00134196
0.00134292
0.001343
0.00134287
0.00134278
0.00134224
0.00134245
0.00134288
0.00134282
0.00134276
0.00134217
0.0013423
0.00134257
0.00134248
0.00134241
0.00134177
0.00134198
0.00134236
0.00134225
0.00134191
0.00134189
0.00134243
0.0013426
0.00134249
0.00134236
0.0013422
0.0013414
0.00118153
0.00122277
0.00126568
0.00130069
0.00132444
0.00133743
0.00134193
0.00134228
0.00134175
0.00134179
0.00134217
0.00134159
0.00134122
0.00134106
0.00134058
0.00134052
0.00134114
0.00134097
0.00134056
0.00133976
0.00133962
0.00133999
0.00133978
0.00133945
0.00133965
0.00134005
0.00133969
0.0013401
0.00134046
0.00134068
0.00134107
0.00134138
0.00134167
0.00134193
0.00134191
0.00134187
0.00134239
0.00134287
0.00134317
0.00134328
0.0013433
0.00134364
0.00134395
0.001344
0.0013436
0.00134367
0.00134408
0.00134402
0.00134433
0.00134443
0.00134419
0.00134417
0.00134414
0.00134401
0.0013435
0.00134331
0.0013434
0.00134334
0.00134313
0.00134268
0.00134298
0.00134341
0.00134317
0.00134323
0.00134322
0.00134302
0.00134247
0.00134229
0.00134241
0.00134213
0.00134236
0.00134264
0.00134261
0.00134257
0.00134193
0.00134191
0.00134272
0.00134283
0.00134265
0.00134209
0.00134202
0.00134239
0.00134236
0.00134236
0.00134234
0.001342
0.00134203
0.00134219
0.00134209
0.00134164
0.00118156
0.00122273
0.00126531
0.00130131
0.00132505
0.0013362
0.00134029
0.00134062
0.00133987
0.00133993
0.00134012
0.00133937
0.00133939
0.00133942
0.00133857
0.00133827
0.00133856
0.00133825
0.00133839
0.00133879
0.00133845
0.00133803
0.00133802
0.00133839
0.0013386
0.00133912
0.00133874
0.00133917
0.0013397
0.00133994
0.00134024
0.0013406
0.00134097
0.00134138
0.00134169
0.00134198
0.00134234
0.00134229
0.00134289
0.00134353
0.00134358
0.00134397
0.00134438
0.00134463
0.00134471
0.00134467
0.0013442
0.00134438
0.0013446
0.00134461
0.00134459
0.00134427
0.00134408
0.00134359
0.00134357
0.00134353
0.00134333
0.00134288
0.001343
0.00134328
0.00134321
0.00134313
0.00134243
0.00134252
0.00134273
0.00134261
0.00134256
0.00134223
0.00134224
0.00134214
0.00134249
0.00134271
0.00134265
0.00134261
0.00134218
0.00134209
0.00134168
0.00134174
0.00134241
0.00134207
0.00134217
0.00134292
0.00134313
0.00134305
0.00134297
0.00134237
0.00134229
0.00134264
0.00134262
0.00134213
0.00118152
0.00122281
0.00126559
0.00130086
0.00132424
0.00133737
0.00134233
0.0013428
0.00134224
0.00134227
0.00134256
0.00134172
0.00134165
0.00134179
0.00134112
0.00134083
0.0013405
0.00133983
0.00133955
0.00133966
0.00133916
0.00133916
0.00133962
0.00133949
0.00133931
0.00133953
0.00133969
0.00133964
0.00134001
0.0013404
0.00134075
0.00134123
0.00134177
0.00134222
0.0013427
0.00134315
0.00134357
0.0013439
0.00134386
0.00134394
0.00134404
0.0013438
0.00134321
0.00134355
0.00134411
0.00134409
0.00134421
0.00134412
0.00134381
0.00134347
0.00134338
0.00134337
0.00134317
0.00134346
0.00134385
0.00134368
0.00134365
0.0013435
0.00134332
0.00134304
0.00134273
0.00134305
0.00134355
0.00134338
0.00134292
0.00134292
0.00134338
0.00134334
0.00134317
0.00134242
0.0013423
0.00134262
0.00134262
0.00134246
0.00134184
0.00134188
0.00134275
0.00134281
0.00134263
0.00134205
0.00134204
0.00134243
0.00134215
0.00134235
0.0013424
0.00134225
0.00134181
0.00134189
0.00134209
0.00134141
0.00118155
0.00122298
0.00126523
0.00130092
0.00132503
0.00133646
0.00134106
0.00134154
0.00134121
0.00134066
0.00134043
0.00134055
0.00134025
0.00133981
0.00133925
0.0013395
0.00133967
0.00133925
0.00133855
0.00133835
0.00133841
0.00133765
0.00133749
0.00133795
0.00133794
0.00133776
0.0013382
0.00133879
0.00133863
0.00133887
0.00133933
0.00133989
0.00134025
0.001341
0.00134175
0.00134221
0.0013428
0.00134328
0.00134379
0.0013443
0.00134473
0.00134498
0.00134507
0.00134515
0.0013452
0.00134509
0.00134466
0.00134401
0.00134381
0.00134326
0.00134333
0.00134398
0.00134395
0.00134373
0.00134312
0.00134331
0.00134387
0.00134357
0.00134417
0.00134473
0.00134468
0.00134459
0.00134393
0.00134397
0.001344
0.00134349
0.00134372
0.0013439
0.00134383
0.00134378
0.00134361
0.00134345
0.00134268
0.00134266
0.00134278
0.00134263
0.00134222
0.00134226
0.00134233
0.00134197
0.00134174
0.00134212
0.00134282
0.00134275
0.00134263
0.00134207
0.00134218
0.00134228
0.00134213
0.00134165
0.00118152
0.00122287
0.00126555
0.00130091
0.00132407
0.00133707
0.0013427
0.00134343
0.00134327
0.00134307
0.00134237
0.00134238
0.0013424
0.00134203
0.00134174
0.00134135
0.00134096
0.00134027
0.00133954
0.00133933
0.00133936
0.00133907
0.00133886
0.00133834
0.00133842
0.00133899
0.00133901
0.00133925
0.00133964
0.00134008
0.00134032
0.00134091
0.00134146
0.00134202
0.00134261
0.00134307
0.00134356
0.00134399
0.00134436
0.0013447
0.00134489
0.00134482
0.00134411
0.00134388
0.00134382
0.00134382
0.00134388
0.00134383
0.00134372
0.00134308
0.00134306
0.00134354
0.00134347
0.00134341
0.00134306
0.00134319
0.0013442
0.00134417
0.00134384
0.00134362
0.0013434
0.00134297
0.00134306
0.00134346
0.00134322
0.00134311
0.00134307
0.00134304
0.00134292
0.00134283
0.00134246
0.00134206
0.00134233
0.00134289
0.00134277
0.00134262
0.0013422
0.00134202
0.00134214
0.00134205
0.00134237
0.00134255
0.00134245
0.00134241
0.00134207
0.00134198
0.00134187
0.00134163
0.00134155
0.0013413
0.00118152
0.00122284
0.0012655
0.00130103
0.001324
0.00133727
0.00134276
0.00134339
0.00134283
0.0013429
0.00134287
0.00134258
0.00134227
0.00134126
0.00134109
0.0013411
0.00134008
0.00133976
0.00133985
0.00133943
0.001339
0.00133899
0.00133912
0.00133858
0.0013388
0.00133926
0.00133931
0.00133944
0.00133973
0.00134021
0.00134066
0.00134124
0.00134175
0.00134245
0.00134299
0.00134351
0.001344
0.00134426
0.00134431
0.00134436
0.00134455
0.00134453
0.00134439
0.00134441
0.00134436
0.00134422
0.00134366
0.00134347
0.00134416
0.00134442
0.00134433
0.00134425
0.00134393
0.00134352
0.00134346
0.00134415
0.00134426
0.00134357
0.0013437
0.00134411
0.00134351
0.00134368
0.00134391
0.00134382
0.00134374
0.00134317
0.00134307
0.00134291
0.00134266
0.00134241
0.00134278
0.00134348
0.00134342
0.00134326
0.00134324
0.00134308
0.00134269
0.00134261
0.00134254
0.00134253
0.00134237
0.00134185
0.00134194
0.00134248
0.00134251
0.00134248
0.00134182
0.00134186
0.00134211
0.00134145
0.00118152
0.00122285
0.00126561
0.00130076
0.0013242
0.0013372
0.00134215
0.0013431
0.00134288
0.00134224
0.00134211
0.00134215
0.00134172
0.00134139
0.00134096
0.00134064
0.0013401
0.00133944
0.00133917
0.00133932
0.00133901
0.00133874
0.00133811
0.00133814
0.00133844
0.00133812
0.00133825
0.00133847
0.00133893
0.00133938
0.00133997
0.00134053
0.00134108
0.00134155
0.00134201
0.00134197
0.00134244
0.00134339
0.00134415
0.00134455
0.00134487
0.00134521
0.00134537
0.00134546
0.00134539
0.00134529
0.00134512
0.00134476
0.00134363
0.00134347
0.00134409
0.00134408
0.00134388
0.00134364
0.00134316
0.00134324
0.00134428
0.0013442
0.00134372
0.00134379
0.00134415
0.00134353
0.00134369
0.00134395
0.00134386
0.00134377
0.00134309
0.00134315
0.00134322
0.00134261
0.00134275
0.00134302
0.00134234
0.0013425
0.00134283
0.0013428
0.00134276
0.00134214
0.00134228
0.00134287
0.00134283
0.00134269
0.00134266
0.00134247
0.00134173
0.00134169
0.00134188
0.00134192
0.00134191
0.00134123
0.00118142
0.00122311
0.00126532
0.00130083
0.00132452
0.00133718
0.00134146
0.00134188
0.00134161
0.001341
0.0013409
0.00134089
0.00134048
0.00134
0.00133936
0.0013391
0.00133856
0.00133855
0.00133872
0.00133812
0.00133776
0.0013374
0.00133771
0.0013383
0.00133868
0.00133865
0.00133881
0.00133909
0.00133924
0.00133973
0.00134035
0.0013411
0.00134169
0.00134235
0.00134292
0.00134357
0.001344
0.00134436
0.00134473
0.00134498
0.001345
0.0013451
0.00134501
0.00134477
0.00134464
0.00134391
0.00134387
0.00134395
0.00134395
0.00134388
0.00134327
0.00134364
0.00134547
0.00134548
0.0013451
0.00134518
0.00134567
0.00134566
0.00134543
0.00134511
0.00134464
0.00134443
0.00134436
0.00134397
0.00134414
0.00134421
0.00134402
0.00134375
0.00134352
0.00134355
0.00134345
0.00134361
0.00134363
0.00134343
0.00134278
0.0013428
0.00134296
0.00134261
0.00134258
0.00134247
0.00134238
0.00134228
0.00134213
0.0013418
0.00134171
0.00134168
0.00134162
0.00134172
0.00134159
0.0013411
0.00118155
0.00122282
0.00126535
0.00130104
0.0013249
0.00133669
0.00133973
0.00133954
0.00133943
0.00134007
0.00134016
0.00133986
0.00133953
0.00133856
0.00133829
0.00133862
0.00133828
0.00133789
0.00133727
0.00133707
0.00133827
0.00133892
0.00133832
0.00133847
0.0013386
0.00133841
0.00133856
0.00133891
0.00133941
0.00133988
0.00134038
0.00134097
0.0013416
0.00134222
0.00134272
0.00134277
0.00134283
0.00134344
0.00134394
0.00134435
0.00134471
0.00134499
0.00134515
0.00134518
0.00134496
0.00134434
0.00134443
0.00134468
0.00134429
0.00134439
0.00134447
0.00134424
0.00134412
0.0013439
0.0013437
0.00134295
0.0013429
0.00134308
0.0013428
0.00134267
0.00134231
0.00134241
0.00134242
0.0013422
0.00134172
0.00134165
0.00134207
0.00134201
0.00134185
0.00134174
0.00134213
0.00134212
0.00134247
0.001343
0.00134292
0.00134283
0.00134214
0.00134202
0.00134237
0.00134223
0.0013425
0.0013426
0.00134244
0.00134198
0.001342
0.00134209
0.00134143
0.00134155
0.00134197
0.00134132
0.00118154
0.00122276
0.0012657
0.00130061
0.00132442
0.00133736
0.00134193
0.00134231
0.00134214
0.0013419
0.00134108
0.00134084
0.00134102
0.00134063
0.00134029
0.0013399
0.00133958
0.00133916
0.00133879
0.00133808
0.00133792
0.00133847
0.00133805
0.00133808
0.00133837
0.00133826
0.00133844
0.00133876
0.00133927
0.00133984
0.00134028
0.00134049
0.00134102
0.00134161
0.00134233
0.001343
0.00134347
0.00134406
0.00134455
0.00134496
0.00134519
0.00134541
0.00134548
0.00134555
0.00134553
0.00134528
0.00134455
0.00134402
0.00134415
0.00134437
0.00134414
0.00134349
0.00134331
0.00134457
0.00134543
0.00134525
0.00134485
0.00134492
0.00134541
0.00134505
0.00134502
0.00134479
0.0013443
0.00134445
0.00134471
0.00134435
0.00134425
0.00134399
0.00134354
0.00134318
0.00134318
0.00134293
0.0013431
0.00134363
0.00134331
0.0013436
0.00134383
0.00134334
0.00134358
0.00134373
0.00134369
0.00134365
0.00134322
0.00134265
0.00134247
0.00134242
0.00134229
0.00134236
0.00134221
0.00134146
0.00118152
0.00122282
0.00126554
0.0013009
0.00132408
0.00133742
0.001342
0.00134205
0.00134227
0.00134264
0.00134188
0.00134173
0.0013415
0.00134102
0.00134029
0.00133996
0.00134009
0.00133954
0.00133895
0.00133884
0.00133898
0.00133863
0.00133828
0.00133843
0.00133887
0.00133849
0.00133889
0.00133929
0.00133958
0.00134014
0.00134074
0.00134149
0.00134212
0.00134276
0.00134332
0.00134347
0.00134389
0.00134427
0.00134425
0.0013439
0.00134443
0.00134496
0.00134508
0.00134527
0.00134534
0.0013453
0.00134454
0.0013445
0.00134503
0.00134504
0.00134479
0.00134422
0.00134388
0.00134462
0.00134553
0.00134584
0.00134593
0.00134544
0.00134558
0.00134559
0.00134533
0.00134474
0.00134472
0.00134499
0.00134456
0.00134447
0.00134423
0.00134358
0.00134349
0.0013438
0.00134354
0.00134384
0.00134407
0.00134352
0.00134376
0.00134399
0.00134394
0.0013439
0.00134316
0.00134328
0.00134341
0.0013429
0.0013431
0.00134322
0.00134312
0.00134303
0.00134228
0.00134229
0.00134238
0.0013417
0.00118159
0.00122274
0.00126528
0.00130136
0.00132452
0.00133669
0.00134041
0.00134072
0.00134044
0.00133977
0.00133973
0.00133965
0.00133914
0.00133854
0.00133849
0.00133914
0.00133845
0.00133844
0.00133933
0.00133887
0.00133851
0.00133819
0.00133796
0.00133779
0.00133774
0.00133781
0.00133776
0.00133835
0.00133899
0.00133925
0.00133999
0.00134073
0.0013415
0.00134228
0.00134312
0.00134388
0.00134443
0.00134474
0.00134438
0.00134432
0.00134453
0.00134426
0.00134467
0.00134506
0.0013448
0.00134484
0.00134486
0.0013448
0.00134473
0.00134455
0.00134434
0.00134399
0.00134374
0.00134374
0.0013436
0.00134308
0.001343
0.00134338
0.001343
0.00134312
0.0013431
0.00134291
0.00134269
0.00134291
0.0013437
0.00134356
0.00134349
0.00134338
0.00134325
0.00134257
0.00134268
0.00134302
0.00134294
0.00134289
0.00134264
0.00134259
0.00134243
0.00134212
0.00134219
0.00134255
0.00134244
0.00134233
0.00134229
0.0013418
0.0013419
0.0013424
0.00134238
0.00134236
0.00134222
0.00134163
0.00118146
0.00122297
0.00126542
0.00130073
0.00132471
0.00133699
0.00134153
0.00134187
0.00134164
0.00134123
0.001341
0.00134102
0.00134062
0.00134036
0.00134003
0.00133948
0.00133907
0.00133834
0.00133816
0.00133822
0.00133779
0.00133739
0.001337
0.00133726
0.0013373
0.00133721
0.0013378
0.00133858
0.00133907
0.00133967
0.00134021
0.00134068
0.00134098
0.00134168
0.00134238
0.00134306
0.00134371
0.00134428
0.00134479
0.00134515
0.00134519
0.0013453
0.00134538
0.00134532
0.00134487
0.0013444
0.00134405
0.00134392
0.00134384
0.00134353
0.00134326
0.00134381
0.00134416
0.00134396
0.00134375
0.00134319
0.00134292
0.00134237
0.00134214
0.00134238
0.00134228
0.00134257
0.0013429
0.00134238
0.00134253
0.00134287
0.0013427
0.00134251
0.00134206
0.00134175
0.00134207
0.00134227
0.00134179
0.00134201
0.00134234
0.00134161
0.00134151
0.00134209
0.00134229
0.00134212
0.00134161
0.00134175
0.0013424
0.00134219
0.0013422
0.00134241
0.00134242
0.00134247
0.00134237
0.00134137
0.00118153
0.00122279
0.00126564
0.00130069
0.00132433
0.00133737
0.00134182
0.00134211
0.0013416
0.00134165
0.00134202
0.00134114
0.00134092
0.0013412
0.00134081
0.0013403
0.00134009
0.00133985
0.00133901
0.00133883
0.00133858
0.00133782
0.00133783
0.00133835
0.00133808
0.00133836
0.00133875
0.00133903
0.00133953
0.00134001
0.00134056
0.00134122
0.00134183
0.00134254
0.00134309
0.00134318
0.00134352
0.00134402
0.00134435
0.00134469
0.001345
0.00134523
0.00134544
0.00134557
0.00134559
0.00134551
0.00134518
0.00134419
0.00134384
0.00134412
0.00134427
0.00134403
0.00134343
0.00134348
0.00134382
0.00134374
0.00134348
0.00134268
0.00134268
0.00134297
0.0013428
0.0013425
0.00134236
0.00134281
0.00134256
0.0013428
0.00134294
0.0013428
0.00134272
0.00134243
0.00134232
0.00134208
0.00134159
0.00134193
0.00134263
0.0013426
0.00134256
0.00134214
0.00134237
0.00134248
0.00134239
0.00134232
0.00134156
0.00134168
0.00134218
0.00134217
0.00134215
0.00134181
0.00134172
0.00134128
0.00118152
0.00122284
0.00126549
0.00130101
0.00132396
0.00133725
0.00134265
0.00134343
0.00134315
0.00134238
0.00134208
0.00134205
0.00134121
0.00134108
0.00134112
0.00134007
0.00133971
0.00133977
0.00133929
0.00133872
0.00133861
0.00133859
0.00133792
0.00133803
0.00133861
0.0013385
0.00133874
0.00133904
0.00133937
0.00133985
0.00134057
0.00134124
0.00134199
0.00134284
0.00134357
0.00134382
0.00134408
0.00134443
0.00134485
0.00134523
0.00134553
0.00134575
0.00134585
0.00134593
0.00134581
0.00134528
0.00134515
0.0013447
0.00134466
0.00134462
0.0013443
0.00134381
0.00134389
0.00134541
0.00134528
0.00134551
0.00134597
0.00134576
0.00134562
0.00134519
0.00134505
0.0013448
0.00134493
0.00134493
0.00134461
0.00134459
0.00134436
0.00134384
0.00134351
0.00134353
0.00134337
0.00134333
0.00134327
0.00134326
0.00134321
0.00134274
0.00134271
0.00134294
0.00134279
0.00134292
0.00134298
0.00134283
0.00134254
0.00134223
0.00134258
0.00134284
0.00134274
0.00134272
0.00134251
0.00134169
0.00118152
0.00122282
0.00126554
0.0013009
0.00132408
0.00133742
0.001342
0.00134206
0.00134228
0.00134266
0.00134183
0.00134172
0.00134169
0.00134121
0.0013406
0.00134005
0.00133986
0.00133947
0.00133907
0.00133859
0.00133808
0.00133821
0.00133869
0.00133803
0.00133824
0.00133878
0.00133892
0.00133925
0.00133968
0.00134014
0.0013407
0.0013414
0.00134175
0.00134233
0.00134296
0.00134336
0.00134389
0.00134431
0.00134433
0.00134392
0.00134445
0.00134503
0.00134525
0.00134545
0.00134536
0.00134531
0.00134462
0.00134461
0.00134507
0.00134503
0.00134477
0.00134411
0.00134387
0.00134485
0.00134543
0.00134487
0.00134497
0.0013455
0.00134541
0.00134525
0.00134471
0.00134426
0.00134407
0.00134365
0.00134372
0.00134409
0.00134399
0.00134393
0.0013438
0.00134369
0.00134308
0.00134323
0.00134365
0.00134321
0.00134342
0.00134352
0.0013433
0.00134331
0.00134316
0.00134291
0.00134251
0.00134231
0.00134177
0.00134184
0.00134232
0.00134199
0.00134229
0.00134248
0.0013423
0.00134164
0.00118154
0.00122276
0.0012657
0.0013006
0.00132444
0.00133736
0.00134172
0.00134268
0.00134244
0.00134175
0.00134165
0.0013415
0.00134065
0.00134021
0.00134045
0.00134047
0.00133992
0.00133949
0.00133898
0.0013383
0.00133823
0.00133856
0.00133829
0.00133814
0.00133789
0.00133794
0.00133808
0.00133798
0.00133855
0.00133955
0.00134025
0.00134101
0.0013416
0.0013425
0.00134325
0.00134396
0.00134466
0.00134523
0.00134546
0.00134517
0.00134505
0.00134519
0.00134522
0.00134526
0.00134526
0.00134505
0.00134432
0.00134394
0.00134438
0.00134459
0.00134434
0.00134383
0.00134359
0.00134474
0.00134537
0.0013452
0.0013449
0.00134479
0.00134544
0.00134544
0.00134514
0.00134456
0.00134426
0.00134455
0.0013446
0.00134435
0.00134426
0.0013442
0.00134406
0.00134338
0.00134318
0.0013437
0.00134377
0.00134363
0.00134358
0.00134335
0.00134314
0.00134257
0.00134264
0.00134324
0.00134329
0.00134328
0.00134304
0.00134303
0.00134291
0.00134274
0.00134218
0.00134219
0.00134224
0.00134162
0.00118157
0.00122278
0.00126539
0.00130105
0.00132477
0.00133672
0.00134029
0.00134041
0.00133995
0.00133967
0.00134011
0.00134031
0.0013398
0.00133944
0.00133906
0.00133827
0.00133805
0.00133834
0.00133779
0.00133732
0.00133734
0.00133834
0.00133817
0.00133803
0.00133767
0.0013379
0.00133824
0.001338
0.00133867
0.00133947
0.00134011
0.00134085
0.00134147
0.0013423
0.00134301
0.00134363
0.00134379
0.00134427
0.00134455
0.0013442
0.00134426
0.00134455
0.00134479
0.00134489
0.00134511
0.00134527
0.00134478
0.00134494
0.00134505
0.00134442
0.00134449
0.00134487
0.00134475
0.00134465
0.00134436
0.00134413
0.00134392
0.0013436
0.00134272
0.00134245
0.00134314
0.00134332
0.00134308
0.00134269
0.00134235
0.00134288
0.00134326
0.00134309
0.00134313
0.00134294
0.00134261
0.00134252
0.00134229
0.00134261