/*--------------------------------*- C++ -*----------------------------------*\
  =========                 |
  \\      /  F ield         | OpenFOAM: The Open Source CFD Toolbox
   \\    /   O peration     | Website:  https://openfoam.org
    \\  /    A nd           | Version:  11
     \\/     M anipulation  |
\*---------------------------------------------------------------------------*/
FoamFile
{
    format      ascii;
    class       volScalarField;
    location    "0.072";
    object      omega;
}
// * * * * * * * * * * * * * * * * * * * * * * * * * * * * * * * * * * * * * //

dimensions      [0 0 -1 0 0 0 0];

internalField   nonuniform List<scalar> 
287084
(
54.9909
55.9501
56.9077
57.6687
58.1452
58.3621
58.4083
58.4083
58.4053
58.4019
58.4062
58.404
58.4124
58.4195
58.4176
58.4174
58.4156
58.4151
58.4022
58.4016
58.4144
58.4111
58.4185
58.4294
58.4284
58.4272
58.4129
58.4134
58.423
58.4216
58.4257
58.4273
58.4253
58.4242
58.4216
58.4167
58.4038
58.3999
58.3973
58.396
58.3863
58.3861
58.3874
58.386
58.3859
58.3834
58.3819
58.3704
58.3683
58.3641
58.3668
58.3833
58.3884
58.3873
58.3867
58.3777
58.3727
58.3708
58.3635
58.3706
58.3791
58.3771
58.3733
58.3706
58.3869
58.3927
58.3898
58.3836
58.3792
58.3861
58.3887
58.3859
58.3768
58.3773
58.3886
58.394
58.3925
58.3913
58.39
58.3853
58.3828
58.3791
58.3883
58.3998
58.3982
58.3958
58.3876
58.3853
58.3816
58.3697
54.9941
55.9468
56.8926
57.6556
58.1392
58.366
58.4172
58.4098
58.4099
58.4274
58.4347
58.4314
58.4321
58.4326
58.4315
58.4233
58.4126
58.4148
58.4205
58.4188
58.4135
58.4193
58.4464
58.451
58.4495
58.4476
58.4487
58.4451
58.4338
58.4253
58.4231
58.4189
58.426
58.4296
58.4224
58.4227
58.4229
58.4214
58.4073
58.4111
58.419
58.4186
58.4181
58.4027
58.4033
58.4107
58.4036
58.4092
58.4123
58.4118
58.4114
58.3991
58.3963
58.3937
58.3867
58.3874
58.389
58.3874
58.3822
58.3819
58.3776
58.3851
58.401
58.3996
58.3973
58.3861
58.3901
58.4051
58.4044
58.402
58.3936
58.4011
58.4128
58.4085
58.4087
58.4082
58.4044
58.3983
58.3974
58.3934
58.3978
58.3998
58.398
58.393
58.3973
58.405
58.3991
58.3993
58.3978
58.3842
54.9944
55.9458
56.8916
57.6558
58.1308
58.365
58.433
58.4356
58.4337
58.43
58.428
58.4226
58.4268
58.4288
58.427
58.4223
58.4243
58.4378
58.439
58.4382
58.4246
58.4235
58.4325
58.4455
58.4499
58.4474
58.4471
58.445
58.4433
58.4399
58.4378
58.4352
58.4351
58.4344
58.4345
58.433
58.4277
58.4235
58.4108
58.4136
58.419
58.4057
58.4103
58.4141
58.4136
58.4133
58.3989
58.4027
58.414
58.4153
58.4127
58.4095
58.4092
58.4043
58.3892
58.3886
58.3932
58.3878
58.3846
58.3832
58.3829
58.391
58.3944
58.3926
58.3876
58.3888
58.4096
58.4117
58.4098
58.4093
58.4061
58.4038
58.4007
58.3885
58.3892
58.3925
58.3895
58.3868
58.3882
58.3891
58.3783
58.3793
58.3937
58.3986
58.3967
58.3989
58.4
58.3988
58.3981
58.3815
54.9925
55.9473
56.8934
57.6496
58.1272
58.3662
58.4376
58.4408
58.4385
58.4322
58.4373
58.443
58.442
58.4416
58.4282
58.432
58.4421
58.4337
58.4383
58.4415
58.436
58.4366
58.4364
58.4262
58.4289
58.4317
58.4277
58.4271
58.4186
58.4271
58.4442
58.4422
58.4423
58.4405
58.4398
58.4369
58.4347
58.4317
58.4192
58.4126
58.4111
58.4109
58.4108
58.4046
58.4021
58.4013
58.4074
58.4091
58.4056
58.3937
58.3952
58.3988
58.399
58.399
58.3957
58.3956
58.3926
58.3836
58.3853
58.4031
58.4073
58.405
58.3999
58.3984
58.3861
58.3895
58.4031
58.3913
58.3941
58.4051
58.4055
58.4064
58.4043
58.4005
58.3883
58.3875
58.4042
58.4146
58.4097
58.41
58.41
58.4067
58.4
58.4036
58.407
58.404
58.3939
58.396
58.3998
58.385
54.9921
55.948
56.8925
57.6459
58.1338
58.3614
58.4164
58.4287
58.4336
58.4315
58.4254
58.4276
58.4348
58.4337
58.4327
58.4249
58.4222
58.4175
58.423
58.4261
58.4241
58.4187
58.4183
58.4345
58.4368
58.4314
58.4315
58.4298
58.4291
58.4333
58.4357
58.434
58.4342
58.4319
58.4288
58.423
58.4129
58.4219
58.4367
58.4351
58.4326
58.4283
58.4281
58.4248
58.4238
58.4214
58.4196
58.4169
58.4133
58.4063
58.391
58.3908
58.3924
58.3857
58.385
58.3844
58.3847
58.3786
58.3848
58.3912
58.3849
58.3846
58.3828
58.3835
58.3823
58.3837
58.3779
58.3841
58.391
58.3897
58.3888
58.3865
58.404
58.4134
58.411
58.4117
58.4119
58.4096
58.4079
58.4062
58.4048
58.4027
58.3985
58.3891
58.3834
58.3931
58.3998
58.3993
58.3987
58.3857
54.9922
55.9464
56.8918
57.6534
58.1324
58.3427
58.3955
58.4039
58.4254
58.4313
58.4286
58.4287
58.4265
58.4241
58.4109
58.4128
58.4228
58.4289
58.4297
58.4252
58.4255
58.4254
58.4179
58.4217
58.4301
58.4191
58.4161
58.4306
58.4402
58.4394
58.4398
58.4376
58.4355
58.4311
58.4168
58.4193
58.4244
58.4133
58.4175
58.4222
58.417
58.4165
58.4165
58.4163
58.4147
58.4068
58.3942
58.3963
58.4019
58.4016
58.4016
58.3964
58.3908
58.3955
58.4022
58.4015
58.4014
58.3949
58.3916
58.3965
58.4023
58.4013
58.4014
58.3975
58.3843
58.3825
58.4011
58.4094
58.4084
58.4093
58.4077
58.4036
58.3928
58.389
58.396
58.3951
58.4013
58.4078
58.4051
58.4054
58.404
58.3969
58.3886
58.396
58.4058
58.4043
58.402
58.4002
58.3967
58.386
54.9906
55.9468
56.8926
57.6524
58.1335
58.3402
58.4163
58.4218
58.4219
58.4218
58.4134
58.4064
58.419
58.4449
58.4364
58.439
58.4615
58.465
58.463
58.4608
58.4592
58.4568
58.4541
58.4453
58.4503
58.4565
58.4533
58.4448
58.4421
58.4428
58.44
58.4412
58.4385
58.4295
58.4323
58.4344
58.4307
58.4231
58.4158
58.4242
58.4283
58.4246
58.4118
58.4121
58.417
58.4163
58.4158
58.4052
58.4037
58.4076
58.4067
58.3952
58.3976
58.4003
58.3971
58.3976
58.3938
58.3947
58.3922
58.3981
58.4005
58.3975
58.3918
58.3865
58.3888
58.3861
58.3918
58.396
58.3932
58.3843
58.3865
58.3938
58.3929
58.3883
58.3881
58.3994
58.3991
58.3989
58.3966
58.3963
58.3903
58.3942
58.4011
58.4011
58.401
58.3886
58.3897
58.4006
58.4005
58.3928
54.9918
55.9461
56.8979
57.6434
58.118
58.3683
58.4559
58.4743
58.4701
58.4699
58.466
58.4706
58.4733
58.4719
58.4724
58.468
58.467
58.4678
58.4673
58.4557
58.4597
58.4662
58.4619
58.4622
58.4627
58.4635
58.4598
58.4579
58.4542
58.4534
58.4529
58.4531
58.4521
58.4462
58.4409
58.4375
58.4333
58.4202
58.4222
58.4356
58.4359
58.4346
58.4216
58.4189
58.421
58.4203
58.4228
58.4203
58.4178
58.4148
58.4128
58.4029
58.408
58.4192
58.4164
58.4159
58.4062
58.4117
58.4157
58.4153
58.4153
58.4115
58.4037
58.3998
58.3976
58.395
58.3868
58.3887
58.399
58.3917
58.3966
58.4043
58.4042
58.404
58.3902
58.3896
58.4094
58.4134
58.4103
58.4101
58.4068
58.3973
58.3904
58.4016
58.409
58.4059
58.3946
58.3946
58.4
58.3862
54.9915
55.946
56.8934
57.6523
58.125
58.354
58.4194
58.422
58.42
58.42
58.411
58.4161
58.4485
58.4513
58.4458
58.4468
58.4472
58.4446
58.454
58.4676
58.4616
58.4637
58.4641
58.4541
58.4591
58.4653
58.4624
58.4627
58.4634
58.4641
58.4602
58.458
58.4528
58.4414
58.4337
58.4308
58.4257
58.4237
58.4229
58.4134
58.4151
58.425
58.4122
58.4108
58.4221
58.424
58.4192
58.4228
58.4242
58.423
58.4224
58.4122
58.4102
58.4081
58.4029
58.3887
58.3851
58.3973
58.4007
58.3975
58.3853
58.385
58.4017
58.404
58.4023
58.4025
58.3984
58.3889
58.3831
58.3984
58.4094
58.4093
58.4093
58.4038
58.4022
58.3917
58.3888
58.4077
58.4179
58.4137
58.4162
58.4171
58.4137
58.4006
58.397
58.4002
58.3974
58.3987
58.396
58.3852
54.9936
55.9392
56.8997
57.6519
58.124
58.351
58.4076
58.4088
58.4041
58.4069
58.429
58.4329
58.4296
58.4182
58.4183
58.4307
58.4279
58.4334
58.4387
58.4359
58.4258
58.4289
58.4374
58.432
58.4333
58.4336
58.4333
58.4281
58.4364
58.4455
58.4411
58.442
58.439
58.4262
58.4275
58.4323
58.4268
58.4269
58.4265
58.4265
58.4267
58.4264
58.4258
58.4216
58.4091
58.3945
58.39
58.3921
58.3924
58.3912
58.3817
58.3852
58.3895
58.3863
58.3752
58.3755
58.3814
58.3773
58.3725
58.3817
58.396
58.3968
58.3969
58.391
58.3894
58.3812
58.3746
58.3814
58.3886
58.3934
58.392
58.3889
58.3802
58.3811
58.3894
58.386
58.3814
58.3895
58.4037
58.4021
58.3997
58.3877
58.3886
58.4079
58.4112
58.4096
58.4099
58.408
58.4032
58.3872
54.9928
55.9445
56.8942
57.6489
58.1288
58.3574
58.4134
58.4145
58.4098
58.4153
58.4237
58.4226
58.4192
58.4224
58.4313
58.4196
58.4226
58.4393
58.4347
58.443
58.4559
58.4574
58.455
58.4402
58.4446
58.4511
58.436
58.44
58.4455
58.4425
58.442
58.4334
58.4396
58.447
58.4436
58.4436
58.4435
58.4434
58.4403
58.4371
58.4342
58.4291
58.415
58.4085
58.4025
58.3873
58.3838
58.3964
58.403
58.4006
58.3923
58.3973
58.4007
58.3977
58.3879
58.3891
58.3917
58.3881
58.3822
58.3848
58.3951
58.3953
58.3951
58.3833
58.3887
58.3953
58.3938
58.393
58.382
58.3859
58.3948
58.3931
58.3872
58.392
58.3971
58.3957
58.3954
58.3838
58.3861
58.3998
58.3994
58.3957
58.4006
58.4099
58.4072
58.3969
58.3983
58.4025
58.3998
58.3901
54.9907
55.9475
56.8925
57.6503
58.1273
58.3537
58.4292
58.4354
58.4346
58.4343
58.4225
58.4223
58.4397
58.4624
58.4617
58.4528
58.4542
58.4516
58.4425
58.4436
58.4537
58.4536
58.4554
58.4556
58.4499
58.4562
58.4659
58.4632
58.4645
58.4636
58.4642
58.4598
58.4575
58.4574
58.4577
58.4537
58.4516
58.4457
58.435
58.4255
58.4179
58.4118
58.4063
58.3895
58.3901
58.3952
58.395
58.3949
58.3857
58.3858
58.3834
58.3909
58.4058
58.4024
58.4022
58.4018
58.3972
58.3943
58.3921
58.3889
58.3864
58.3842
58.3769
58.3799
58.4019
58.403
58.4007
58.3977
58.3892
58.3966
58.4061
58.4048
58.404
58.393
58.397
58.4031
58.4011
58.3992
58.3873
58.3934
58.4014
58.3993
58.3924
58.3938
58.4049
58.4082
58.4058
58.4005
58.399
58.3838
54.992
55.9453
56.8995
57.6403
58.1204
58.3696
58.4467
58.4507
58.4423
58.4472
58.4594
58.4487
58.4467
58.4516
58.4457
58.4505
58.4681
58.4696
58.4664
58.4536
58.457
58.4695
58.4652
58.4604
58.4671
58.4748
58.4657
58.4707
58.4727
58.4705
58.4699
58.4672
58.4615
58.4558
58.4433
58.4346
58.4358
58.4358
58.4326
58.4232
58.4182
58.4195
58.4203
58.4169
58.404
58.4047
58.4123
58.4088
58.4134
58.4146
58.4113
58.4118
58.4112
58.4073
58.3948
58.3946
58.4011
58.3992
58.3926
58.3862
58.3965
58.4063
58.4039
58.4049
58.4056
58.4041
58.3896
58.3888
58.3958
58.3894
58.3949
58.4012
58.4009
58.4009
58.3885
58.3903
58.4082
58.4097
58.4064
58.3943
58.3953
58.4048
58.4042
58.4047
58.404
58.396
58.397
58.4007
58.3979
58.3889
54.9926
55.9437
56.8922
57.6557
58.1311
58.3393
58.4101
58.4146
58.401
58.4063
58.4144
58.4033
58.4094
58.415
58.4027
58.4035
58.4175
58.4153
58.4242
58.4374
58.4332
58.4288
58.4331
58.4409
58.4468
58.4603
58.4497
58.4554
58.4605
58.4577
58.4527
58.4502
58.4472
58.4455
58.4396
58.4328
58.4299
58.42
58.4236
58.4278
58.4221
58.4224
58.4226
58.4231
58.4236
58.4207
58.408
58.4112
58.4149
58.4148
58.4147
58.4073
58.4019
58.3952
58.397
58.3975
58.3948
58.3866
58.3919
58.3989
58.3984
58.3983
58.3854
58.389
58.3944
58.3925
58.39
58.3865
58.3911
58.3897
58.3977
58.4023
58.4016
58.4013
58.3915
58.391
58.3845
58.3876
58.404
58.3955
58.3987
58.4144
58.4187
58.4168
58.4132
58.4025
58.4034
58.4122
58.4109
58.4002
54.9918
55.946
56.8976
57.6439
58.1159
58.3696
58.457
58.4631
58.4542
58.459
58.4695
58.4562
58.4605
58.4693
58.4616
58.4627
58.4601
58.4515
58.4533
58.4621
58.4561
58.4609
58.4747
58.4744
58.4713
58.4743
58.4748
58.4713
58.4718
58.472
58.4717
58.4688
58.466
58.4629
58.4601
58.4569
58.4533
58.4498
58.4372
58.4288
58.4222
58.4087
58.3936
58.3983
58.4065
58.4025
58.402
58.4004
58.3913
58.3858
58.3872
58.3858
58.3827
58.392
58.4013
58.3982
58.3976
58.396
58.3957
58.3906
58.3864
58.3975
58.409
58.4068
58.3979
58.4006
58.41
58.4108
58.4105
58.3935
58.3938
58.4006
58.4006
58.3996
58.3858
58.3892
58.4082
58.4087
58.406
58.3935
58.3954
58.4051
58.3986
58.4022
58.4033
58.4003
58.3909
58.3934
58.3977
58.3843
54.9928
55.9493
56.8894
57.6471
58.1321
58.3467
58.4289
58.436
58.4298
58.4223
58.4242
58.433
58.4309
58.4243
58.4207
58.436
58.445
58.4426
58.4335
58.4364
58.4433
58.4315
58.4333
58.4444
58.4446
58.4421
58.4487
58.4561
58.4436
58.4417
58.444
58.4415
58.4362
58.4395
58.4415
58.4394
58.4397
58.4374
58.4376
58.4361
58.4339
58.4318
58.4275
58.4248
58.4223
58.417
58.4052
58.3902
58.3867
58.3776
58.3824
58.3955
58.3969
58.3944
58.3826
58.39
58.4035
58.4
58.4162
58.4285
58.4283
58.4282
58.4164
58.4186
58.4206
58.4119
58.4186
58.423
58.4224
58.4224
58.4193
58.4154
58.4012
58.4027
58.4061
58.4034
58.395
58.3968
58.3988
58.39
58.3866
58.3979
58.4098
58.4102
58.4102
58.3971
58.3992
58.4015
58.3984
58.3888
54.9917
55.9474
56.8969
57.6451
58.1121
58.3644
58.4672
58.4784
58.4767
58.4763
58.4675
58.4735
58.4795
58.4774
58.4771
58.4756
58.475
58.4657
58.4583
58.4617
58.4683
58.4674
58.4649
58.4576
58.4622
58.4741
58.4724
58.473
58.4719
58.4706
58.4641
58.4629
58.4607
58.4582
58.4559
58.4513
58.448
58.4443
58.4406
58.4374
58.4322
58.4224
58.4005
58.3918
58.3902
58.3903
58.389
58.3846
58.3832
58.3711
58.3734
58.3864
58.3862
58.3869
58.3806
58.3864
58.4093
58.4097
58.4038
58.3988
58.3983
58.3928
58.3971
58.4073
58.4019
58.4017
58.4025
58.4033
58.4016
58.3986
58.3911
58.3862
58.3954
58.405
58.4051
58.4048
58.3928
58.391
58.3972
58.3953
58.4018
58.4053
58.4031
58.4012
58.3935
58.391
58.3886
58.3867
58.3878
58.3831
54.9917
55.9467
56.8959
57.6478
58.1107
58.3693
58.4685
58.4779
58.4691
58.4747
58.4788
58.4779
58.4777
58.4631
58.467
58.4744
58.4597
58.4617
58.472
58.4669
58.464
58.471
58.4774
58.4697
58.4757
58.4812
58.4814
58.4813
58.4772
58.4767
58.4741
58.4736
58.4696
58.4672
58.463
58.459
58.4546
58.4461
58.4348
58.4255
58.4205
58.4122
58.4033
58.3993
58.3949
58.3903
58.3762
58.3746
58.3928
58.3974
58.3963
58.3961
58.39
58.3841
58.3874
58.4041
58.408
58.3959
58.4014
58.4122
58.4015
58.4075
58.4137
58.4133
58.413
58.401
58.3991
58.3977
58.3935
58.3914
58.4034
58.416
58.4171
58.4146
58.4125
58.4122
58.4062
58.4064
58.4029
58.4005
58.3994
58.3904
58.3939
58.4067
58.4065
58.406
58.3916
58.3935
58.3994
58.3853
54.9918
55.947
56.8982
57.6422
58.1157
58.3667
58.4552
58.4726
58.4705
58.4606
58.4638
58.4704
58.4695
58.4698
58.4653
58.4631
58.4588
58.4554
58.4594
58.4704
58.4687
58.4662
58.4595
58.4644
58.4719
58.4647
58.4654
58.4643
58.4663
58.4622
58.4594
58.4583
58.454
58.4465
58.4404
58.4227
58.4211
58.429
58.4293
58.4294
58.4269
58.4242
58.4214
58.4203
58.415
58.4093
58.4042
58.3958
58.3743
58.3752
58.39
58.3902
58.3893
58.3833
58.3765
58.3838
58.4101
58.4097
58.4006
58.4048
58.4145
58.4032
58.4089
58.4158
58.4151
58.4148
58.4027
58.4053
58.4079
58.3967
58.4011
58.4077
58.3942
58.399
58.4067
58.4064
58.4063
58.3944
58.3989
58.4094
58.4103
58.4077
58.4048
58.4026
58.3883
58.3892
58.3941
58.3934
58.3931
58.38
54.9896
55.9526
56.8912
57.6448
58.1227
58.3649
58.4386
58.4453
58.4427
58.4339
58.4381
58.4437
58.441
58.435
58.4316
58.4375
58.4331
58.4411
58.4521
58.4476
58.4476
58.4455
58.4575
58.47
58.4784
58.479
58.4788
58.4787
58.4752
58.4752
58.4728
58.4707
58.467
58.4666
58.4614
58.4565
58.4496
58.4431
58.4382
58.4319
58.4228
58.4174
58.4089
58.3993
58.3939
58.3783
58.3787
58.3808
58.3797
58.3795
58.3691
58.3824
58.4229
58.4236
58.4195
58.424
58.4346
58.4354
58.4356
58.4301
58.4227
58.4228
58.4236
58.4169
58.4218
58.4244
58.4221
58.4151
58.4137
58.4188
58.4175
58.4206
58.4216
58.4189
58.405
58.4069
58.411
58.4027
58.4021
58.4
58.3975
58.3959
58.3957
58.388
58.3876
58.39
58.3863
58.386
58.3859
58.3778
54.9925
55.9458
56.8929
57.65
58.1302
58.3513
58.401
58.396
58.3973
58.4162
58.4221
58.4216
58.4216
58.4086
58.4122
58.429
58.4271
58.427
58.424
58.4288
58.4642
58.4816
58.4736
58.4799
58.4832
58.4794
58.4796
58.4791
58.4777
58.475
58.4717
58.4685
58.465
58.4605
58.4533
58.436
58.4218
58.421
58.4207
58.418
58.4142
58.4123
58.4097
58.406
58.3971
58.3844
58.3874
58.3927
58.3864
58.3893
58.3925
58.3915
58.3918
58.3869
58.3832
58.3718
58.3747
58.3812
58.3766
58.3765
58.3732
58.3768
58.3786
58.3759
58.3676
58.3697
58.3815
58.3813
58.3764
58.3761
58.3898
58.3897
58.3979
58.4093
58.4075
58.4052
58.3926
58.3928
58.4025
58.3987
58.4041
58.406
58.4029
58.3932
58.3943
58.3965
58.3828
58.3864
58.396
58.3823
54.9921
55.9451
56.9001
57.6394
58.1213
58.3702
58.4499
58.4555
58.4547
58.4545
58.4435
58.4459
58.458
58.4571
58.4583
58.4582
58.4604
58.4571
58.4551
58.4502
58.4567
58.4757
58.4714
58.4746
58.4816
58.4795
58.4798
58.4798
58.4788
58.4783
58.4723
58.4582
58.4521
58.4468
58.4444
58.441
58.4346
58.4326
58.4296
58.4268
58.422
58.4187
58.4143
58.4114
58.4075
58.4001
58.3827
58.375
58.3806
58.3866
58.3839
58.3717
58.3725
58.4058
58.4238
58.4225
58.4165
58.4218
58.4351
58.4278
58.4275
58.4275
58.4207
58.4259
58.4329
58.4258
58.4252
58.4212
58.4107
58.4069
58.4116
58.4066
58.4114
58.4237
58.4181
58.4248
58.4297
58.4208
58.4266
58.4298
58.4289
58.4285
58.4178
58.404
58.4039
58.4061
58.4007
58.4001
58.399
58.3846
54.9918
55.9463
56.8971
57.6454
58.1137
58.3724
58.4535
58.4524
58.4601
58.4721
58.4618
58.4649
58.4668
58.4643
58.4566
58.4599
58.4725
58.4666
58.4628
58.4707
58.4808
58.4803
58.4779
58.4852
58.4952
58.4859
58.4899
58.4908
58.4865
58.4865
58.4863
58.4847
58.4779
58.4717
58.4647
58.4497
58.4421
58.4347
58.4194
58.4036
58.407
58.4106
58.4086
58.4088
58.4046
58.3998
58.3846
58.3866
58.398
58.3996
58.3971
58.384
58.3813
58.4046
58.4232
58.4319
58.4388
58.4322
58.4377
58.4398
58.4366
58.4262
58.4294
58.4373
58.4279
58.426
58.4232
58.4129
58.4143
58.4234
58.4186
58.4259
58.431
58.4208
58.4271
58.4323
58.4317
58.4315
58.4166
58.42
58.4231
58.4135
58.418
58.4205
58.418
58.4157
58.4008
58.4017
58.4039
58.3903
54.9934
55.9438
56.892
57.6568
58.1217
58.3533
58.4154
58.421
58.4188
58.4088
58.4148
58.4193
58.4143
58.4099
58.4204
58.4428
58.4368
58.4473
58.4759
58.4735
58.4736
58.4736
58.4738
58.4737
58.4739
58.4739
58.4679
58.4726
58.4757
58.4671
58.4662
58.465
58.465
58.4646
58.4626
58.4589
58.4532
58.4436
58.4212
58.4088
58.4044
58.3929
58.3971
58.4008
58.3931
58.3934
58.3931
58.3897
58.387
58.3848
58.3829
58.3778
58.3777
58.3836
58.3826
58.3734
58.3759
58.3878
58.3815
58.3859
58.3874
58.3854
58.3831
58.3926
58.4112
58.4111
58.4118
58.4083
58.4052
58.3936
58.3988
58.4069
58.4057
58.4052
58.4003
58.3991
58.3959
58.3922
58.3957
58.4012
58.4014
58.3994
58.3986
58.3899
58.3936
58.405
58.4028
58.4028
58.4014
58.3889
54.9904
55.9496
56.8939
57.6431
58.1274
58.3615
58.4414
58.4463
58.4451
58.4415
58.4435
58.4512
58.4506
58.451
58.4519
58.4484
58.447
58.4426
58.4489
58.4582
58.4569
58.4522
58.4506
58.4616
58.4625
58.4608
58.4693
58.4781
58.4779
58.4777
58.4727
58.4628
58.451
58.4476
58.444
58.4404
58.4374
58.4341
58.4312
58.4268
58.4177
58.4123
58.408
58.4019
58.3885
58.3768
58.3722
58.3725
58.3718
58.3636
58.3612
58.3788
58.3873
58.385
58.3807
58.3714
58.3689
58.3625
58.3627
58.3723
58.3719
58.3799
58.3884
58.3801
58.3853
58.3915
58.3915
58.3914
58.3796
58.3754
58.3857
58.3902
58.382
58.3879
58.3953
58.3802
58.3806
58.3939
58.3973
58.3943
58.3835
58.389
58.4037
58.3995
58.4003
58.4057
58.4053
58.4039
58.4025
58.382
54.9919
55.9456
56.899
57.6412
58.1197
58.3709
58.4475
58.4516
58.4452
58.4519
58.4653
58.4529
58.4568
58.4716
58.4715
58.4689
58.4723
58.4758
58.4676
58.4718
58.4736
58.4649
58.4711
58.4856
58.4816
58.4849
58.4889
58.4872
58.4863
58.4832
58.4785
58.4776
58.4718
58.4664
58.4588
58.4419
58.4327
58.4281
58.4213
58.4172
58.414
58.4111
58.4098
58.4079
58.4055
58.4017
58.3941
58.372
58.3695
58.3792
58.3838
58.3817
58.3711
58.376
58.3835
58.3839
58.3839
58.3703
58.3739
58.3827
58.3815
58.3773
58.3783
58.3917
58.3867
58.3934
58.3973
58.3955
58.3949
58.3894
58.3866
58.382
58.3755
58.3869
58.4023
58.4015
58.4014
58.3944
58.3997
58.4021
58.4002
58.3989
58.3835
58.388
58.3992
58.398
58.3968
58.3888
58.3877
58.381
54.9917
55.9466
56.8959
57.648
58.1108
58.3699
58.4678
58.4811
58.4783
58.4661
58.4672
58.4741
58.462
58.4674
58.4763
58.4623
58.4648
58.476
58.4713
58.4676
58.4746
58.4802
58.4716
58.4781
58.4914
58.486
58.4847
58.4836
58.4834
58.4835
58.4815
58.4788
58.4793
58.4788
58.4728
58.4567
58.4451
58.4375
58.4332
58.4296
58.4263
58.4231
58.419
58.4162
58.4107
58.3973
58.3939
58.3874
58.3885
58.3892
58.3834
58.376
58.3841
58.4225
58.42
58.4278
58.4397
58.4395
58.4395
58.4322
58.4325
58.4293
58.4333
58.4348
58.4291
58.4285
58.4274
58.4165
58.4125
58.4177
58.4151
58.4158
58.4155
58.4167
58.4158
58.4054
58.4065
58.413
58.4102
58.4122
58.4136
58.4115
58.4025
58.3981
58.408
58.4131
58.4106
58.4104
58.4061
58.389
54.9918
55.9463
56.8971
57.6454
58.1137
58.3724
58.4536
58.4526
58.4603
58.4724
58.4606
58.465
58.4712
58.4689
58.461
58.4598
58.4682
58.4657
58.4627
58.4626
58.4617
58.4722
58.4868
58.4759
58.4821
58.4918
58.4898
58.4872
58.4863
58.4861
58.4832
58.4806
58.4691
58.4621
58.4569
58.4476
58.4424
58.4356
58.4212
58.404
58.4076
58.4121
58.4102
58.41
58.4044
58.4004
58.3865
58.3888
58.3981
58.3992
58.3966
58.3816
58.3812
58.4101
58.4224
58.4135
58.4193
58.4338
58.4329
58.4311
58.4205
58.4151
58.416
58.4084
58.4122
58.422
58.4203
58.4201
58.4185
58.418
58.4072
58.4125
58.4222
58.4143
58.4195
58.4219
58.4171
58.4167
58.4154
58.4091
58.3997
58.3964
58.3877
58.3914
58.4027
58.3958
58.402
58.4057
58.4019
58.3882
54.9921
55.945
56.9002
57.6392
58.1218
58.3699
58.4459
58.4645
58.4625
58.4519
58.4557
58.4587
58.4456
58.4451
58.4615
58.4687
58.4646
58.4643
58.4644
58.457
58.4632
58.4761
58.4744
58.4744
58.4723
58.4728
58.4694
58.46
58.4641
58.4736
58.4733
58.473
58.4675
58.4668
58.4667
58.4662
58.4629
58.4577
58.4483
58.4298
58.4183
58.4138
58.4085
58.4049
58.4021
58.396
58.3783
58.3735
58.3866
58.3913
58.3881
58.3763
58.3762
58.4091
58.4222
58.4212
58.4175
58.4193
58.4357
58.4369
58.4332
58.4199
58.4181
58.4283
58.4304
58.4286
58.429
58.4267
58.4236
58.4092
58.4086
58.4233
58.4244
58.422
58.4191
58.4147
58.4117
58.4024
58.4067
58.421
58.4206
58.4203
58.415
58.414
58.4114
58.4073
58.3981
58.3993
58.4004
58.3889
54.9929
55.945
56.8939
57.65
58.1274
58.3529
58.4117
58.4129
58.4052
58.4049
58.4233
58.4322
58.4295
58.4299
58.4291
58.4191
58.424
58.4391
58.4328
58.4309
58.4422
58.4705
58.47
58.4684
58.4629
58.467
58.4702
58.4592
58.4644
58.4695
58.4689
58.4686
58.4647
58.4638
58.4611
58.4577
58.4437
58.4388
58.4314
58.4115
58.4068
58.4081
58.4046
58.4023
58.4045
58.4059
58.3954
58.3989
58.4015
58.3901
58.3943
58.4048
58.4036
58.401
58.397
58.3951
58.3931
58.3905
58.3725
58.3719
58.3923
58.3963
58.3929
58.3836
58.3809
58.3972
58.4053
58.4025
58.4023
58.4018
58.3953
58.3927
58.3915
58.4019
58.4149
58.4022
58.4071
58.4143
58.4016
58.4065
58.412
58.4115
58.4112
58.3968
58.3963
58.4096
58.4144
58.4133
58.4101
58.3934
54.9933
55.9484
56.8896
57.6481
58.1319
58.3456
58.4277
58.4352
58.4346
58.4348
58.4335
58.4326
58.4248
58.4181
58.4282
58.4441
58.439
58.4416
58.4427
58.4405
58.4345
58.4443
58.472
58.4725
58.4714
58.4606
58.457
58.4583
58.4566
58.4596
58.4598
58.4562
58.4463
58.4432
58.4403
58.4366
58.4288
58.4262
58.4229
58.4181
58.413
58.4103
58.4069
58.4069
58.4068
58.4036
58.4004
58.4013
58.4021
58.3997
58.3975
58.3808
58.3762
58.3812
58.3821
58.376
58.3766
58.3899
58.4018
58.4075
58.4075
58.4076
58.3991
58.4043
58.4076
58.4048
58.3963
58.3982
58.4055
58.392
58.393
58.408
58.4093
58.4069
58.402
58.396
58.404
58.4114
58.4077
58.4075
58.4045
58.3946
58.3909
58.4
58.4026
58.3992
58.3875
58.3899
58.3946
58.3806
54.9928
55.9492
56.8895
57.6472
58.1322
58.3468
58.4288
58.4357
58.4194
58.422
58.4281
58.4267
58.4266
58.4161
58.424
58.4493
58.4499
58.4466
58.4352
58.4394
58.4577
58.4553
58.4558
58.454
58.4623
58.4666
58.4634
58.4634
58.4635
58.463
58.4564
58.437
58.4366
58.443
58.4381
58.4393
58.437
58.4342
58.4302
58.4289
58.4248
58.422
58.4182
58.4107
58.3931
58.3831
58.3809
58.3808
58.3802
58.3712
58.3789
58.3915
58.3855
58.3987
58.4224
58.4215
58.4187
58.4073
58.4039
58.4086
58.4076
58.4127
58.4142
58.4126
58.4125
58.4095
58.3968
58.396
58.4056
58.4061
58.4089
58.4106
58.4083
58.4009
58.3948
58.4
58.4078
58.407
58.4079
58.406
58.4001
58.3978
58.3969
58.3981
58.3952
58.3876
58.3827
58.3913
58.3951
58.384
54.9918
55.9464
56.8967
57.646
58.113
58.3704
58.4622
58.4729
58.4704
58.4608
58.4639
58.4736
58.4631
58.4693
58.4766
58.4745
58.4714
58.4652
58.4656
58.4627
58.4615
58.4639
58.4613
58.4698
58.4789
58.4674
58.4733
58.4773
58.4733
58.4727
58.4721
58.4681
58.4491
58.4414
58.4374
58.4336
58.4302
58.4238
58.4224
58.4196
58.4171
58.4141
58.4085
58.4045
58.392
58.3946
58.4064
58.3941
58.3948
58.4101
58.4145
58.413
58.4138
58.4103
58.4006
58.39
58.3925
58.3945
58.3976
58.4034
58.4024
58.4009
58.4009
58.4002
58.3946
58.391
58.3975
58.4034
58.4017
58.3968
58.4049
58.4161
58.4172
58.4146
58.4105
58.4073
58.4035
58.4052
58.4046
58.4045
58.4037
58.3959
58.39
58.4024
58.4094
58.4062
58.3945
58.3943
58.3999
58.3863
54.9916
55.9477
56.8962
57.6466
58.1086
58.3697
58.4603
58.4644
58.4714
58.475
58.4629
58.468
58.4755
58.4752
58.4768
58.4742
58.476
58.4742
58.4794
58.4843
58.4868
58.4846
58.4817
58.4728
58.4773
58.4825
58.4747
58.4743
58.4745
58.4707
58.4705
58.4702
58.4679
58.466
58.4537
58.4479
58.4429
58.4397
58.4353
58.4254
58.4233
58.421
58.4164
58.4039
58.3998
58.3996
58.3997
58.3984
58.3946
58.3979
58.3954
58.4015
58.4069
58.4042
58.3951
58.3967
58.4085
58.4083
58.4088
58.407
58.4058
58.3932
58.3928
58.4059
58.4014
58.4059
58.4182
58.4127
58.4186
58.4214
58.4198
58.4194
58.4098
58.4136
58.4207
58.4204
58.4204
58.4157
58.4104
58.4061
58.4066
58.4065
58.4072
58.4056
58.3958
58.3894
58.3942
58.3966
58.3932
58.3814
54.99
55.9514
56.8937
57.6414
58.1243
58.3673
58.4303
58.4307
58.432
58.4321
58.4316
58.4247
58.4255
58.4261
58.4202
58.4274
58.4391
58.4375
58.4311
58.4307
58.4444
58.4443
58.4521
58.4598
58.4542
58.456
58.4563
58.4532
58.4402
58.4421
58.4489
58.4484
58.4476
58.4324
58.4343
58.436
58.4291
58.4299
58.4293
58.427
58.4247
58.4235
58.4157
58.3943
58.3856
58.3859
58.3901
58.3878
58.3759
58.3836
58.3963
58.3979
58.3953
58.3903
58.3896
58.3845
58.3811
58.3965
58.4164
58.4084
58.4134
58.4158
58.4123
58.413
58.4119
58.4014
58.4049
58.413
58.4043
58.4036
58.4033
58.3952
58.3988
58.4073
58.3928
58.3934
58.4044
58.4079
58.4056
58.3956
58.4029
58.4094
58.4029
58.4038
58.404
58.402
58.3955
58.3984
58.4004
58.3891
54.9918
55.9462
56.8974
57.6442
58.1165
58.3668
58.4613
58.4752
58.4717
58.4712
58.4642
58.4703
58.4749
58.4594
58.4615
58.4691
58.4572
58.4625
58.4749
58.4614
58.4641
58.4744
58.4666
58.4735
58.479
58.4788
58.4786
58.4709
58.4682
58.4644
58.4527
58.4555
58.4572
58.4538
58.4539
58.4514
58.4491
58.4415
58.435
58.4295
58.4225
58.4176
58.4092
58.3963
58.3911
58.3879
58.3816
58.3796
58.3742
58.3762
58.3992
58.4062
58.4059
58.4056
58.3961
58.3921
58.3978
58.3995
58.3907
58.3903
58.3956
58.3912
58.3883
58.3933
58.3951
58.3881
58.3922
58.3959
58.3862
58.3878
58.407
58.4114
58.4115
58.4115
58.4089
58.4025
58.4027
58.4051
58.4023
58.3932
58.3914
58.4018
58.4071
58.4049
58.4028
58.4024
58.3898
58.3929
58.3972
58.3839
54.992
55.9446
56.8937
57.6532
58.1283
58.3499
58.4001
58.4016
58.3999
58.4083
58.4251
58.425
58.424
58.4093
58.4092
58.434
58.4406
58.4333
58.4351
58.4527
58.4563
58.4492
58.4564
58.4743
58.4662
58.4736
58.4796
58.4796
58.4794
58.4706
58.4695
58.465
58.4629
58.4563
58.437
58.433
58.4321
58.4301
58.4305
58.4296
58.429
58.4264
58.4247
58.4222
58.4173
58.4006
58.4009
58.4117
58.4121
58.4099
58.409
58.4061
58.4004
58.3849
58.386
58.3942
58.3948
58.3949
58.3827
58.3866
58.3945
58.3921
58.3839
58.3843
58.3984
58.3994
58.3957
58.3857
58.3826
58.3873
58.3836
58.3903
58.4031
58.4023
58.3988
58.3853
58.3885
58.3959
58.3912
58.3849
58.3905
58.405
58.3983
58.404
58.4068
58.4005
58.4044
58.4056
58.4014
58.385
54.9919
55.9456
56.8989
57.6409
58.1202
58.3692
58.4453
58.4692
58.4714
58.4706
58.4702
58.4546
58.4568
58.4642
58.4521
58.4571
58.4646
58.4549
58.4608
58.4644
58.451
58.4508
58.4578
58.4548
58.4615
58.4679
58.4624
58.4636
58.4636
58.462
58.4484
58.449
58.4524
58.4504
58.4499
58.444
58.4402
58.4226
58.4213
58.4268
58.4276
58.4276
58.4227
58.4221
58.4189
58.4141
58.4021
58.4081
58.4169
58.4125
58.412
58.4109
58.411
58.4116
58.4118
58.4096
58.4044
58.3918
58.3847
58.3891
58.392
58.3886
58.3892
58.389
58.3889
58.3798
58.3821
58.3958
58.3957
58.3908
58.3947
58.4072
58.4078
58.4068
58.3922
58.393
58.4074
58.4088
58.4062
58.3935
58.3958
58.4058
58.3989
58.4024
58.4034
58.4004
58.391
58.3936
58.3978
58.3844
54.9907
55.9475
56.8925
57.6503
58.1273
58.3536
58.4291
58.4352
58.4345
58.4342
58.4226
58.4219
58.4391
58.4524
58.4677
58.4664
58.4667
58.4667
58.4599
58.4578
58.4491
58.4454
58.451
58.4521
58.4597
58.4654
58.4541
58.4597
58.4651
58.4651
58.465
58.4618
58.4612
58.4571
58.4563
58.4528
58.4482
58.4349
58.428
58.4117
58.406
58.4131
58.414
58.4054
58.4063
58.4171
58.419
58.4169
58.4159
58.4091
58.4041
58.4016
58.3968
58.3937
58.3939
58.3944
58.3921
58.3921
58.3885
58.3765
58.3752
58.3851
58.3858
58.3808
58.385
58.3918
58.3915
58.3914
58.3821
58.3908
58.403
58.4019
58.401
58.3911
58.3964
58.4018
58.4005
58.3999
58.387
58.3939
58.4131
58.4131
58.4109
58.4088
58.4057
58.3995
58.3903
58.3962
58.4025
58.3908
54.9928
55.943
56.8939
57.6534
58.1313
58.3471
58.3915
58.3867
58.3945
58.4248
58.4214
58.4273
58.4422
58.4314
58.4368
58.4466
58.4332
58.4379
58.4487
58.4348
58.4375
58.448
58.4375
58.4432
58.4494
58.4469
58.4465
58.4375
58.4438
58.4504
58.4439
58.446
58.4474
58.4461
58.4434
58.4443
58.4449
58.4428
58.4433
58.4396
58.4365
58.4337
58.4285
58.4184
58.399
58.3936
58.3902
58.3791
58.3838
58.392
58.3878
58.3824
58.3884
58.403
58.4027
58.4016
58.3901
58.3876
58.3985
58.4031
58.4
58.4001
58.3972
58.3843
58.3861
58.3895
58.3794
58.3771
58.3918
58.4054
58.4027
58.4052
58.4027
58.3994
58.3921
58.3911
58.3842
58.3836
58.4071
58.4171
58.4114
58.4146
58.4154
58.4135
58.4136
58.4112
58.4068
58.4057
58.4008
58.3842
54.9916
55.9475
56.8928
57.649
58.1299
58.3444
58.4197
58.4241
58.4222
58.4221
58.4138
58.4229
58.4334
58.4312
58.4324
58.432
58.4238
58.4271
58.4471
58.448
58.4467
58.4343
58.4344
58.4465
58.4437
58.4487
58.451
58.4474
58.4351
58.4339
58.4407
58.4407
58.4382
58.4346
58.434
58.4296
58.4291
58.4245
58.4095
58.4096
58.4096
58.4059
58.3978
58.3947
58.3928
58.3828
58.3803
58.3995
58.4102
58.4014
58.4053
58.41
58.4093
58.4086
58.3981
58.3888
58.3916
58.394
58.3915
58.3844
58.3901
58.4007
58.4006
58.4006
58.3953
58.3908
58.4019
58.4186
58.4175
58.4146
58.4177
58.4195
58.4176
58.4175
58.4153
58.4137
58.3975
58.4016
58.4137
58.4127
58.4116
58.4035
58.4075
58.4101
58.4084
58.4089
58.4055
58.4031
58.3989
58.3855
54.9932
55.9447
56.8943
57.6506
58.1224
58.3553
58.427
58.4304
58.4289
58.4284
58.4161
58.4177
58.4397
58.4595
58.4597
58.4446
58.446
58.4564
58.4467
58.4494
58.4687
58.4701
58.4663
58.4532
58.4541
58.4582
58.4461
58.4508
58.4537