/*--------------------------------*- C++ -*----------------------------------*\
  =========                 |
  \\      /  F ield         | OpenFOAM: The Open Source CFD Toolbox
   \\    /   O peration     | Website:  https://openfoam.org
    \\  /    A nd           | Version:  11
     \\/     M anipulation  |
\*---------------------------------------------------------------------------*/
FoamFile
{
    format      ascii;
    class       volScalarField;
    location    "0.072";
    object      p;
}
// * * * * * * * * * * * * * * * * * * * * * * * * * * * * * * * * * * * * * //

dimensions      [0 2 -2 0 0 0 0];

internalField   nonuniform List<scalar> 
287084
(
1.69233
1.40534
1.34758
1.27892
1.20916
1.15651
1.10647
1.0602
1.01568
0.97207
0.92811
0.884757
0.842343
0.798571
0.753502
0.708057
0.662249
0.616289
0.570334
0.524655
0.479378
0.43496
0.391379
0.349329
0.308248
0.269166
0.234948
0.204621
0.177544
0.155366
0.133531
0.113793
0.0964727
0.0818707
0.0717167
0.064525
0.0600876
0.0581158
0.0582739
0.060257
0.0637704
0.0685338
0.0742555
0.0806991
0.0876293
0.0948285
0.102156
0.109342
0.116409
0.123045
0.128913
0.135091
0.14137
0.146234
0.150794
0.154271
0.156937
0.159341
0.161089
0.162117
0.16245
0.16229
0.161519
0.160251
0.158395
0.156004
0.153142
0.149738
0.146019
0.141478
0.136978
0.132592
0.12718
0.121265
0.115359
0.109036
0.102553
0.0957542
0.0887228
0.0815987
0.074053
0.0663785
0.0585695
0.0505593
0.0424962
0.0343479
0.0245228
0.0145092
0.00522414
0.00105653
1.55648
1.36442
1.31644
1.25841
1.1975
1.14846
1.10091
1.05612
1.01254
0.969511
0.926208
0.883177
0.840034
0.795828
0.750812
0.70533
0.659461
0.613346
0.567191
0.521275
0.475782
0.431159
0.387421
0.345347
0.304334
0.265791
0.232321
0.20287
0.174528
0.148301
0.125694
0.105989
0.0897123
0.0765964
0.0669053
0.0601415
0.056063
0.054412
0.054873
0.057152
0.0609468
0.0659792
0.0719562
0.0786407
0.085794
0.0932092
0.100714
0.10814
0.115365
0.122304
0.128779
0.134832
0.140498
0.145443
0.149771
0.153497
0.156439
0.158921
0.16073
0.161785
0.162215
0.162068
0.161366
0.160094
0.158263
0.155923
0.153032
0.149732
0.145934
0.141738
0.137139
0.13221
0.126943
0.121241
0.11522
0.108919
0.102575
0.0958154
0.0887113
0.0815427
0.0740348
0.0663756
0.0586289
0.0507003
0.0423574
0.0338992
0.0253302
0.0167068
0.0076502
0.00192322
1.5301
1.35811
1.30857
1.2526
1.19398
1.14544
1.09829
1.05354
1.00979
0.966541
0.923048
0.879664
0.836146
0.7916
0.746292
0.700438
0.654158
0.607589
0.560952
0.514522
0.468539
0.42341
0.379368
0.336892
0.296277
0.258116
0.223044
0.191022
0.162327
0.136892
0.114724
0.0957712
0.0800013
0.0673403
0.0580023
0.0516789
0.0481056
0.0469829
0.0479989
0.0508369
0.0551806
0.0607389
0.0672274
0.0743913
0.0819922
0.0898268
0.0977071
0.105476
0.113002
0.120157
0.126828
0.133108
0.139001
0.144195
0.148738
0.152566
0.15565
0.158217
0.160075
0.161245
0.161775
0.161709
0.161008
0.159788
0.157981
0.15565
0.152848
0.149552
0.145799
0.141593
0.137026
0.132168
0.126859
0.121129
0.115195
0.108979
0.10247
0.0956743
0.0886932
0.0814902
0.0740761
0.0664895
0.0586945
0.050767
0.0426857
0.0339888
0.0250235
0.0162105
0.00765532
0.00245032
1.48252
1.32355
1.27966
1.22884
1.17595
1.13114
1.08694
1.04426
1.00196
0.959611
0.916853
0.873567
0.829686
0.784849
0.739247
0.692948
0.64611
0.598914
0.551586
0.504411
0.457692
0.411803
0.367072
0.323976
0.282854
0.244117
0.208599
0.176414
0.147257
0.121395
0.0989888
0.0801011
0.0647671
0.0528726
0.0442991
0.0388094
0.036083
0.0358298
0.037714
0.0414144
0.0465976
0.0529621
0.0602122
0.0680931
0.0763613
0.0848121
0.0932626
0.101551
0.109561
0.117183
0.12434
0.130963
0.137021
0.14237
0.147034
0.151102
0.154432
0.157086
0.159078
0.160394
0.161036
0.161047
0.160479
0.15931
0.157588
0.155349
0.152547
0.149298
0.145587
0.141442
0.136908
0.131981
0.126716
0.121078
0.11514
0.108891
0.102408
0.0956555
0.08862
0.0814069
0.0739913
0.0663584
0.0585973
0.0506666
0.0424918
0.0341283
0.0255346
0.0168371
0.0083157
0.00298802
1.45953
1.30904
1.26765
1.2189
1.16815
1.12422
1.08062
1.03813
0.995793
0.953255
0.910222
0.866518
0.822044
0.776648
0.730391
0.683334
0.63567
0.587545
0.539248
0.491056
0.443294
0.396391
0.350685
0.306677
0.264763
0.225406
0.189063
0.156001
0.126453
0.10052
0.0783692
0.0599884
0.0453101
0.0342082
0.0265267
0.0220068
0.0203388
0.0211867
0.0241909
0.0290026
0.035278
0.0426952
0.0509522
0.0597772
0.0689251
0.078187
0.0873777
0.0963496
0.104962
0.113122
0.120742
0.127764
0.134179
0.139913
0.144928
0.149253
0.152806
0.155673
0.157841
0.159301
0.160093
0.160246
0.159758
0.15869
0.157043
0.154843
0.152153
0.148961
0.145294
0.141199
0.136689
0.13179
0.126546
0.120931
0.115007
0.108805
0.102333
0.0955868
0.0886236
0.0814372
0.0740416
0.0664822
0.0587152
0.0507846
0.0426648
0.0342067
0.0257042
0.0170387
0.00833285
0.00288449
1.43511
1.28633
1.24664
1.2001
1.15182
1.10996
1.06814
1.02702
0.985622
0.943655
0.900865
0.857066
0.812238
0.766275
0.719303
0.671386
0.622702
0.573477
0.523968
0.474508
0.425467
0.377246
0.33031
0.285103
0.242135
0.201824
0.164705
0.131061
0.101132
0.0751111
0.0531112
0.035156
0.0211694
0.0110168
0.00444946
0.00118496
0.000852814
0.00309462
0.0075126
0.0137293
0.0213729
0.0301041
0.0396053
0.0495985
0.0598299
0.0700897
0.0801951
0.0899923
0.0993588
0.108193
0.116426
0.123997
0.130876
0.137006
0.142368
0.146988
0.150847
0.153961
0.156343
0.158004
0.158964
0.159251
0.158907
0.157945
0.156399
0.154309
0.151671
0.148531
0.144924
0.140866
0.1364
0.131536
0.126314
0.120742
0.114853
0.108672
0.102211
0.0954955
0.0885359
0.0813627
0.0739985
0.0664403
0.0587134
0.0508319
0.0427316
0.0343708
0.0259189
0.0171917
0.00847438
0.00304269
1.41705
1.2709
1.23295
1.18783
1.14097
1.09995
1.05872
1.01784
0.976455
0.934295
0.891139
0.846819
0.801282
0.754478
0.706515
0.657453
0.607527
0.556903
0.505932
0.454934
0.404311
0.354543
0.306062
0.259444
0.215161
0.173738
0.13566
0.101295
0.0709857
0.0448909
0.0231787
0.00582694
-0.00726157
-0.0162772
-0.0215119
-0.0233004
-0.0220487
-0.0181612
-0.0120739
-0.00420441
0.00505021
0.0153272
0.0262962
0.0376666
0.0491739
0.0606044
0.0717778
0.0825481
0.0927872
0.102407
0.111334
0.119522
0.126939
0.133552
0.13935
0.144353
0.148541
0.15194
0.154572
0.156457
0.157619
0.158087
0.15789
0.157063
0.155634
0.153627
0.151089
0.148036
0.1445
0.140512
0.136101
0.131283
0.126095
0.120556
0.114695
0.108534
0.102099
0.0954029
0.0884702
0.081318
0.0739655
0.066438
0.0587244
0.0508531
0.0427958
0.0344932
0.0260291
0.0172414
0.00849635
0.00303406
1.40021
1.25438
1.21703
1.17293
1.12705
1.08697
1.04652
1.00621
0.965149
0.923046
0.879689
0.834889
0.788658
0.740937
0.691866
0.641528
0.590135
0.537944
0.485262
0.432483
0.380047
0.328433
0.2782
0.229884
0.184098
0.141359
0.102227
0.0671212
0.0363918
0.0102758
-0.0111093
-0.0277668
-0.0398351
-0.0475427
-0.0512271
-0.0512885
-0.0481861
-0.0423841
-0.0343631
-0.0245798
-0.0134666
-0.00141233
0.0112365
0.0241749
0.0371333
0.0498986
0.0622875
0.074154
0.0853831
0.0958895
0.105611
0.114501
0.122539
0.129698
0.13598
0.141396
0.145961
0.149693
0.152615
0.15475
0.156131
0.156789
0.156759
0.156079
0.154777
0.152888
0.150444
0.147472
0.144008
0.140081
0.135723
0.130954
0.125809
0.120313
0.114487
0.108364
0.101956
0.0952877
0.088379
0.0812524
0.0739242
0.0664164
0.0587306
0.0508887
0.0428574
0.0345927
0.026137
0.0172581
0.00848592
0.00304813
1.38552
1.24043
1.20385
1.1604
1.11523
1.0756
1.03546
0.99522
0.954031
0.911596
0.867703
0.822184
0.775006
0.726158
0.675759
0.623904
0.570854
0.516823
0.462204
0.407389
0.352855
0.299178
0.246898
0.196702
0.149183
0.104973
0.0646688
0.0287209
-0.0024159
-0.0285516
-0.0495027
-0.0653354
-0.0761979
-0.082383
-0.0842961
-0.0823909
-0.0771997
-0.0692407
-0.0590497
-0.0471243
-0.03393
-0.019892
-0.0053765
0.00930687
0.023876
0.0381127
0.0518429
0.0649219
0.0772408
0.0887222
0.0993088
0.10897
0.117686
0.125448
0.132263
0.138151
0.143128
0.147217
0.150451
0.152861
0.154488
0.155363
0.155522
0.154999
0.153838
0.152069
0.149732
0.146855
0.143479
0.139628
0.135331
0.130619
0.125519
0.120063
0.114274
0.108179
0.101806
0.0951642
0.0882794
0.0811744
0.0738677
0.066382
0.0587111
0.0508846
0.0428883
0.034684
0.0262873
0.0173858
0.00846854
0.00300699
1.37199
1.22705
1.19074
1.14768
1.10287
1.06356
1.02361
0.983413
0.942065
0.89926
0.854784
0.808434
0.760225
0.710114
0.658246
0.604724
0.549795
0.493753
0.43696
0.379887
0.32305
0.267044
0.212542
0.16021
0.110797
0.0649539
0.0233573
-0.0134519
-0.0450439
-0.0711289
-0.0915853
-0.10646
-0.115963
-0.120444
-0.120362
-0.11627
-0.108749
-0.0983975
-0.0858031
-0.071516
-0.0560459
-0.0398384
-0.0232834
-0.00671027
0.00960364
0.0254403
0.0406194
0.0550084
0.0685027
0.0810357
0.0925638
0.103053
0.112501
0.120909
0.128294
0.13468
0.140094
0.144568
0.148143
0.150853
0.152735
0.153834
0.154187
0.15384
0.152829
0.151193
0.148973
0.146197
0.142903
0.139125
0.134893
0.13024
0.125195
0.119789
0.114041
0.10798
0.101635
0.0950244
0.0881665
0.0810878
0.0738028
0.0663382
0.0586886
0.0508854
0.0428874
0.0346638
0.0262307
0.0173224
0.00849232
0.00304015
1.35959
1.21482
1.17875
1.13594
1.09135
1.05212
1.01215
0.971751
0.930038
0.886672
0.841413
0.794098
0.744678
0.693157
0.639639
0.584261
0.527299
0.469016
0.409862
0.350308
0.290928
0.232408
0.175426
0.120812
0.0693135
0.021716
-0.0212495
-0.0590053
-0.0910116
-0.117029
-0.136867
-0.150654
-0.15862
-0.161197
-0.158928
-0.152428
-0.142372
-0.129422
-0.114233
-0.0974082
-0.0794901
-0.0609601
-0.0422279
-0.0236315
-0.00545621
0.0120746
0.0287951
0.0445665
0.0592997
0.0729383
0.0854485
0.0968155
0.107034
0.116125
0.124112
0.13103
0.136908
0.141786
0.145716
0.148735
0.150892
0.152227
0.152791
0.152624
0.151772
0.150273
0.148172
0.145501
0.1423
0.138605
0.134444
0.129852
0.12486
0.119499
0.113792
0.10777
0.101457
0.0948734
0.0880453
0.0809896
0.0737244
0.0662824
0.0586484
0.0508554
0.0428761
0.0346773
0.0262344
0.0173197
0.00851183
0.00307045
1.34809
1.20334
1.16736
1.12465
1.08006
1.04081
1.00068
0.959982
0.917797
0.873755
0.82764
0.779225
0.728501
0.675424
0.620135
0.562766
0.503584
0.442926
0.381215
0.319013
0.256919
0.195674
0.136086
0.0789857
0.0252891
-0.024182
-0.0686008
-0.107302
-0.139745
-0.165602
-0.184756
-0.197322
-0.203607
-0.204119
-0.199469
-0.190381
-0.177599
-0.161874
-0.14392
-0.124397
-0.103894
-0.0829161
-0.0618958
-0.0411862
-0.0210706
-0.0017687
0.0165465
0.0337574
0.0497828
0.0645739
0.0781084
0.0903803
0.101401
0.111195
0.119802
0.127259
0.133612
0.138912
0.143208
0.146549
0.148987
0.150569
0.151347
0.151374
0.150683
0.149324
0.147345
0.144782
0.141678
0.138064
0.133976
0.129446
0.124508
0.119196
0.113533
0.10755
0.101268
0.0947154
0.087915
0.0808853
0.0736446
0.0662151
0.0585977
0.0508251
0.0428572
0.034677
0.0262924
0.0173555
0.00846602
0.00302495
1.33741
1.19267
1.15668
1.11399
1.06935
1.02992
0.989521
0.948402
0.905627
0.860816
0.813698
0.764099
0.711942
0.65722
0.600035
0.540547
0.479035
0.415829
0.351437
0.286405
0.221445
0.157345
0.0949658
0.0352978
-0.020727
-0.0721408
-0.118048
-0.15772
-0.190531
-0.216194
-0.234539
-0.24577
-0.250228
-0.24851
-0.24133
-0.229493
-0.213845
-0.19521
-0.174377
-0.152054
-0.128869
-0.105363
-0.0819833
-0.0590972
-0.0369872
-0.015874
0.00407954
0.0227608
0.0401007
0.0560628
0.0706363
0.0838287
0.0956617
0.106176
0.115415
0.123431
0.130273
0.135997
0.140665
0.144333
0.147058
0.148888
0.149882
0.150092
0.149569
0.148356
0.146504
0.144053
0.141042
0.137513
0.133499
0.129037
0.124156
0.11889
0.113271
0.107327
0.101081
0.0945561
0.0877774
0.0807719
0.0735529
0.0661462
0.0585415
0.0507763
0.042816
0.0346162
0.0261673
0.0172784
0.00852478
0.00310673
1.32748
1.18271
1.14668
1.10392
1.05908
1.01942
0.978658
0.937032
0.893601
0.84793
0.799771
0.748888
0.695239
0.63877
0.579618
0.517921
0.453969
0.388148
0.320944
0.253013
0.185056
0.117993
0.0527594
-0.00959987
-0.0679966
-0.121404
-0.168817
-0.209427
-0.242597
-0.267971
-0.285439
-0.295216
-0.297734
-0.293677
-0.283848
-0.26916
-0.250543
-0.228913
-0.205117
-0.179925
-0.15401
-0.127934
-0.102166
-0.0770754
-0.0529553
-0.0300187
-0.00841813
0.0117471
0.0304111
0.0475513
0.0631688
0.0772833
0.0899344
0.101168
0.111039
0.119605
0.126932
0.133087
0.138127
0.142118
0.145124
0.147202
0.148415
0.148819
0.148461
0.147393
0.145665
0.143323
0.14041
0.136964
0.133024
0.128622
0.123798
0.118582
0.113005
0.107099
0.100884
0.0943934
0.0876434
0.0806582
0.0734622
0.0660695
0.0584773
0.0507284
0.0427681
0.0345988
0.0261518
0.0172465
0.00850787
0.00309588
1.31829
1.17347
1.13734
1.09447
1.04943
1.00945
0.968267
0.926065
0.8819
0.835319
0.786043
0.733844
0.678636
0.62039
0.5592
0.495239
0.428801
0.360277
0.290229
0.219293
0.148315
0.0782246
0.0100707
-0.0549855
-0.115793
-0.171176
-0.220071
-0.26159
-0.295033
-0.320059
-0.33655
-0.344793
-0.345284
-0.338802
-0.326254
-0.308655
-0.28703
-0.262377
-0.235608
-0.207542
-0.178894
-0.150256
-0.122103
-0.094822
-0.0687036
-0.0439571
-0.0207267
0.000896705
0.0208645
0.0391691
0.0558164
0.0708416
0.0842952
0.0962377
0.106729
0.115843
0.123648
0.130217
0.135624
0.139937
0.143229
0.145554
0.146979
0.147564
0.147367
0.146444
0.14484
0.142605
0.139782
0.136419
0.132553
0.128217
0.123448
0.118279
0.112747
0.106878
0.100697
0.0942311
0.0875036
0.0805445
0.0733653
0.0659942
0.0584168
0.0506826
0.0427383
0.0345734
0.0261496
0.0172426
0.00850205
0.00309797
1.30981
1.16495
1.1287
1.08568
1.04035
1.00002
0.95836
0.915571
0.870649
0.823128
0.772717
0.719174
0.662397
0.602344
0.539126
0.472887
0.403949
0.332734
0.259801
0.185905
0.111864
0.0387673
-0.0322922
-0.100042
-0.163217
-0.220545
-0.270866
-0.313229
-0.346893
-0.371489
-0.38695
-0.393597
-0.392016
-0.383086
-0.36781
-0.347305
-0.322688
-0.295037
-0.265325
-0.23443
-0.203098
-0.171946
-0.14147
-0.112053
-0.0839894
-0.0574806
-0.0326643
-0.0096166
0.011621
0.0310519
0.0487027
0.0646098
0.0788428
0.0914675
0.102562
0.112208
0.120475
0.12745
0.133212
0.137832
0.141387
0.143946
0.14558
0.146349
0.14631
0.145523
0.144041
0.141912
0.139182
0.135898
0.132097
0.127819
0.123106
0.117987
0.112492
0.106656
0.100506
0.0940693
0.0873683
0.0804289
0.0732709
0.0659138
0.0583515
0.0506218
0.0426901
0.0345116
0.0260972
0.0172252
0.00849977
0.00311577
1.30208
1.15717
1.12078
1.07756
1.03198
0.991259
0.949134
0.905677
0.860014
0.811554
0.759999
0.705117
0.646788
0.584956
0.519716
0.45124
0.379838
0.30596
0.230224
0.153374
0.0763722
0.00030537
-0.0735857
-0.143946
-0.209406
-0.268578
-0.320248
-0.363355
-0.39716
-0.421266
-0.435645
-0.440674
-0.437026
-0.425667
-0.407712
-0.384368
-0.356843
-0.326288
-0.293738
-0.260117
-0.226206
-0.192644
-0.159935
-0.128472
-0.0985443
-0.0703511
-0.044021
-0.0196184
0.00282739
0.023332
0.041932
0.0586812
0.0736496
0.0869276
0.0985966
0.108745
0.117453
0.124809
0.130906
0.135825
0.13964
0.142428
0.144261
0.145198
0.145307
0.144649
0.143279
0.14125
0.138606
0.135396
0.131664
0.12745
0.122786
0.117709
0.112254
0.10645
0.10033
0.0939207
0.0872419
0.0803264
0.0731809
0.0658429
0.0582928
0.0505842
0.0426679
0.0345259
0.0261384
0.0172205
0.00845631
0.00307345
1.29511
1.15013
1.1136
1.07022
1.02431
0.983231
0.940588
0.896551
0.850108
0.800708
0.748062
0.691896
0.632059
0.568514
0.501344
0.430703
0.356941
0.280518
0.202058
0.122409
0.042528
-0.0363419
-0.112954
-0.185783
-0.253397
-0.314303
-0.367189
-0.410962
-0.444822
-0.468397
-0.481679
-0.485113
-0.479452
-0.465758
-0.445239
-0.419188
-0.388903
-0.355597
-0.320364
-0.284171
-0.24783
-0.211998
-0.177195
-0.143813
-0.112142
-0.0823732
-0.0546239
-0.0289499
-0.00537202
0.0161326
0.0356194
0.0531531
0.0688186
0.0827035
0.0949046
0.105518
0.114633
0.122352
0.128768
0.133957
0.13801
0.141007
0.14302
0.144118
0.144366
0.143832
0.142569
0.140632
0.138071
0.134935
0.131266
0.127099
0.122482
0.117446
0.112027
0.106255
0.100161
0.0937739
0.0871165
0.0802179
0.0730885
0.0657645
0.0582321
0.0505354
0.0426267
0.0345123
0.0261512
0.0172485
0.00842973
0.00303318
1.28893
1.14389
1.1072
1.06364
1.01746
0.975998
0.932896
0.88821
0.841085
0.790849
0.737145
0.679745
0.6185
0.553333
0.484334
0.411672
0.335679
0.256859
0.17587
0.093572
0.0110374
-0.0704885
-0.149595
-0.224715
-0.294305
-0.35676
-0.410739
-0.45504
-0.488901
-0.511903
-0.524112
-0.526013
-0.518451
-0.502562
-0.479649
-0.451086
-0.418243
-0.382403
-0.344704
-0.306152
-0.267584
-0.229677
-0.192957
-0.157822
-0.124557
-0.0933453
-0.064303
-0.0374758
-0.0128669
0.00955957
0.0298555
0.0481062
0.0643974
0.0788372
0.0915302
0.102575
0.112068
0.12011
0.12681
0.132254
0.136526
0.139714
0.141897
0.143139
0.143515
0.14309
0.141924
0.14007
0.137582
0.134509
0.130895
0.12678
0.122206
0.11721
0.111824
0.106081
0.100011
0.0936478
0.0870134
0.0801324
0.0730155
0.0657069
0.0581811
0.0504961
0.042605
0.0344901
0.0261207
0.0171925
0.00842397
0.00306682
1.28355
1.13846
1.10167
1.0579
1.01145
0.969654
0.926096
0.880896
0.833092
0.78201
0.727373
0.668865
0.606325
0.539689
0.469037
0.394523
0.316523
0.235519
0.152216
0.0675367
-0.0174402
-0.10132
-0.18271
-0.259864
-0.331212
-0.395044
-0.449937
-0.494686
-0.52847
-0.550912
-0.562101
-0.562585
-0.553281
-0.535403
-0.510332
-0.479516
-0.444393
-0.406285
-0.366381
-0.32572
-0.285163
-0.245402
-0.206973
-0.170274
-0.135586
-0.103093
-0.0728934
-0.0450347
-0.0195087
0.00372823
0.02475
0.043641
0.0604966
0.0754239
0.0885417
0.0999613
0.109785
0.118121
0.125074
0.130738
0.135205
0.138563
0.140891
0.142265
0.142754
0.142429
0.141346
0.139568
0.137149
0.134133
0.130569
0.126495
0.12196
0.116993
0.111637
0.105922
0.0998739
0.0935271
0.0869067
0.0800397
0.0729383
0.0656383
0.0581247
0.0504481
0.0425596
0.0344579
0.0260786
0.0171622
0.00842253
0.0030746
1.27904
1.13387
1.09692
1.05307
1.00635
0.96426
0.920297
0.874596
0.826219
0.774463
0.718972
0.659469
0.595798
0.527862
0.455749
0.379623
0.299837
0.216921
0.131604
0.0448271
-0.0422441
-0.12822
-0.211562
-0.290479
-0.363339
-0.428309
-0.483968
-0.52903
-0.562721
-0.584621
-0.594886
-0.594111
-0.583276
-0.563662
-0.536716
-0.503947
-0.466844
-0.426784
-0.384984
-0.342513
-0.30025
-0.2589
-0.219004
-0.180964
-0.145058
-0.111459
-0.0802739
-0.0515319
-0.0252203
-0.00128308
0.0203508
0.0397832
0.0571196
0.0724763
0.0859665
0.0977128
0.107826
0.116413
0.123586
0.12944
0.134076
0.137577
0.140035
0.141519
0.142106
0.141866
0.140858
0.139141
0.136777
0.133812
0.13029
0.126257
0.121755
0.116818
0.111482
0.105786
0.0997591
0.0934335
0.0868294
0.0799751
0.0728842
0.0655968
0.0580891
0.0504249
0.0425456
0.034447
0.0260885
0.0171682
0.00841559
0.00306429
1.27537
1.13018
1.09314
1.04913
1.00223
0.959864
0.91558
0.869455
0.820597
0.768227
0.712036
0.651721
0.587098
0.518089
0.444763
0.367278
0.286028
0.201516
0.114513
0.026
-0.062848
-0.150516
-0.235504
-0.315856
-0.38995
-0.455862
-0.512063
-0.557366
-0.590938
-0.612369
-0.621853
-0.620015
-0.607902
-0.586849
-0.558358
-0.523983
-0.485264
-0.4436
-0.400246
-0.356286
-0.31262
-0.269964
-0.228863
-0.18972
-0.152813
-0.118318
-0.086319
-0.0568487
-0.0298901
-0.0053826
0.0167612
0.0366431
0.0543807
0.0700808
0.0838709
0.0958788
0.106224
0.115019
0.122368
0.128377
0.133149
0.13677
0.13933
0.140909
0.141573
0.141398
0.14045
0.138788
0.136468
0.133542
0.130056
0.126052
0.121579
0.116665
0.111353
0.105677
0.0996627
0.0933478
0.086754
0.0799101
0.0728278
0.0655432
0.0580468
0.0503823
0.0425141
0.0344091
0.0260477
0.0171554
0.00840976
0.00307176
1.2726
1.12739
1.09026
1.04615
0.999083
0.95654
0.911979
0.865547
0.816292
0.763471
0.706732
0.645774
0.580421
0.510567
0.436293
0.357769
0.275362
0.189617
0.101319
0.0114593
-0.0787347
-0.167728
-0.253963
-0.335402
-0.410496
-0.477031
-0.533651
-0.579089
-0.612583
-0.633627
-0.642486
-0.639828
-0.626727
-0.604567
-0.574886
-0.539282
-0.49932
-0.456435
-0.411894
-0.3668
-0.322064
-0.278414
-0.236392
-0.19641
-0.15874
-0.123552
-0.0909365
-0.0609127
-0.0334635
-0.00851786
0.0140121
0.0342344
0.0522711
0.0682406
0.0822648
0.0944799
0.105
0.113946
0.121436
0.127565
0.132441
0.136152
0.138794
0.140437
0.141163
0.141045
0.140144
0.138522
0.136238
0.133343
0.129882
0.125905
0.121446
0.11655
0.111255
0.10559
0.0995908
0.0932842
0.0867015
0.0798687
0.0727937
0.0655208
0.0580281
0.0503729
0.0424983
0.0343986
0.0260174
0.0171149
0.00842151
0.00308779
1.27075
1.12551
1.08833
1.04415
0.996972
0.954277
0.909557
0.862882
0.813397
0.760255
0.703127
0.641745
0.575886
0.505474
0.430561
0.351314
0.268135
0.181553
0.0923584
0.00158628
-0.0895536
-0.179419
-0.266543
-0.348705
-0.424562
-0.49149
-0.5482
-0.593725
-0.627208
-0.647991
-0.656432
-0.653206
-0.639437
-0.616525
-0.586043
-0.549609
-0.508813
-0.465102
-0.41976
-0.3739
-0.328442
-0.284116
-0.241472
-0.200923
-0.162737
-0.127085
-0.0940514
-0.0636567
-0.0358717
-0.0106318
0.0121588
0.0326121
0.0508509
0.0669949
0.0811769
0.0935268
0.104172
0.113227
0.120808
0.12702
0.131965
0.13574
0.138435
0.140131
0.140896
0.140809
0.139936
0.138341
0.136077
0.1332
0.129761
0.125795
0.121355
0.116473
0.111188
0.105533
0.0995387
0.0932435
0.0866656
0.0798343
0.0727638
0.0654903
0.0580058
0.0503512
0.0424913
0.0344046
0.026068
0.0171757
0.00839619
0.00305573
1.26982
1.12458
1.08736
1.04315
0.99592
0.953147
0.90836
0.861471
0.811957
0.75871
0.701319
0.639714
0.573605
0.502892
0.427645
0.348043
0.26446
0.177454
0.0878156
-0.00341921
-0.0950126
-0.185344
-0.272885
-0.355432
-0.431702
-0.498853
-0.555432
-0.60111
-0.634583
-0.655226
-0.663454
-0.659946
-0.645833
-0.622543
-0.591655
-0.554801
-0.513581
-0.469455
-0.42371
-0.377469
-0.33165
-0.286987
-0.244034
-0.203199
-0.164752
-0.128863
-0.0956193
-0.0650355
-0.0370856
-0.0116954
0.0112316
0.0318032
0.0501409
0.0663736
0.0806336
0.0930549
0.103758
0.112863
0.120493
0.126745
0.131726
0.135531
0.138249
0.139963
0.140753
0.140686
0.139831
0.138249
0.135999
0.133136
0.129701
0.125745
0.121308
0.116433
0.11115
0.105501
0.0995187
0.0932228
0.086648
0.0798188
0.0727516
0.0654879
0.058001
0.0503495
0.0424847
0.0343886
0.0260281
0.0171186
0.00839651
0.00307758
1.26983
1.12458
1.08736
1.04315
0.995923
0.953144
0.908363
0.861464
0.811967
0.758718
0.70131
0.63972
0.573608
0.502903
0.427661
0.348055
0.264481
0.177469
0.0878304
-0.00340212
-0.0950033
-0.185327
-0.272875
-0.35542
-0.431691
-0.498838
-0.555406
-0.601104
-0.634564
-0.655208
-0.663433
-0.659923
-0.645814
-0.622524
-0.591638
-0.554785
-0.513566
-0.469439
-0.423694
-0.377453
-0.331634
-0.286972
-0.244019
-0.203186
-0.16474
-0.128855
-0.0956156
-0.0650332
-0.0370794
-0.0116901
0.0112314
0.0317971
0.0501355
0.0663699
0.0806324
0.0930528
0.103757
0.112864
0.120494
0.126744
0.131725
0.135533
0.138254
0.13997
0.140759
0.140693
0.139833
0.138251
0.135999
0.13313
0.129699
0.125743
0.12131
0.116435
0.111153
0.105504
0.0995148
0.0932211
0.0866456
0.079816
0.0727492
0.065477
0.0579946
0.0503448
0.0424793
0.0343892
0.0260303
0.0171331
0.0084027
0.00307024
1.27076
1.12552
1.08834
1.04416
0.996993
0.954293
0.909595
0.862851
0.813423
0.760313
0.703144
0.641759
0.575905
0.505488
0.430566
0.351332
0.268146
0.181571
0.0923758
0.00161515
-0.0895108
-0.179379
-0.266491
-0.348644
-0.424516
-0.491393
-0.54811
-0.593713
-0.627154
-0.647931
-0.656369
-0.653144
-0.639376
-0.61647
-0.585992
-0.549561
-0.508766
-0.465057
-0.419717
-0.373863
-0.328412
-0.284089
-0.241449
-0.2009
-0.162716
-0.127066
-0.0940336
-0.0636392
-0.0358568
-0.0106166
0.0121744
0.032629
0.0508714
0.0670145
0.0811924
0.0935429
0.104184
0.113233
0.120811
0.12702
0.131966
0.13574
0.138434
0.140124
0.140892
0.140806
0.139934
0.138339
0.136078
0.133203
0.129758
0.125794
0.12135
0.116469
0.111182
0.105528
0.0995411
0.0932432
0.0866647
0.079832
0.0727603
0.0654906
0.0580011
0.0503542
0.0424829
0.0343911
0.0260222
0.0171105
0.00839803
0.00307725
1.27262
1.1274
1.09028
1.04616
0.999104
0.956549
0.912004
0.865566
0.816316
0.763495
0.706739
0.6458
0.580445
0.510601
0.436332
0.357805
0.275413
0.189667
0.10137
0.0115197
-0.0786792
-0.167651
-0.253897
-0.33532
-0.410421
-0.476899
-0.533544
-0.579037
-0.61249
-0.633534
-0.642386
-0.639728
-0.626628
-0.60447
-0.574795
-0.539196
-0.499242
-0.456362
-0.411826
-0.366739
-0.322007
-0.278361
-0.236344
-0.196366
-0.158698
-0.123516
-0.0909049
-0.0608847
-0.0334375
-0.00849557
0.0140313
0.0342501
0.0522855
0.06825
0.082271
0.0944829
0.105007
0.113954
0.121441
0.12757
0.132444
0.136161
0.1388
0.140445
0.141175
0.141055
0.140149
0.138526
0.136238
0.133337
0.129879
0.1259
0.121443
0.116548
0.111252
0.105586
0.0995862
0.0932813
0.0866952
0.0798562
0.0727841
0.0655064
0.0580187
0.0503629
0.0424917
0.034384
0.0260273
0.0171486
0.00842736
0.00309581
1.27539
1.13021
1.09316
1.04915
1.00225
0.95989
0.915619
0.86946
0.820632
0.768283
0.712074
0.651756
0.587136
0.518137
0.444804
0.367335
0.286073
0.201574
0.114577
0.0260683
-0.0627553
-0.150431
-0.235391
-0.315752
-0.389828
-0.455727
-0.511939
-0.55724
-0.590799
-0.612227
-0.621709
-0.619876
-0.607768
-0.586721
-0.558234
-0.523868
-0.485155
-0.4435
-0.400159
-0.356208
-0.312549
-0.269897
-0.2288
-0.18966
-0.152757
-0.118268
-0.0862751
-0.0568086
-0.0298559
-0.00535241
0.0167863
0.0366657
0.0544025
0.0701022
0.083891
0.0958981
0.106241
0.115031
0.12238
0.128388
0.133155
0.136774
0.139336
0.14091
0.141577
0.141401
0.140454
0.138792
0.136469
0.133541
0.130054
0.126052
0.121572
0.116657
0.111345
0.10567
0.0996608
0.0933449
0.0867529
0.0799077
0.0728209
0.0655393
0.0580407
0.0503858
0.042501
0.0344073
0.0260407
0.0171252
0.00841006
0.00307554
1.27905
1.1339
1.09698
1.05307
1.00639
0.964277
0.920332
0.874624
0.826257
0.774507
0.719004
0.659516
0.595847
0.52792
0.455813
0.379684
0.299921
0.217003
0.131691
0.0449318
-0.0421435
-0.128091
-0.21144
-0.290343
-0.36319
-0.428155
-0.483797
-0.528874
-0.562542
-0.584451
-0.594712
-0.59394
-0.583105
-0.563498
-0.53656
-0.503801
-0.466711
-0.426662
-0.384875
-0.342414
-0.300153
-0.258811
-0.21892
-0.180884
-0.144983
-0.111395
-0.080217
-0.0514797
-0.0251742
-0.00124286
0.0203903
0.0398169
0.0571501
0.0725009
0.0859865
0.0977287
0.107838
0.116423
0.123595
0.129453
0.134088
0.13759
0.140043
0.141526
0.142117
0.141877
0.140864
0.139148
0.13678
0.133807
0.130285
0.126251
0.121747
0.116812
0.111478
0.105781
0.0997553
0.0934222
0.0868151
0.0799619
0.0728708
0.0655787
0.0580745
0.0504062
0.0425279
0.0344324
0.0260656
0.0171548
0.00841507
0.00307677
1.28357
1.1385
1.10169
1.05793
1.01148
0.969686
0.926139
0.880915
0.833126
0.782082
0.727432
0.668921
0.606386
0.539764
0.46911
0.394612
0.316608
0.235609
0.152326
0.0676411
-0.0172976
-0.101194
-0.182546
-0.259713
-0.331035
-0.394865
-0.449747
-0.494486
-0.528267
-0.550705
-0.561899
-0.562386
-0.553087
-0.535215
-0.510149
-0.479344
-0.444229
-0.406132
-0.366244
-0.325592
-0.285045
-0.245293
-0.206872
-0.17018
-0.1355
-0.103015
-0.0728255
-0.0449745
-0.0194574
0.00377233
0.0247811
0.0436633
0.0605176
0.0754472
0.0885639
0.0999808
0.109808
0.118145
0.125096
0.130756
0.135221
0.138573
0.140902
0.142274
0.142765
0.142435
0.141354
0.139577
0.13715
0.134133
0.130569
0.126497
0.121956
0.11699
0.11163
0.105917
0.0998726
0.0935243
0.0869009
0.0800328
0.0729257
0.0656272
0.0581151
0.050443
0.0425428
0.0344395
0.0260483
0.017131
0.00842691
0.00307269
1.28896
1.14392
1.10725
1.06367
1.01749
0.97603
0.932931
0.888282
0.841146
0.790872
0.737185
0.679807
0.618567
0.553411
0.484429
0.411768
0.335793
0.256975
0.175991
0.0937197
0.0111837
-0.0703154
-0.149421
-0.224528
-0.2941
-0.356558
-0.410512
-0.454824
-0.488667
-0.511675
-0.523883
-0.525788
-0.518227
-0.502346
-0.479441
-0.45089
-0.418063
-0.382238
-0.34455
-0.306012
-0.267452
-0.229556
-0.192847
-0.157722
-0.124463
-0.0932569
-0.0642204
-0.037399
-0.0127989
0.00961782
0.029909
0.0481521
0.0644427
0.0788789
0.0915587
0.102594
0.112082
0.120127
0.126827
0.132268
0.13654
0.139728
0.141907
0.143149
0.143526
0.143102
0.141933
0.140081
0.13759
0.134512
0.130895
0.126778
0.122199
0.1172
0.111817
0.106074
0.100004
0.0936358
0.0869967
0.0801131
0.0729955
0.0656833
0.0581576
0.0504729
0.0425642
0.0344469
0.0260354
0.0171301
0.00845114
0.00309312
1.29516
1.15017
1.11361
1.07026
1.02435
0.983258
0.940657
0.89655
0.850159
0.800806
0.748132
0.691972
0.632147
0.56861
0.501442
0.430812
0.357063
0.280633
0.202206
0.122542
0.0427088
-0.036182
-0.112749
-0.185585
-0.253177
-0.314076
-0.366948
-0.410709
-0.444571
-0.468138
-0.481428
-0.484866
-0.479217
-0.465525
-0.445011
-0.418972
-0.388697
-0.355404
-0.320185
-0.284006
-0.247679
-0.211859
-0.17707
-0.1437
-0.112038
-0.0822738
-0.0545329
-0.0288741
-0.00530247
0.0161971
0.035673
0.0531982
0.0688549
0.0827344
0.0949295
0.10554
0.114661
0.12238
0.128792
0.133979
0.13803
0.141022
0.143034
0.144129
0.14438
0.143844
0.142581
0.140642
0.138077
0.134938
0.131267
0.1271
0.122478
0.117441
0.112019
0.10625
0.100156
0.093767
0.0871059
0.0802064
0.0730727
0.0657467
0.0582135
0.0505172
0.0426033
0.0344555
0.0260832
0.0172048
0.00846352
0.00309074
1.30212
1.15721
1.12083
1.07761
1.03201
0.991313
0.949169
0.905772
0.860073
0.811616
0.760057
0.705198
0.646874
0.58505
0.519829
0.451357
0.379973
0.306112
0.230378
0.153552
0.0765544
0.000504666
-0.0733681
-0.143724
-0.209162
-0.268337
-0.319983
-0.363093
-0.396889
-0.420992
-0.435374
-0.440405
-0.436765
-0.425417
-0.407474
-0.384141
-0.356628
-0.326088
-0.29355
-0.259943
-0.226041
-0.192492
-0.159799
-0.128351
-0.0984318
-0.0702462
-0.0439233
-0.0195294
0.00290872
0.0234054
0.0419948
0.0587389
0.0737033
0.0869711
0.0986304
0.108773
0.117477
0.124835
0.130931
0.135846
0.139658
0.142442
0.144276
0.145214
0.145321
0.144666
0.143295
0.141262
0.138617
0.135405
0.131666
0.127447
0.12278
0.117702
0.112245
0.10644
0.100318
0.0939038
0.0872232
0.080304
0.0731552
0.0658155
0.0582655
0.0505531
0.0426317
0.0344787
0.0260789
0.0171619
0.00845713
0.00310584
1.30987
1.165
1.12871
1.08574
1.0404
1.00007
0.958418
0.915618
0.870717
0.823206
0.772798
0.719263
0.662494
0.602456
0.539246
0.473016
0.4041
0.332872
0.259984
0.186064
0.112075
0.0389621
-0.0320639
-0.0998085
-0.162966
-0.220283
-0.270594
-0.312945
-0.346608
-0.371199
-0.386665
-0.393311
-0.391746
-0.382818
-0.367552
-0.347059
-0.322455
-0.294819
-0.265124
-0.234244
-0.202927
-0.171789
-0.14133
-0.111927
-0.0838702
-0.057367
-0.0325556
-0.00952204
0.0117089
0.0311311
0.0487673
0.064667
0.0788904
0.0915104
0.1026
0.112238
0.120508
0.127483
0.133239