/*--------------------------------*- C++ -*----------------------------------*\
  =========                 |
  \\      /  F ield         | OpenFOAM: The Open Source CFD Toolbox
   \\    /   O peration     | Website:  https://openfoam.org
    \\  /    A nd           | Version:  11
     \\/     M anipulation  |
\*---------------------------------------------------------------------------*/
FoamFile
{
    format      ascii;
    class       volScalarField;
    location    "0.088";
    object      k;
}
// * * * * * * * * * * * * * * * * * * * * * * * * * * * * * * * * * * * * * //

dimensions      [0 2 -2 0 0 0 0];

internalField   nonuniform List<scalar> 
287084
(
0.381579
0.39391
0.406956
0.41978
0.43032
0.437356
0.440838
0.441717
0.441744
0.441739
0.441721
0.441613
0.441643
0.441822
0.441776
0.441841
0.441914
0.441881
0.441895
0.441909
0.441899
0.441743
0.44172
0.442023
0.442106
0.442094
0.442089
0.441972
0.441923
0.441982
0.442108
0.442071
0.441924
0.44197
0.441996
0.441943
0.441945
0.44193
0.441914
0.441862
0.441754
0.441705
0.441601
0.441551
0.441471
0.441424
0.441386
0.441324
0.441282
0.441215
0.441
0.440974
0.441157
0.441173
0.441197
0.441191
0.441206
0.441172
0.441105
0.440989
0.44105
0.441149
0.441115
0.440995
0.441015
0.441346
0.441389
0.441342
0.441183
0.441191
0.441311
0.441348
0.441317
0.441126
0.441158
0.441315
0.441222
0.441313
0.441423
0.441395
0.441363
0.441265
0.441208
0.441342
0.441496
0.441452
0.441477
0.441488
0.441443
0.441182
0.381591
0.393909
0.406789
0.419524
0.430101
0.43732
0.441014
0.441929
0.441895
0.44202
0.442302
0.442171
0.442255
0.442379
0.442392
0.442355
0.442296
0.442187
0.442127
0.442113
0.442093
0.442044
0.442164
0.442514
0.442439
0.442538
0.4426
0.442544
0.442529
0.442507
0.442495
0.44234
0.442257
0.442207
0.442057
0.442119
0.442166
0.442142
0.44213
0.441926
0.441961
0.442018
0.442003
0.442
0.441936
0.441907
0.441691
0.441661
0.441831
0.441908
0.441884
0.441843
0.441844
0.441815
0.441779
0.44172
0.441639
0.441583
0.44155
0.441516
0.44148
0.441373
0.441497
0.441658
0.441662
0.441663
0.441497
0.441582
0.441734
0.441724
0.44173
0.441622
0.441692
0.441749
0.4418
0.441838
0.441769
0.44177
0.441763
0.441602
0.441635
0.44172
0.441674
0.441671
0.441592
0.44158
0.441568
0.441587
0.441589
0.441469
0.381594
0.393908
0.406747
0.419548
0.430053
0.437156
0.441025
0.442222
0.44232
0.442311
0.442277
0.442159
0.44221
0.442288
0.442253
0.442247
0.442109
0.442213
0.442472
0.442478
0.442448
0.442415
0.442307
0.442406
0.442587
0.442581
0.442595
0.44255
0.442519
0.442438
0.442438
0.442433
0.442445
0.442428
0.442436
0.442385
0.442351
0.442341
0.442283
0.442228
0.442136
0.441881
0.441816
0.441879
0.441887
0.44189
0.441866
0.441716
0.44176
0.441884
0.441812
0.441794
0.441798
0.4418
0.441792
0.441798
0.441752
0.441655
0.441618
0.441563
0.441385
0.441437
0.44158
0.44157
0.441568
0.441423
0.441543
0.441794
0.441696
0.441768
0.441801
0.441765
0.44176
0.44177
0.441775
0.441731
0.441711
0.441512
0.441528
0.441581
0.441558
0.441474
0.441449
0.441585
0.441508
0.441607
0.441761
0.441739
0.441705
0.441484
0.381581
0.393885
0.406791
0.41952
0.429966
0.437088
0.440999
0.442312
0.442411
0.442315
0.442287
0.442427
0.442495
0.442471
0.442462
0.442366
0.44233
0.442217
0.442293
0.442454
0.442345
0.44234
0.442337
0.442214
0.442257
0.442394
0.442372
0.442338
0.442227
0.442148
0.4423
0.442451
0.442328
0.442405
0.442444
0.442435
0.442432
0.442403
0.442397
0.442326
0.44231
0.442266
0.442248
0.442202
0.442111
0.441878
0.441774
0.44177
0.441795
0.441771
0.441597
0.441634
0.441703
0.441639
0.441628
0.441656
0.441674
0.44163
0.441489
0.441505
0.441679
0.44168
0.44169
0.441665
0.441651
0.441576
0.441568
0.441567
0.441487
0.441584
0.441779
0.441708
0.441738
0.441752
0.441717
0.441597
0.441573
0.441698
0.44168
0.441779
0.441881
0.441845
0.441715
0.44169
0.441755
0.441777
0.44178
0.441762
0.441745
0.441508
0.381576
0.393879
0.406822
0.419434
0.429972
0.437206
0.440776
0.442228
0.442396
0.442398
0.442395
0.442209
0.442277
0.44236
0.442266
0.442274
0.442261
0.442116
0.442143
0.442276
0.442305
0.442271
0.442094
0.442191
0.442396
0.442316
0.442313
0.442312
0.442241
0.442306
0.442404
0.442262
0.442321
0.442366
0.442354
0.442348
0.44225
0.442088
0.442133
0.442214
0.442125
0.442183
0.442194
0.44213
0.442127
0.442122
0.442104
0.442105
0.442108
0.442068
0.442005
0.441936
0.441894
0.44181
0.441756
0.44172
0.44164
0.441412
0.44134
0.441482
0.441557
0.441525
0.441467
0.441433
0.441391
0.441385
0.441265
0.441309
0.441521
0.441556
0.441523
0.441372
0.44146
0.441761
0.441678
0.441784
0.441885
0.441728
0.441781
0.44186
0.44175
0.44182
0.441848
0.441811
0.44176
0.441602
0.441658
0.441716
0.44167
0.441513
0.38158
0.393886
0.406762
0.419461
0.430088
0.43712
0.44063
0.441782
0.442309
0.442305
0.442193
0.44225
0.442288
0.442269
0.442261
0.442099
0.442053
0.442207
0.442297
0.442354
0.442332
0.44229
0.442224
0.442126
0.442217
0.442265
0.442137
0.442139
0.442388
0.442454
0.442344
0.442414
0.442445
0.442417
0.442412
0.442341
0.442283
0.442041
0.441969
0.442003
0.441904
0.441964
0.442027
0.441997
0.441993
0.441963
0.441933
0.441762
0.441656
0.441686
0.441762
0.44174
0.441718
0.441612
0.441629
0.441752
0.441769
0.441733
0.441676
0.441683
0.441661
0.441578
0.441606
0.441631
0.44159
0.441464
0.441471
0.441662
0.441609
0.441718
0.441809
0.441812
0.441813
0.441738
0.441722
0.441547
0.441563
0.441717
0.441635
0.441728
0.441789
0.441766
0.441755
0.441643
0.441643
0.4416
0.441697
0.441775
0.44173
0.441574
0.381571
0.393871
0.40678
0.419432
0.430145
0.436997
0.4407
0.442058
0.442181
0.44218
0.442179
0.442111
0.442018
0.44215
0.442294
0.442213
0.442386
0.442715
0.442728
0.442715
0.442764
0.442827
0.442803
0.442793
0.442693
0.442661
0.442587
0.442625
0.442643
0.442589
0.442588
0.44259
0.442563
0.442402
0.442318
0.442337
0.442339
0.442287
0.442135
0.442068
0.442114
0.442136
0.442098
0.441993
0.441967
0.441967
0.441949
0.441932
0.441903
0.441868
0.441825
0.441675
0.441592
0.441621
0.441682
0.441658
0.441659
0.441618
0.441435
0.441502
0.441651
0.44163
0.441625
0.441599
0.441595
0.441423
0.441454
0.441583
0.441598
0.4416
0.441447
0.441504
0.441609
0.441588
0.44152
0.441538
0.441669
0.441613
0.441621
0.441623
0.441606
0.441539
0.441648
0.44175
0.441749
0.441748
0.441571
0.441625
0.441704
0.441523
0.381594
0.393827
0.40683
0.419535
0.429848
0.436958
0.440932
0.442612
0.442899
0.442874
0.442743
0.442763
0.442863
0.442804
0.442809
0.442747
0.442828
0.44288
0.442839
0.442762
0.442671
0.442679
0.442626
0.442723
0.44284
0.442749
0.442819
0.442847
0.442809
0.442816
0.442764
0.442751
0.44275
0.442771
0.442745
0.442708
0.442662
0.442559
0.442264
0.44219
0.442211
0.442204
0.442198
0.442177
0.442167
0.442062
0.442028
0.441993
0.441929
0.441929
0.441894
0.44185
0.441723
0.441787
0.441888
0.441851
0.441719
0.441702
0.441792
0.441724
0.441809
0.441902
0.441849
0.441878
0.441932
0.441901
0.441841
0.441734
0.44167
0.441527
0.441485
0.441707
0.441814
0.441807
0.441801
0.441623
0.441626
0.44184
0.441904
0.441883
0.441901
0.441861
0.441693
0.441637
0.441722
0.441803
0.441778
0.441799
0.441759
0.44153
0.381581
0.39387
0.406755
0.419519
0.429987
0.437034
0.440798
0.442101
0.442213
0.442193
0.442184
0.442016
0.442129
0.442477
0.442372
0.442466
0.442566
0.442397
0.442423
0.442655
0.442614
0.442733
0.442852
0.442652
0.442663
0.44279
0.442686
0.442765
0.442874
0.442748
0.442824
0.442865
0.442844
0.442839
0.442761
0.44274
0.442648
0.442597
0.442525
0.44238
0.442192
0.442105
0.442044
0.441863
0.441897
0.442007
0.44183
0.441888
0.442022
0.441963
0.441955
0.44195
0.441958
0.44194
0.441904
0.441848
0.441697
0.441568
0.44161
0.441686
0.441643
0.441476
0.441522
0.441684
0.4416
0.441626
0.44164
0.441605
0.441525
0.44148
0.441707
0.441869
0.44181
0.441811
0.441822
0.44181
0.441647
0.441609
0.441737
0.441715
0.441833
0.44199
0.442004
0.441968
0.441903
0.441898
0.441845
0.441832
0.441765
0.441535
0.381639
0.393778
0.406769
0.419546
0.429986
0.437048
0.440764
0.441851
0.441904
0.441849
0.44197
0.442281
0.442298
0.442296
0.442124
0.442147
0.442301
0.442419
0.44245
0.442428
0.442427
0.442349
0.442339
0.442251
0.442356
0.442472
0.442457
0.442466
0.442389
0.442428
0.442409
0.44247
0.442479
0.442445
0.442443
0.442412
0.442393
0.442306
0.442254
0.442197
0.442027
0.442064
0.442086
0.44207
0.442068
0.442015
0.441927
0.441822
0.441776
0.441706
0.44155
0.441411
0.441396
0.441447
0.441426
0.441278
0.441317
0.441347
0.441206
0.441171
0.441419
0.441636
0.441566
0.441606
0.441625
0.441596
0.44157
0.44141
0.441452
0.441642
0.441627
0.441633
0.441619
0.44151
0.441475
0.441463
0.441367
0.441353
0.441607
0.441752
0.441755
0.441754
0.441561
0.441611
0.441805
0.441721
0.441794
0.441835
0.441782
0.441595
0.381599
0.393848
0.406782
0.419477
0.429966
0.437096
0.440839
0.441898
0.441869
0.441951
0.44214
0.442126
0.442125
0.442042
0.442095
0.442137
0.442078
0.442182
0.442429
0.442427
0.442668
0.442782
0.442764
0.442751
0.442635
0.442593
0.44245
0.442457
0.442615
0.442616
0.442596
0.442473
0.442404
0.442418
0.442342
0.442432
0.442473
0.442318
0.442363
0.442423
0.44241
0.442405
0.442318
0.442283
0.442212
0.442082
0.441768
0.441549
0.441592
0.441622
0.441477
0.441528
0.441631
0.441575
0.441573
0.441569
0.44157
0.441576
0.441563
0.441391
0.441458
0.441588
0.441571
0.441562
0.441449
0.441539
0.441617
0.441593
0.441577
0.441439
0.441495
0.441553
0.441406
0.441445
0.441665
0.441714
0.441689
0.441648
0.441521
0.441559
0.441671
0.441519
0.441547
0.441804
0.441863
0.441844
0.441859
0.441828
0.441767
0.441574
0.381569
0.393878
0.406774
0.419478
0.43001
0.437003
0.440806
0.442247
0.442389
0.442384
0.442382
0.442298
0.442243
0.44245
0.442637
0.442519
0.442598
0.442648
0.442624
0.442599
0.442564
0.44277
0.442837
0.442799
0.44272
0.442669
0.442818
0.442885
0.442876
0.442891
0.442873
0.44285
0.442823
0.442819
0.442779
0.442721
0.442739
0.442714
0.442673
0.442592
0.442488
0.442371
0.442273
0.442074
0.441862
0.441718
0.44168
0.441649
0.441617
0.441567
0.441466
0.441379
0.441472
0.441524
0.44162
0.441685
0.441552
0.441618
0.441708
0.441655
0.441643
0.441614
0.441597
0.441407
0.441434
0.441683
0.441708
0.441679
0.441596
0.441539
0.441675
0.44178
0.441743
0.441667
0.441582
0.441686
0.441741
0.441704
0.44164
0.44155
0.441649
0.44175
0.441718
0.441608
0.441652
0.441802
0.441797
0.4418
0.441754
0.441562
0.381604
0.393802
0.406863
0.419505
0.429832
0.436982
0.441011
0.442308
0.442321
0.442339
0.442504
0.442539
0.442577
0.442578
0.442543
0.442496
0.442621
0.442933
0.442946
0.442904
0.442748
0.442818
0.442928
0.442774
0.442831
0.443021
0.442874
0.442945
0.443049
0.442896
0.442953
0.442993
0.44297
0.442964
0.442902
0.442779
0.442659
0.442588
0.442538
0.442476
0.442345
0.442271
0.442222
0.442179
0.442118
0.441986
0.441911
0.441698
0.441711
0.441812
0.441809
0.441785
0.441764
0.441765
0.44175
0.441705
0.441646
0.441621
0.441586
0.441559
0.441504
0.441522
0.441499
0.441625
0.441745
0.441721
0.441719
0.441697
0.441687
0.441549
0.441489
0.441651
0.441748
0.441741
0.441738
0.441558
0.441604
0.441813
0.441822
0.441813
0.441711
0.441652
0.441719
0.441809
0.441787
0.441757
0.441723
0.441696
0.441653
0.441516
0.381595
0.393865
0.406732
0.419466
0.430135
0.436992
0.440699
0.441852
0.441813
0.441832
0.441933
0.441824
0.441887
0.442051
0.44204
0.441982
0.441972
0.442156
0.442335
0.442492
0.442487
0.442498
0.442402
0.442444
0.442828
0.442913
0.442701
0.442731
0.442852
0.44274
0.442794
0.442856
0.442805
0.442826
0.442792
0.442745
0.442673
0.442458
0.442308
0.442223
0.442051
0.441924
0.441892
0.441884
0.441908
0.441911
0.441897
0.441768
0.441809
0.44188
0.441879
0.441879
0.441829
0.441731
0.441682
0.441578
0.441563
0.441571
0.441452
0.441554
0.441642
0.441614
0.441571
0.441466
0.441508
0.441582
0.441561
0.441543
0.441504
0.441378
0.441434
0.441714
0.441775
0.441752
0.441733
0.441734
0.441685
0.441601
0.441571
0.441522
0.441473
0.441657
0.441949
0.441937
0.441954
0.44192
0.441791
0.441781
0.441798
0.441639
0.381594
0.393832
0.406817
0.41955
0.429831
0.436918
0.441032
0.442436
0.442475
0.442538
0.442675
0.442589
0.442572
0.442632
0.442604
0.442681
0.442713
0.442682
0.442711
0.442717
0.442644
0.442661
0.442914
0.442946
0.442882
0.443012
0.443135
0.442952
0.443018
0.443067
0.44289
0.442947
0.442963
0.442834
0.442834
0.442832
0.442828
0.442819
0.442739
0.442622
0.442516
0.442392
0.442116
0.441891
0.44173
0.441667
0.441635
0.441555
0.441532
0.441572
0.441569
0.441552
0.441464
0.441378
0.441431
0.44141
0.441508
0.441699
0.441694
0.44165
0.441534
0.441466
0.441597
0.441728
0.441705
0.441624
0.4417
0.441823
0.441828
0.441828
0.441615
0.441645
0.441714
0.441709
0.441708
0.44152
0.441605
0.441796
0.441796
0.441797
0.441733
0.441719
0.441571
0.441643
0.441764
0.441761
0.441761
0.4417
0.441674
0.441469
0.381568
0.393914
0.4068
0.419389
0.43007
0.436964
0.44078
0.44221
0.442395
0.442363
0.442229
0.442226
0.4423
0.442292
0.442204
0.442206
0.442452
0.442542
0.442517
0.442436
0.442469
0.442509
0.442441
0.44257
0.44273
0.442565
0.442625
0.442808
0.442813
0.442815
0.442778
0.442745
0.442519
0.442464
0.442436
0.442364
0.442376
0.442322
0.442287
0.442293
0.442293
0.442257
0.442247
0.442199
0.442171
0.442139
0.442093
0.441959
0.441889
0.441757
0.441431
0.441427
0.441536
0.441539
0.441534
0.441389
0.44141
0.441416
0.44148
0.441963
0.442082
0.442045
0.441962
0.441893
0.44187
0.441736
0.441796
0.441951
0.441865
0.441929
0.44196
0.441938
0.441956
0.441933
0.441911
0.441852
0.441625
0.441627
0.44169
0.441692
0.441692
0.441561
0.441712
0.441848
0.441812
0.441672
0.44167
0.441726
0.441708
0.441594
0.381585
0.393852
0.406808
0.419567
0.429853
0.436824
0.440958
0.442721
0.442973
0.442944
0.442845
0.442795
0.442859
0.44281
0.442836
0.442984
0.443033
0.443021
0.443015
0.442873
0.442904
0.443028
0.443008
0.443008
0.442897
0.442925
0.442936
0.442983
0.443042
0.442943
0.443002
0.443009
0.442941
0.44293
0.442918
0.442921
0.442876
0.442825
0.44274
0.442659
0.442593
0.442488
0.442254
0.442046
0.441898
0.44182
0.441765
0.441733
0.441679
0.441575
0.441283
0.441256
0.441349
0.441378
0.441382
0.441255
0.44143
0.4417
0.441681
0.441706
0.44172
0.441713
0.441557
0.441622
0.44171
0.441585
0.441592
0.441755
0.441776
0.441762
0.441762
0.441712
0.4416
0.441659
0.441839
0.441856
0.441822
0.441788
0.441778
0.441586
0.441567
0.441774
0.441857
0.441835
0.441839
0.441808
0.441748
0.441723
0.441677
0.441497
0.381585
0.393859
0.406771
0.419603
0.429829
0.436844
0.44105
0.442613
0.442715
0.442816
0.443031
0.443026
0.44298
0.442863
0.442784
0.442824
0.442862
0.442783
0.442867
0.442986
0.442851
0.442935
0.443149
0.442998
0.443023
0.443279
0.443302
0.44328
0.443269
0.443245
0.443219
0.443174
0.443096
0.443087
0.443075
0.443034
0.442973
0.442915
0.442768
0.442575
0.442442
0.44233
0.442175
0.442058
0.441975
0.441911
0.441791
0.441481
0.441332
0.44147
0.441612
0.441602
0.441576
0.441562
0.441408
0.441454
0.441652
0.441552
0.441504
0.441539
0.441498
0.441541
0.44183
0.4419
0.441859
0.441875
0.441897
0.441906
0.441852
0.441719
0.441601
0.441745
0.441953
0.441908
0.441909
0.441878
0.44193
0.441946
0.441868
0.441889
0.44186
0.441811
0.441624
0.441667
0.441789
0.44179
0.44179
0.441733
0.441705
0.441485
0.381591
0.393831
0.406841
0.419539
0.429829
0.436925
0.440924
0.442598
0.442816
0.442749
0.442733
0.442728
0.442684
0.442689
0.442845
0.442848
0.442792
0.442791
0.442713
0.442845
0.443056
0.443058
0.443076
0.442985
0.442972
0.442957
0.442959
0.442914
0.442979
0.442991
0.442941
0.44295
0.442911
0.442879
0.442823
0.442716
0.442451
0.442214
0.442127
0.44211
0.442127
0.442136
0.442111
0.442089
0.442069
0.442045
0.442009
0.441949
0.441809
0.441421
0.441323
0.44142
0.44148
0.441451
0.44141
0.441301
0.441411
0.441663
0.441515
0.4415
0.441605
0.441544
0.44156
0.441838
0.441926
0.44188
0.44175
0.441686
0.441699
0.441562
0.441558
0.44166
0.441628
0.441583
0.441706
0.441811
0.441799
0.441794
0.441634
0.441712
0.441862
0.44178
0.441815
0.441825
0.441791
0.441716
0.441701
0.441673
0.441621
0.441447
0.381537
0.393917
0.406813
0.419487
0.429881
0.437011
0.440935
0.442315
0.442436
0.442334
0.44231
0.442338
0.44233
0.442388
0.442454
0.442423
0.442303
0.44235
0.4426
0.442607
0.442617
0.442568
0.442629
0.443046
0.443264
0.443139
0.443228
0.443277
0.443192
0.443197
0.443164
0.44313
0.443105
0.443098
0.443054
0.443001
0.442906
0.442816
0.442705
0.442616
0.442466
0.442349
0.442243
0.442091
0.441989
0.441781
0.441622
0.441489
0.44144
0.441379
0.441247
0.441126
0.441368
0.441802
0.441764
0.441748
0.441922
0.44218
0.442179
0.44218
0.442111
0.442101
0.442055
0.441863
0.441848
0.441927
0.441945
0.441958
0.441955
0.441944
0.44179
0.441871
0.441987
0.441983
0.441983
0.441915
0.44191
0.441864
0.441825
0.4418
0.441709
0.441744
0.441772
0.441634
0.44167
0.441684
0.44162
0.441619
0.441595
0.44141
0.381589
0.393868
0.406777
0.419467
0.429992
0.437143
0.440742
0.441654
0.441658
0.441798
0.442179
0.442174
0.442174
0.442173
0.442072
0.442137
0.44235
0.442315
0.44232
0.442289
0.442453
0.443011
0.442999
0.443128
0.443312
0.443246
0.44325
0.443263
0.44327
0.443209
0.443175
0.443167
0.443173
0.443142
0.443073
0.442927
0.442665
0.442495
0.442394
0.442314
0.442248
0.442194
0.442144
0.4421
0.442011
0.441806
0.441654
0.44157
0.441328
0.441311
0.441406
0.441322
0.441394
0.441442
0.441421
0.441413
0.44128
0.441245
0.44128
0.441281
0.441178
0.441228
0.441337
0.441322
0.44132
0.441168
0.441254
0.441377
0.441356
0.44134
0.441341
0.44155
0.441779
0.441851
0.441792
0.441787
0.44181
0.44182
0.44177
0.441605
0.441642
0.441777
0.441732
0.441729
0.441741
0.441736
0.441631
0.441513
0.441476
0.44137
0.381608
0.393794
0.406875
0.419496
0.429837
0.436991
0.440997
0.442487
0.44264
0.442635
0.442631
0.44248
0.442498
0.442751
0.442805
0.442716
0.442788
0.442833
0.442813
0.442812
0.442738
0.442909
0.443104
0.443199
0.443288
0.443201
0.443192
0.443122
0.443199
0.443215
0.443181
0.443176
0.443121
0.443052
0.442942
0.442867
0.442734
0.44263
0.442537
0.44247
0.442379
0.442307
0.442223
0.442152
0.442105
0.44204
0.441912
0.441679
0.441395
0.441313
0.441288
0.441283
0.441191
0.441217
0.441661
0.441777
0.441677
0.441684
0.441809
0.441804
0.441926
0.441996
0.441823
0.441859
0.442051
0.442051
0.442021
0.442057
0.442066
0.442001
0.441989
0.441891
0.441778
0.441757
0.441735
0.441862
0.442068
0.441902
0.441926
0.44209
0.442081
0.44214
0.442155
0.442135
0.442138
0.442097
0.442018
0.441981
0.441892
0.441582
0.381591
0.393842
0.406798
0.419585
0.429796
0.436957
0.441029
0.442442
0.442884
0.442902
0.442689
0.442734
0.442838
0.442825
0.442825
0.442695
0.442808
0.442963
0.442832
0.442882
0.443155
0.443179
0.443114
0.443188
0.443398
0.443271
0.443354
0.443435
0.443363
0.44336
0.443331
0.443334
0.443297
0.443251
0.443199
0.443064
0.442885
0.442745
0.442597
0.442271
0.442029
0.44194
0.441805
0.441742
0.441706
0.441682
0.441622
0.441404
0.441395
0.44152
0.441535
0.441524
0.441371
0.441336
0.441618
0.44204
0.442033
0.441937
0.442011
0.442148
0.442156
0.442158
0.442076
0.442065
0.44195
0.441993
0.442016
0.441974
0.44197
0.441936
0.441823
0.441872
0.44205
0.441896
0.441901
0.442125
0.442163
0.442117
0.441971
0.44193
0.441951
0.441816
0.441878
0.442028
0.442046
0.442012
0.441921
0.441911
0.441844
0.441612
0.381597
0.393882
0.406695
0.419567
0.429981
0.437038
0.440786
0.442008
0.442091
0.441967
0.442015
0.442133
0.442097
0.442109
0.442059
0.442227
0.442482
0.442494
0.442765
0.443146
0.443274
0.443251
0.443162
0.443201
0.44322
0.443179
0.443056
0.443096
0.443188
0.443088
0.443083
0.443082
0.44307
0.442991
0.442957
0.442901
0.442855
0.442771
0.442596
0.442347
0.442208
0.441938
0.441755
0.441685
0.441644
0.44158
0.441371
0.441392
0.441437
0.441319
0.441358
0.441369
0.441239
0.441298
0.44134
0.441288
0.441297
0.441278
0.441186
0.441271
0.441429
0.441395
0.4414
0.441343
0.44151
0.441806
0.441799
0.441783
0.44178
0.441687
0.441589
0.441617
0.441679
0.441694
0.441772
0.441775
0.441794
0.441754
0.441599
0.441662
0.441788
0.441771
0.441778
0.441723
0.44159
0.441614
0.441792
0.441805
0.441796
0.441583
0.381563
0.39387
0.406843
0.419442
0.429944
0.436997
0.440931
0.442372
0.442551
0.442519
0.442536
0.442533
0.442438
0.442523
0.442667
0.442638
0.44264
0.442507
0.44256
0.442782
0.442751
0.442753
0.442732
0.442884
0.44306
0.442901
0.442923
0.44323
0.443298
0.443269
0.443264
0.443213
0.443123
0.44305
0.442949
0.442839
0.442742
0.442644
0.442557
0.442489
0.442361
0.442235
0.442138
0.442069
0.441939
0.441777
0.441608
0.441514
0.441475
0.441395
0.441187
0.441093
0.441297
0.441423
0.441364
0.441396
0.441409
0.441365
0.441224
0.441126
0.441203
0.441479
0.441468
0.441273
0.441256
0.441498
0.441604
0.441602
0.441601
0.44149
0.441428
0.44141
0.441317
0.44137
0.44154
0.441531
0.441449
0.441451
0.441602
0.441673
0.441642
0.441481
0.441529
0.441576
0.441516
0.441676
0.441808
0.441807
0.441803
0.441539
0.381601
0.39381
0.406852
0.419519
0.429826
0.436992
0.44103
0.442333
0.442359
0.442419
0.442631
0.442646
0.442597
0.442718
0.442899
0.442768
0.442865
0.443057
0.442902
0.442988
0.443154
0.443018
0.442984
0.44311
0.443133
0.443241
0.443403
0.443264
0.443319
0.443384
0.443362
0.443357
0.443309
0.443285
0.443193
0.443
0.442771
0.442619
0.442473
0.442349
0.442256
0.442171
0.442115
0.442072
0.442036
0.441996
0.44192
0.441765
0.441483
0.441254
0.441262
0.441279
0.441254
0.441191
0.44128
0.441404
0.441396
0.441388
0.441207
0.441235
0.441348
0.441347
0.441354
0.441325
0.441256
0.441365
0.441578
0.441533
0.44154
0.441506
0.441506
0.441507
0.441503
0.441415
0.441551
0.441744
0.441717
0.441603
0.441587
0.44172
0.441735
0.441706
0.44168
0.441553
0.441601
0.441704
0.441641
0.441635
0.441615
0.441461
0.381585
0.393859
0.40677
0.419607
0.429825
0.436868
0.441011
0.442721
0.442948
0.442927
0.442938
0.442894
0.442764
0.442724
0.442858
0.442905
0.442843
0.442918
0.443057
0.442928
0.443022
0.44324
0.44308
0.443064
0.443205
0.4432
0.443322
0.44338
0.443256
0.443285
0.443318
0.443283
0.443288
0.443248
0.443191
0.443094
0.442946
0.442765
0.442621
0.442511
0.442419
0.442352
0.44227
0.442218
0.442147
0.441984
0.44191
0.441756
0.441672
0.441642
0.441609
0.441539
0.441318
0.441403
0.44186
0.442081
0.44216
0.442086
0.442153
0.442179
0.442132
0.441976
0.442004
0.442109
0.441969
0.442019
0.442085
0.442072
0.442093
0.442075
0.442064
0.442011
0.441824
0.441849
0.441883
0.441822
0.441835
0.441814
0.44172
0.441777
0.441931
0.44192
0.441904
0.4417
0.4417
0.441845
0.44189
0.441857
0.441806
0.441631
0.381591
0.393842
0.406798
0.419585
0.429794
0.436956
0.44103
0.442445
0.442887
0.442906
0.442686
0.442667
0.442827
0.442895
0.44286
0.442733
0.44281
0.442969
0.442926
0.442926
0.442849
0.442923
0.443173
0.443101
0.443124
0.443418
0.443502
0.44346
0.443456
0.443436
0.443433
0.443389
0.443327
0.443251
0.443169
0.443009
0.442858
0.442741
0.442598
0.442274
0.442055
0.441862
0.441794
0.441719
0.441687
0.441682
0.441641
0.441436
0.441415
0.441526
0.441577
0.441545
0.441336
0.441364
0.441658
0.441677
0.441676
0.441873
0.442055
0.442045
0.442082
0.44206
0.442025
0.441947
0.441799
0.441807
0.441903
0.441976
0.44195
0.441916
0.441893
0.441775
0.441768
0.441722
0.441836
0.441987
0.441833
0.441905
0.441961
0.441934
0.441932
0.441904
0.441893
0.441793
0.441742
0.441562
0.441603
0.441764
0.441736
0.441595
0.381609
0.393792
0.406878
0.419494
0.429829
0.437031
0.440926
0.442495
0.44268
0.442534
0.442599
0.442711
0.442687
0.44265
0.442616
0.442741
0.442732
0.442844
0.442914
0.442768
0.442768
0.443046
0.443223
0.443174
0.443211
0.44327
0.44325
0.443194
0.44302
0.443045
0.443075
0.442988
0.442986
0.442973
0.442977
0.442966
0.442928
0.442883
0.442825
0.442662
0.442439
0.442283
0.442166
0.442072
0.442018
0.441956
0.441827
0.441507
0.441311
0.44135
0.441447
0.441408
0.44125
0.441287
0.44174
0.441879
0.441857
0.441783
0.441865
0.442107
0.4421
0.442093
0.441915
0.441941
0.442043
0.441971
0.441978
0.442057
0.442063
0.442017
0.441873
0.441873
0.441977
0.441955
0.441979
0.442028
0.442002
0.441944
0.4418
0.441814
0.441977
0.441923
0.441992
0.442051
0.44204
0.442039
0.441969
0.441961
0.441881
0.441601
0.381596
0.393858
0.406774
0.419486
0.429989
0.437064
0.440799
0.441941
0.442008
0.441928
0.441986
0.4422
0.442164
0.44224
0.44227
0.44224
0.442222
0.442348
0.442496
0.442383
0.442391
0.442735
0.443095
0.443084
0.443001
0.443049
0.443143
0.442921
0.442926
0.44301
0.443006
0.443
0.442936
0.44295
0.442908
0.442861
0.44276
0.442723
0.442625
0.442411
0.442198
0.442089
0.441999
0.441801
0.441714
0.441648
0.44144
0.441471
0.441568
0.441482
0.441409
0.441458
0.441542
0.441524
0.441485
0.441543
0.441599
0.441587
0.441577
0.441359
0.441326
0.441535
0.441613
0.441569
0.441404
0.441404
0.441588
0.441536
0.441647
0.441729
0.441728
0.441728
0.441563
0.441534
0.44165
0.441602
0.441666
0.441818
0.441693
0.441667
0.441827
0.441933
0.441927
0.441924
0.441802
0.441752
0.441866
0.441908
0.441857
0.441661
0.381576
0.39391
0.40679
0.419396
0.43008
0.436966
0.440765
0.44221
0.442357
0.442246
0.442335
0.442391
0.442373
0.442371
0.442224
0.44232
0.442424
0.442537
0.44263
0.442582
0.442598
0.442554
0.44278
0.44318
0.443197
0.443165
0.443183
0.443137
0.442897
0.442914
0.442917
0.442881
0.442875
0.442822
0.442807
0.442753
0.442658
0.442556
0.442471
0.442388
0.442281
0.4422
0.442125
0.442064
0.442025
0.441953
0.441785
0.441738
0.441601
0.441603
0.441611
0.441572
0.44153
0.441461
0.44143
0.441401
0.441358
0.441272
0.441474
0.441772
0.441782
0.441782
0.441595
0.441618
0.44172
0.4417
0.441698
0.441651
0.441661
0.441658
0.441564
0.441602
0.441815
0.441829
0.441821
0.441672
0.441634
0.441794
0.441831
0.441784
0.44181
0.441774
0.441599
0.441639
0.441742
0.441719
0.441721
0.441695
0.441667
0.441436
0.381568
0.393913
0.406799
0.41939
0.430072
0.436964
0.440805
0.442151
0.442247
0.442158
0.442206
0.442299
0.442292
0.442286
0.44214
0.442296
0.442674
0.442704
0.442668
0.442531
0.44264
0.442854
0.442835
0.442788
0.442857
0.443033
0.44295
0.443035
0.44306
0.443031
0.443023
0.442944
0.44287
0.442791
0.44264
0.442513
0.442416
0.442329
0.442265
0.442195
0.442191
0.442192
0.442164
0.44214
0.442018
0.441859
0.441744
0.441699
0.441616
0.441426
0.44123
0.441205
0.441183
0.441234
0.441625
0.441861
0.441806
0.441861
0.441884
0.441842
0.441689
0.441713
0.441814
0.441732
0.441803
0.441845
0.441805
0.441726
0.441645
0.441776
0.441855
0.441759
0.44178
0.441785
0.441758
0.441737
0.441727
0.441632
0.441705
0.441773
0.441706
0.441698
0.441609
0.441684
0.441726
0.441679
0.441564
0.441527
0.441569
0.44143
0.381589
0.393847
0.406792
0.419582
0.42982
0.436899
0.441013
0.442622
0.44281
0.442778
0.442789
0.442779
0.44266
0.442703
0.442905
0.442874
0.442874
0.442857
0.442864
0.442821
0.44293
0.443001
0.442852
0.44291
0.443127
0.442989
0.443054
0.443179
0.443008
0.443071
0.443093
0.443055
0.443043
0.44295
0.442878
0.442764
0.44269
0.44256
0.442469
0.442394
0.442323
0.442271
0.442201
0.442119
0.441959
0.441677
0.441564
0.441528
0.441419
0.4415
0.441723
0.441615
0.441697
0.441746
0.441731
0.441727
0.441634
0.441551
0.441619
0.441657
0.441641
0.441625
0.441673
0.44171
0.441684
0.441678
0.441574
0.441623
0.441657
0.441604
0.441589
0.44173
0.441912
0.441977
0.441962
0.441985
0.441949
0.44182
0.441813
0.441791
0.44181
0.441767
0.441578
0.44158
0.441786
0.441842
0.441822
0.441844
0.441799
0.441545
0.38158
0.393865
0.406782
0.419615
0.429786
0.436875
0.440983
0.442609
0.442921
0.442906
0.442867
0.44277
0.44276
0.442747
0.442782
0.442887
0.442879
0.442779
0.442876
0.443162
0.443117
0.443219
0.443273
0.443087
0.443109
0.443209
0.443118
0.443172
0.443181
0.443153
0.44315
0.443116
0.443111
0.44307
0.443007
0.442953
0.442854
0.442766
0.44269
0.442534
0.442429
0.442372
0.442301
0.442149
0.442048
0.441992
0.441911
0.441868
0.441786
0.441714
0.44149
0.441455
0.441654
0.441718
0.441676
0.44153
0.441564
0.44172
0.441648
0.441712
0.441735
0.441684
0.441695
0.441685
0.441556
0.441535
0.441683
0.441654
0.441757
0.442032
0.44202
0.441987
0.441928
0.441828
0.441925
0.442036
0.441919
0.441984
0.442012
0.441939
0.441957
0.441958
0.441965
0.44193
0.441883
0.441757
0.441671
0.441635
0.441594
0.441459
0.381552
0.393883
0.406851
0.419469
0.429846
0.437069
0.440912
0.442251
0.442419
0.442415
0.442407
0.442211
0.442235
0.442287
0.442098
0.442082
0.442373
0.442529
0.442507
0.442421
0.442437
0.442699
0.442946
0.442925
0.442758
0.442829
0.442909
0.442898
0.442887
0.44265
0.442663
0.442688
0.442644
0.442576
0.442513
0.442459
0.442359
0.442214
0.442173
0.442167
0.442164
0.442161
0.442117
0.442066
0.44193
0.441753
0.441675
0.441594
0.441414
0.44126
0.441362
0.44154
0.441603
0.441586
0.441613
0.441577
0.441427
0.441371
0.441542
0.441614
0.441711
0.441842
0.441751
0.441775
0.44174
0.441668
0.441617
0.441624
0.441602
0.441657
0.44167
0.441645
0.441613
0.441647
0.441678
0.441562
0.441628
0.441779
0.44176
0.441724
0.441665
0.44169
0.441615
0.44171
0.441793
0.441764
0.441671
0.441647
0.441683
0.441517
0.381593
0.393834
0.406818
0.41954
0.429857
0.4369
0.44096
0.44264
0.442923
0.442895
0.442745
0.442732
0.442838
0.442814
0.442832
0.442795
0.442686
0.44265
0.442778
0.442855
0.442886
0.442865
0.44279
0.442896
0.443158
0.443115
0.443143
0.443198
0.443183
0.443162
0.443061
0.442963
0.442909
0.442816
0.442772
0.442717
0.442667
0.442635
0.442593
0.442544
0.442482
0.442393
0.442311
0.442142
0.441987
0.441915
0.441818
0.441762
0.441669
0.441404
0.44135
0.441552
0.441631
0.441605
0.441572
0.441489
0.441545
0.441621
0.441511
0.441519
0.441517
0.441522
0.441415
0.441482
0.441591
0.441408
0.441462
0.441596
0.441579
0.441509
0.441505
0.441737
0.441734
0.441841
0.44189
0.441774
0.441814
0.441874
0.441866
0.441853
0.441684
0.441625
0.44168
0.441668
0.441696
0.441686
0.441543
0.441523
0.441582
0.441442
0.381591
0.393858
0.406751
0.419503
0.430012
0.437101
0.440737
0.441741
0.441715
0.441739
0.442077
0.44222
0.442222
0.442223
0.442044
0.4421
0.442394
0.442414
0.442363
0.442455
0.442707
0.442582
0.442573
0.442772
0.442808
0.442894
0.443195
0.443189
0.443157
0.443154
0.443164
0.443146
0.443119
0.443053
0.442923
0.442787
0.442694
0.442624
0.442498
0.442404
0.442345
0.442298
0.442217
0.442172
0.442129
0.442036
0.441781
0.441694
0.441712
0.441619
0.4417
0.441752
0.441736
0.441725
0.441551
0.441481
0.441514
0.441525
0.441491
0.441395
0.441449
0.441556
0.441525