/*--------------------------------*- C++ -*----------------------------------*\
  =========                 |
  \\      /  F ield         | OpenFOAM: The Open Source CFD Toolbox
   \\    /   O peration     | Website:  https://openfoam.org
    \\  /    A nd           | Version:  11
     \\/     M anipulation  |
\*---------------------------------------------------------------------------*/
FoamFile
{
    format      ascii;
    class       volScalarField;
    location    "0.088";
    object      nut;
}
// * * * * * * * * * * * * * * * * * * * * * * * * * * * * * * * * * * * * * //

dimensions      [0 2 -1 0 0 0 0];

internalField   nonuniform List<scalar> 
287084
(
0.000836545
0.000864339
0.000894303
0.00092422
0.000949314
0.000966662
0.000975777
0.000978699
0.000979377
0.00097973
0.000979873
0.000979693
0.000979747
0.000980118
0.000979987
0.000980084
0.000980188
0.00098004
0.000979993
0.000979946
0.000979855
0.000979451
0.000979358
0.000979994
0.000980164
0.000980137
0.000980147
0.000979908
0.000979824
0.000980009
0.000980387
0.000980438
0.000980316
0.000980678
0.000981004
0.000981139
0.000981386
0.000981581
0.00098177
0.000981869
0.000981836
0.000981918
0.000981869
0.000981926
0.000981899
0.000981931
0.000981967
0.000981934
0.00098193
0.000981852
0.000981448
0.000981421
0.000981838
0.000981884
0.000981939
0.00098192
0.000981937
0.000981845
0.000981671
0.000981385
0.000981501
0.000981699
0.000981595
0.000981306
0.000981317
0.00098202
0.000982094
0.000981952
0.000981554
0.00098153
0.000981777
0.000981828
0.000981713
0.000981258
0.000981304
0.000981639
0.000981415
0.000981594
0.00098182
0.000981741
0.000981648
0.000981416
0.000981272
0.000981548
0.000981879
0.000981759
0.000981784
0.000981777
0.000981659
0.000981011
0.00118242
0.00122059
0.00126086
0.00130075
0.00133411
0.00135715
0.00136913
0.00137235
0.00137248
0.00137301
0.00137396
0.00137356
0.00137378
0.0013741
0.00137407
0.00137385
0.00137355
0.00137309
0.00137278
0.00137263
0.00137247
0.00137223
0.00137254
0.00137358
0.00137335
0.00137368
0.0013739
0.00137379
0.00137387
0.00137397
0.0013741
0.00137384
0.00137383
0.00137395
0.00137377
0.00137426
0.00137471
0.00137494
0.00137521
0.00137487
0.00137527
0.00137572
0.00137593
0.00137615
0.00137616
0.00137627
0.00137576
0.00137582
0.00137647
0.00137682
0.00137683
0.00137678
0.00137683
0.00137678
0.0013767
0.00137653
0.00137627
0.00137608
0.00137596
0.00137582
0.00137567
0.00137531
0.00137566
0.00137612
0.00137611
0.00137606
0.00137549
0.00137572
0.00137615
0.00137608
0.00137606
0.00137569
0.00137587
0.00137602
0.00137615
0.00137625
0.00137601
0.00137598
0.00137593
0.00137541
0.00137547
0.00137572
0.00137555
0.0013755
0.00137523
0.00137517
0.00137512
0.00137517
0.00137517
0.00137478
0.00118247
0.00122078
0.00126096
0.0013011
0.00133426
0.0013569
0.00136937
0.00137339
0.00137388
0.00137396
0.00137389
0.00137352
0.00137363
0.0013738
0.00137359
0.00137346
0.0013729
0.0013731
0.00137379
0.00137369
0.00137348
0.00137329
0.00137289
0.00137315
0.0013737
0.0013737
0.0013738
0.00137376
0.00137379
0.0013737
0.00137389
0.00137409
0.00137438
0.00137459
0.0013749
0.00137504
0.00137525
0.00137553
0.00137566
0.0013758
0.0013758
0.00137529
0.00137534
0.00137577
0.00137601
0.00137622
0.00137631
0.00137599
0.00137625
0.00137674
0.0013766
0.00137662
0.00137668
0.00137672
0.00137672
0.00137675
0.00137661
0.00137631
0.00137618
0.00137598
0.00137539
0.00137552
0.00137594
0.00137586
0.00137582
0.00137533
0.00137566
0.0013764
0.00137606
0.00137625
0.00137632
0.00137617
0.00137613
0.00137613
0.00137611
0.00137594
0.00137585
0.00137521
0.00137523
0.00137537
0.00137527
0.00137499
0.00137489
0.00137529
0.00137503
0.00137533
0.00137579
0.00137571
0.0013756
0.00137487
0.00118246
0.00122083
0.00126131
0.00130133
0.00133442
0.00135716
0.00136975
0.00137406
0.00137448
0.0013742
0.00137408
0.00137445
0.00137458
0.0013744
0.00137425
0.00137382
0.00137357
0.00137308
0.00137318
0.00137355
0.00137311
0.001373
0.00137291
0.00137248
0.0013726
0.00137304
0.00137303
0.00137302
0.00137281
0.00137272
0.0013734
0.0013741
0.00137398
0.0013745
0.00137492
0.00137521
0.00137552
0.00137576
0.00137606
0.00137615
0.0013764
0.00137654
0.00137675
0.00137685
0.00137678
0.00137625
0.0013761
0.00137623
0.00137643
0.00137645
0.00137599
0.00137617
0.00137644
0.00137627
0.00137626
0.00137635
0.00137641
0.00137626
0.00137581
0.00137584
0.00137635
0.00137632
0.00137632
0.0013762
0.00137612
0.00137584
0.00137578
0.00137574
0.00137545
0.00137571
0.00137628
0.00137602
0.00137608
0.00137609
0.00137594
0.00137554
0.00137543
0.00137579
0.00137571
0.00137599
0.00137629
0.00137615
0.00137572
0.00137563
0.00137581
0.00137587
0.00137587
0.0013758
0.00137574
0.00137495
0.00118245
0.00122091
0.00126154
0.00130123
0.00133463
0.00135772
0.00136923
0.00137395
0.00137455
0.00137454
0.00137448
0.00137381
0.00137392
0.00137405
0.00137362
0.0013735
0.00137331
0.00137272
0.00137265
0.00137293
0.0013729
0.00137269
0.00137206
0.00137231
0.00137293
0.0013727
0.00137275
0.00137284
0.00137275
0.00137313
0.00137365
0.00137345
0.00137391
0.00137436
0.00137464
0.00137495
0.00137499
0.00137482
0.0013753
0.00137588
0.00137591
0.00137638
0.00137668
0.00137672
0.00137693
0.00137711
0.00137722
0.00137737
0.00137749
0.00137747
0.00137734
0.00137719
0.00137711
0.00137687
0.00137672
0.00137661
0.00137635
0.00137563
0.00137538
0.0013758
0.001376
0.00137587
0.00137565
0.0013755
0.00137533
0.00137527
0.00137485
0.00137495
0.00137557
0.00137564
0.00137549
0.00137498
0.00137522
0.00137612
0.00137583
0.00137613
0.00137641
0.00137589
0.00137603
0.00137625
0.00137588
0.00137608
0.00137614
0.00137601
0.00137583
0.00137532
0.00137549
0.00137566
0.0013755
0.00137496
0.00118247
0.00122095
0.00126139
0.0013014
0.00133512
0.00135762
0.00136895
0.00137274
0.00137443
0.00137438
0.00137394
0.001374
0.00137398
0.00137377
0.00137359
0.00137292
0.00137261
0.00137293
0.00137305
0.00137308
0.00137288
0.00137264
0.00137235
0.00137198
0.00137224
0.00137241
0.00137207
0.00137218
0.00137309
0.00137349
0.00137338
0.00137386
0.00137425
0.00137449
0.00137481
0.00137495
0.00137513
0.00137473
0.00137486
0.00137531
0.00137532
0.0013758
0.00137628
0.00137643
0.00137663
0.00137673
0.00137681
0.00137641
0.00137619
0.00137638
0.00137669
0.00137668
0.00137664
0.00137633
0.00137639
0.00137678
0.00137682
0.00137669
0.00137648
0.00137647
0.00137637
0.00137607
0.00137611
0.00137615
0.00137598
0.00137554
0.00137551
0.00137607
0.00137586
0.00137616
0.0013764
0.00137637
0.00137633
0.00137606
0.00137597
0.0013754
0.00137541
0.00137586
0.00137558
0.00137584
0.00137601
0.00137591
0.00137586
0.00137549
0.00137547
0.00137532
0.00137561
0.00137584
0.00137569
0.00137515
0.00118244
0.00122094
0.0012615
0.00130137
0.00133539
0.00135733
0.00136926
0.00137368
0.0013741
0.00137404
0.00137394
0.00137358
0.00137314
0.00137339
0.00137366
0.00137323
0.00137358
0.00137442
0.00137429
0.00137409
0.0013741
0.00137417
0.001374
0.0013739
0.00137357
0.00137348
0.00137332
0.00137354
0.00137376
0.00137379
0.00137403
0.00137433
0.00137456
0.00137441
0.00137452
0.00137496
0.00137535
0.00137557
0.00137547
0.00137561
0.00137609
0.00137647
0.00137664
0.00137656
0.0013767
0.00137689
0.001377
0.00137708
0.0013771
0.00137707
0.00137701
0.00137659
0.00137635
0.00137646
0.00137665
0.00137656
0.00137655
0.00137639
0.00137579
0.00137596
0.00137638
0.00137628
0.00137621
0.00137608
0.00137602
0.00137544
0.00137549
0.00137584
0.00137585
0.0013758
0.00137528
0.00137542
0.00137571
0.0013756
0.00137535
0.00137537
0.00137575
0.00137554
0.00137554
0.00137552
0.00137544
0.00137521
0.00137553
0.00137582
0.0013758
0.00137578
0.00137522
0.00137537
0.00137561
0.00137499
0.00118252
0.0012208
0.00126167
0.00130172
0.00133451
0.00135727
0.00137006
0.00137548
0.00137641
0.00137626
0.00137573
0.00137563
0.00137577
0.00137539
0.00137522
0.00137482
0.00137487
0.00137483
0.00137452
0.0013741
0.00137366
0.00137355
0.00137328
0.00137351
0.00137384
0.00137357
0.00137386
0.00137406
0.00137411
0.00137435
0.00137446
0.00137473
0.00137508
0.00137552
0.00137584
0.00137614
0.00137641
0.0013765
0.00137598
0.00137612
0.00137654
0.00137684
0.00137711
0.0013773
0.00137749
0.00137735
0.00137741
0.00137743
0.00137733
0.00137741
0.00137736
0.00137726
0.00137688
0.00137708
0.00137739
0.00137726
0.00137682
0.00137673
0.00137697
0.00137672
0.00137693
0.00137717
0.00137695
0.00137699
0.00137711
0.00137696
0.00137672
0.00137634
0.00137609
0.0013756
0.00137542
0.00137607
0.00137636
0.0013763
0.00137624
0.00137565
0.00137562
0.00137626
0.00137643
0.00137634
0.00137637
0.00137622
0.00137567
0.00137547
0.00137572
0.00137596
0.00137587
0.00137592
0.00137579
0.00137502
0.00118248
0.00122095
0.00126145
0.0013017
0.00133498
0.00135755
0.00136969
0.00137393
0.00137431
0.00137417
0.001374
0.0013733
0.00137346
0.00137434
0.0013738
0.00137387
0.00137396
0.00137322
0.00137309
0.00137361
0.00137331
0.00137353
0.00137378
0.00137309
0.00137309
0.0013735
0.00137324
0.00137362
0.00137414
0.00137399
0.00137452
0.00137498
0.0013753
0.0013757
0.00137589
0.00137627
0.00137643
0.00137671
0.00137691
0.00137686
0.00137664
0.0013767
0.00137681
0.00137651
0.00137684
0.00137737
0.00137697
0.00137728
0.00137779
0.00137767
0.0013777
0.00137771
0.00137774
0.00137768
0.00137755
0.00137735
0.00137684
0.00137639
0.00137648
0.00137667
0.00137648
0.0013759
0.00137598
0.00137643
0.00137611
0.00137614
0.00137612
0.00137596
0.00137566
0.00137547
0.00137613
0.00137659
0.00137636
0.00137632
0.00137632
0.00137624
0.0013757
0.00137555
0.00137592
0.00137582
0.00137616
0.00137662
0.00137664
0.00137651
0.00137629
0.00137626
0.00137608
0.00137602
0.0013758
0.00137503
0.00118265
0.00122067
0.0012615
0.0013018
0.00133499
0.00135762
0.00136961
0.00137318
0.00137336
0.0013731
0.00137332
0.00137411
0.00137395
0.00137372
0.00137295
0.00137278
0.00137302
0.00137315
0.00137302
0.00137274
0.00137254
0.00137213
0.00137197
0.00137161
0.0013719
0.00137228
0.00137231
0.00137247
0.00137243
0.00137282
0.00137309
0.00137365
0.0013741
0.00137444
0.00137491
0.0013753
0.00137572
0.00137592
0.0013762
0.00137645
0.0013763
0.00137677
0.00137714
0.00137736
0.00137758
0.0013776
0.00137747
0.00137726
0.00137721
0.00137705
0.0013766
0.00137618
0.00137613
0.00137627
0.00137618
0.00137568
0.00137575
0.00137579
0.0013753
0.00137513
0.00137584
0.00137645
0.00137617
0.00137624
0.00137623
0.00137608
0.00137594
0.00137538
0.00137546
0.001376
0.0013759
0.00137587
0.00137578
0.0013754
0.00137525
0.00137517
0.00137484
0.00137476
0.00137552
0.00137594
0.00137592
0.00137589
0.00137527
0.0013754
0.00137599
0.00137571
0.00137593
0.00137604
0.00137586
0.00137522
0.00118253
0.00122088
0.00126155
0.00130159
0.00133494
0.00135778
0.00136986
0.00137334
0.00137326
0.00137341
0.00137383
0.00137359
0.00137336
0.00137286
0.00137277
0.00137265
0.0013722
0.00137227
0.00137279
0.00137255
0.00137309
0.00137326
0.00137306
0.00137292
0.00137252
0.0013724
0.00137204
0.00137221
0.00137293
0.00137322
0.00137351
0.00137354
0.00137379
0.00137433
0.00137461
0.00137541
0.00137606
0.00137608
0.0013767
0.00137733
0.0013777
0.00137804
0.00137809
0.00137825
0.00137825
0.00137803
0.00137719
0.00137662
0.00137683
0.00137698
0.00137654
0.00137671
0.00137701
0.00137681
0.00137676
0.0013767
0.00137665
0.0013766
0.0013765
0.00137589
0.00137603
0.00137637
0.00137625
0.00137615
0.00137572
0.00137594
0.00137612
0.00137599
0.00137588
0.00137539
0.00137551
0.00137564
0.00137513
0.00137521
0.00137585
0.00137597
0.00137585
0.00137569
0.00137526
0.00137535
0.00137567
0.00137517
0.00137523
0.00137601
0.00137618
0.0013761
0.00137613
0.00137602
0.00137582
0.00137516
0.00118244
0.00122098
0.00126153
0.0013016
0.00133508
0.0013575
0.00136975
0.00137442
0.00137487
0.00137474
0.00137456
0.00137408
0.00137367
0.00137405
0.00137436
0.00137371
0.00137368
0.00137355
0.00137321
0.00137288
0.00137254
0.00137298
0.00137303
0.00137281
0.00137251
0.00137237
0.00137293
0.0013733
0.00137351
0.00137388
0.00137422
0.0013746
0.00137502
0.00137554
0.00137598
0.00137637
0.00137699
0.00137745
0.00137783
0.00137805
0.00137816
0.00137817
0.00137818
0.00137784
0.0013774
0.00137713
0.00137715
0.00137715
0.00137712
0.001377
0.00137669
0.00137641
0.00137667
0.0013768
0.00137704
0.00137718
0.0013767
0.00137683
0.00137704
0.00137679
0.00137668
0.00137651
0.00137638
0.00137571
0.00137572
0.00137643
0.00137644
0.00137629
0.00137596
0.00137573
0.00137609
0.00137637
0.0013762
0.00137592
0.00137561
0.00137589
0.00137602
0.00137587
0.00137564
0.00137532
0.0013756
0.0013759
0.00137577
0.0013754
0.00137552
0.00137597
0.00137594
0.00137593
0.00137578
0.00137512
0.00118255
0.00122074
0.0012618
0.00130168
0.00133452
0.00135743
0.00137039
0.00137461
0.00137464
0.00137457
0.0013749
0.00137478
0.00137464
0.00137436
0.00137396
0.00137351
0.0013736
0.00137426
0.00137401
0.00137361
0.00137287
0.00137287
0.00137305
0.00137245
0.00137257
0.00137318
0.00137282
0.00137322
0.00137382
0.00137369
0.0013743
0.00137492
0.00137539
0.00137597
0.00137639
0.00137662
0.00137685
0.00137721
0.0013776
0.00137791
0.00137794
0.00137809
0.00137827
0.00137842
0.00137845
0.00137821
0.00137811
0.00137753
0.00137763
0.00137797
0.00137795
0.00137785
0.00137775
0.0013777
0.00137758
0.00137737
0.0013771
0.00137694
0.00137675
0.00137658
0.00137632
0.00137629
0.00137613
0.00137645
0.00137674
0.00137659
0.00137651
0.00137637
0.00137627
0.00137578
0.00137554
0.00137598
0.00137623
0.00137616
0.00137611
0.0013755
0.0013756
0.00137622
0.00137622
0.00137616
0.00137581
0.00137559
0.00137578
0.00137604
0.00137595
0.00137583
0.00137571
0.00137561
0.00137547
0.00137498
0.00118252
0.00122094
0.0012614
0.00130156
0.00133547
0.00135745
0.00136941
0.00137317
0.00137303
0.00137296
0.00137307
0.00137249
0.00137241
0.00137263
0.00137228
0.00137178
0.00137142
0.00137167
0.00137191
0.0013721
0.00137182
0.00137161
0.00137113
0.00137114
0.00137227
0.00137255
0.001372
0.0013723
0.00137296
0.001373
0.00137364
0.00137437
0.00137482
0.00137552
0.00137608
0.00137659
0.00137702
0.00137697
0.00137708
0.00137733
0.00137726
0.00137727
0.00137751
0.00137776
0.00137805
0.00137823
0.00137831
0.00137799
0.00137815
0.00137838
0.00137836
0.00137833
0.00137811
0.00137774
0.0013775
0.0013771
0.00137696
0.00137689
0.00137642
0.00137664
0.00137682
0.00137664
0.00137642
0.001376
0.00137605
0.0013762
0.00137606
0.00137593
0.00137573
0.00137527
0.00137539
0.0013762
0.00137634
0.00137621
0.00137611
0.00137606
0.00137587
0.00137557
0.00137544
0.00137525
0.00137507
0.00137561
0.0013765
0.00137644
0.00137647
0.00137634
0.00137593
0.00137588
0.00137592
0.00137537
0.00118251
0.00122083
0.00126166
0.00130182
0.00133452
0.00135721
0.00137043
0.00137496
0.00137506
0.00137512
0.00137533
0.0013748
0.00137446
0.00137433
0.00137392
0.00137381
0.00137357
0.00137312
0.00137287
0.00137257
0.00137205
0.00137185
0.00137244
0.00137239
0.00137213
0.00137256
0.00137306
0.00137271
0.00137324
0.00137381
0.00137377
0.00137454
0.00137524
0.00137553
0.00137625
0.00137695
0.00137763
0.00137826
0.00137862
0.0013788
0.00137895
0.00137898
0.00137846
0.00137804
0.00137776
0.00137772
0.00137773
0.00137755
0.00137751
0.00137763
0.00137759
0.00137748
0.00137714
0.00137679
0.00137686
0.0013767
0.0013769
0.00137739
0.00137727
0.00137702
0.00137656
0.00137624
0.00137656
0.00137687
0.00137671
0.00137637
0.00137653
0.00137683
0.00137677
0.0013767
0.00137598
0.00137601
0.00137616
0.0013761
0.00137604
0.00137541
0.00137563
0.00137619
0.00137615
0.00137612
0.00137589
0.00137581
0.00137532
0.00137553
0.00137588
0.00137585
0.00137584
0.00137563
0.00137554
0.00137484
0.00118243
0.00122109
0.0012616
0.00130131
0.00133525
0.00135734
0.00136962
0.00137423
0.00137478
0.00137452
0.00137388
0.0013736
0.00137353
0.00137318
0.00137255
0.00137219
0.00137259
0.0013725
0.00137206
0.00137146
0.00137125
0.00137111
0.00137068
0.00137093
0.00137136
0.00137088
0.00137119
0.001372
0.00137237
0.00137282
0.00137326
0.0013738
0.0013738
0.00137438
0.00137505
0.00137559
0.00137636
0.00137689
0.00137741
0.00137801
0.0013785
0.00137882
0.00137914
0.00137927
0.00137939
0.00137945
0.00137941
0.00137904
0.00137884
0.00137841
0.00137734
0.00137726
0.00137752
0.00137744
0.00137731
0.00137675
0.0013767
0.0013766
0.00137669
0.00137808
0.00137834
0.00137812
0.00137775
0.00137744
0.00137727
0.00137676
0.00137686
0.00137726
0.00137692
0.00137704
0.00137707
0.00137694
0.00137693
0.00137681
0.00137669
0.00137646
0.0013757
0.00137567
0.00137583
0.0013758
0.00137576
0.00137532
0.00137577
0.00137617
0.00137604
0.00137558
0.00137556
0.00137572
0.00137565
0.00137523
0.00118248
0.0012209
0.00126163
0.00130187
0.00133456
0.00135689
0.00137016
0.00137579
0.00137654
0.00137629
0.00137575
0.00137531
0.00137518
0.00137468
0.00137439
0.00137447
0.00137423
0.0013738
0.0013734
0.00137259
0.00137236
0.00137245
0.00137215
0.001372
0.00137159
0.00137171
0.00137188
0.00137229
0.00137285
0.00137303
0.00137381
0.00137452
0.00137506
0.00137582
0.0013766
0.00137741
0.00137805
0.00137862
0.00137903
0.00137937
0.00137968
0.00137979
0.00137941
0.00137904
0.00137879
0.00137869
0.00137861
0.00137856
0.00137839
0.00137803
0.00137706
0.00137689
0.00137709
0.00137707
0.00137696
0.00137644
0.00137686
0.00137758
0.0013774
0.00137735
0.00137728
0.00137714
0.00137654
0.00137664
0.00137681
0.00137633
0.00137626
0.00137668
0.00137667
0.00137655
0.00137647
0.00137625
0.00137584
0.00137597
0.00137648
0.00137648
0.00137633
0.00137618
0.00137611
0.00137547
0.00137538
0.001376
0.00137623
0.00137613
0.00137612
0.001376
0.0013758
0.00137571
0.00137556
0.00137493
0.00118248
0.00122092
0.00126151
0.00130197
0.00133448
0.00135694
0.00137042
0.00137544
0.0013757
0.00137585
0.00137627
0.00137595
0.00137547
0.00137475
0.00137411
0.00137383
0.00137354
0.00137289
0.00137274
0.00137272
0.00137196
0.0013719
0.00137233
0.00137169
0.0013717
0.00137252
0.00137275
0.00137296
0.00137333
0.00137379
0.00137435
0.00137494
0.00137551
0.00137632
0.00137714
0.00137787
0.00137849
0.00137908
0.00137931
0.00137932
0.00137944
0.00137953
0.00137941
0.00137932
0.00137927
0.00137921
0.00137892
0.00137798
0.0013775
0.00137789
0.00137826
0.00137813
0.00137794
0.00137778
0.00137716
0.00137717
0.00137766
0.00137721
0.00137692
0.0013769
0.00137665
0.00137666
0.00137744
0.00137755
0.00137732
0.00137726
0.00137724
0.00137718
0.00137693
0.00137643
0.00137599
0.00137637
0.00137696
0.00137676
0.00137671
0.00137656
0.00137667
0.00137668
0.0013764
0.00137643
0.0013763
0.00137612
0.0013755
0.00137561
0.00137597
0.00137595
0.00137594
0.00137574
0.00137564
0.00137489
0.00118251
0.00122083
0.00126173
0.00130177
0.00133447
0.00135717
0.00137001
0.00137536
0.00137598
0.0013756
0.00137529
0.00137496
0.00137447
0.00137411
0.00137419
0.00137378
0.00137318
0.00137274
0.00137208
0.00137208
0.00137236
0.00137205
0.00137184
0.00137139
0.00137127
0.00137126
0.00137144
0.0013716
0.00137224
0.00137284
0.00137337
0.00137417
0.0013749
0.00137568
0.00137641
0.00137697
0.00137699
0.00137705
0.0013775
0.00137808
0.00137867
0.00137915
0.00137943
0.00137964
0.00137978
0.00137984
0.0013798
0.00137963
0.00137917
0.0013779
0.00137751
0.00137771
0.00137778
0.00137755
0.00137728
0.00137679
0.00137699
0.00137764
0.00137703
0.00137685
0.00137704
0.00137672
0.00137665
0.0013774
0.00137756
0.00137731
0.00137681
0.00137652
0.00137647
0.00137596
0.00137588
0.00137612
0.00137596
0.00137576
0.00137608
0.00137636
0.00137627
0.00137621
0.00137567
0.00137588
0.00137631
0.00137602
0.00137611
0.00137611
0.00137598
0.00137572
0.00137566
0.00137556
0.00137538
0.00137478
0.00118234
0.0012211
0.00126164
0.0013016
0.00133463
0.00135743
0.00137003
0.00137446
0.00137477
0.00137426
0.00137392
0.00137369
0.0013733
0.00137309
0.00137287
0.00137234
0.00137152
0.00137122
0.00137155
0.00137115
0.00137079
0.00137031
0.00137023
0.00137134
0.00137195
0.0013716
0.00137206
0.00137253
0.00137273
0.00137334
0.00137396
0.00137466
0.00137547
0.00137638
0.00137719
0.00137794
0.00137853
0.00137907
0.00137946
0.00137983
0.00137992
0.00138001
0.00138004
0.00137985
0.00137973
0.0013792
0.00137877
0.00137836
0.00137818
0.00137792
0.00137741
0.00137691
0.00137754
0.00137876
0.00137849
0.00137828
0.00137867
0.00137932
0.00137917
0.00137903
0.00137867
0.00137851
0.00137824
0.00137751
0.00137735
0.00137749
0.00137744
0.00137739
0.00137729
0.00137717
0.00137662
0.0013768
0.00137709
0.00137702
0.00137696
0.00137669
0.00137663
0.00137644
0.00137627
0.00137616
0.00137584
0.00137592
0.00137598
0.00137552
0.0013756
0.00137562
0.00137541
0.00137539
0.00137531
0.00137466
0.0011825
0.00122095
0.00126152
0.00130153
0.00133496
0.00135784
0.00136941
0.00137238
0.00137232
0.00137256
0.00137347
0.00137312
0.00137275
0.00137234
0.0013716
0.00137135
0.00137155
0.00137098
0.00137053
0.00137
0.0013701
0.00137149
0.00137118
0.00137139
0.00137188
0.00137173
0.00137194
0.00137231
0.00137282
0.00137325
0.0013739
0.00137472
0.00137566
0.00137653
0.00137729
0.00137779
0.00137789
0.0013782
0.00137864
0.00137905
0.00137941
0.0013797
0.00137991
0.00138005
0.00137996
0.00137944
0.00137903
0.00137877
0.00137797
0.00137784
0.00137803
0.00137764
0.00137772
0.00137772
0.00137749
0.00137731
0.00137673
0.00137646
0.00137642
0.00137627
0.0013758
0.00137582
0.00137603
0.00137585
0.00137573
0.00137514
0.00137531
0.00137559
0.00137544
0.0013753
0.00137523
0.0013758
0.00137645
0.00137661
0.00137637
0.0013763
0.00137632
0.0013763
0.00137611
0.00137555
0.00137564
0.00137602
0.00137586
0.00137582
0.00137583
0.00137579
0.00137545
0.00137506
0.00137494
0.00137454
0.00118256
0.00122072
0.00126183
0.00130162
0.00133447
0.00135735
0.00137019
0.00137495
0.00137535
0.00137513
0.00137484
0.00137403
0.0013737
0.00137407
0.0013738
0.00137306
0.00137281
0.00137247
0.00137193
0.00137148
0.00137084
0.00137102
0.00137134
0.00137144
0.00137164
0.00137143
0.0013716
0.00137174
0.00137248
0.00137318
0.00137385
0.00137471
0.00137549
0.00137627
0.00137693
0.00137767
0.00137819
0.00137872
0.0013792
0.00137967
0.00137996
0.00138019
0.0013803
0.00138035
0.0013804
0.00138031
0.00137996
0.00137923
0.00137829
0.00137795
0.00137776
0.00137761
0.00137717
0.00137709
0.00137832
0.00137851
0.00137803
0.00137789
0.00137811
0.00137794
0.00137818
0.00137825
0.00137758
0.00137756
0.00137803
0.00137792
0.00137772
0.00137773
0.00137767
0.00137738
0.00137726
0.00137688
0.00137646
0.00137633
0.0013762
0.00137654
0.00137713
0.00137657
0.0013766
0.00137707
0.00137701
0.00137716
0.00137718
0.00137708
0.00137707
0.00137692
0.00137666
0.00137652
0.00137623
0.00137521
0.0011825
0.00122087
0.00126159
0.0013019
0.00133434
0.00135724
0.00137028
0.0013748
0.00137609
0.00137594
0.00137499
0.00137479
0.00137472
0.00137426
0.00137381
0.00137293
0.0013728
0.00137279
0.0013719
0.00137159
0.00137202
0.00137173
0.00137124
0.00137127
0.00137185
0.00137152
0.00137198
0.00137261
0.00137291
0.00137356
0.00137427
0.00137517
0.00137603
0.0013769
0.00137776
0.00137834
0.00137873
0.00137916
0.00137949
0.00137915
0.00137897
0.00137916
0.00137911
0.00137918
0.00137926
0.00137929
0.00137915
0.00137846
0.00137838
0.00137868
0.00137861
0.00137843
0.00137779
0.00137752
0.00137823
0.00137938
0.00137918
0.00137872
0.00137878
0.00137905
0.00137892
0.00137878
0.00137838
0.00137822
0.00137774
0.00137776
0.00137772
0.00137749
0.00137738
0.00137719
0.00137675
0.00137683
0.00137731
0.00137677
0.00137672
0.00137736
0.00137743
0.00137724
0.00137674
0.00137657
0.00137661
0.00137615
0.00137631
0.00137675
0.00137679
0.00137665
0.00137635
0.00137631
0.00137608
0.0013753
0.00118252
0.00122099
0.00126127
0.00130183
0.00133492
0.00135748
0.00136952
0.00137343
0.00137361
0.00137301
0.00137287
0.00137289
0.00137239
0.001372
0.00137138
0.00137143
0.00137173
0.00137127
0.00137162
0.00137234
0.00137231
0.00137186
0.0013713
0.00137122
0.00137121
0.00137115
0.00137098
0.00137147
0.00137229
0.00137266
0.00137345
0.00137436
0.00137532
0.0013761
0.00137704
0.00137787
0.00137868
0.00137931
0.00137954
0.00137945
0.0013796
0.00137923
0.00137902
0.00137908
0.00137914
0.00137904
0.00137844
0.00137849
0.00137857
0.0013781
0.00137811
0.001378
0.00137743
0.00137744
0.0013774
0.00137706
0.00137691
0.00137668
0.00137623
0.00137633
0.00137667
0.00137642
0.00137629
0.00137598
0.00137638
0.00137718
0.00137705
0.0013769
0.00137679
0.00137642
0.00137603
0.00137604
0.00137616
0.00137614
0.00137632
0.00137627
0.00137628
0.00137611
0.00137558
0.00137574
0.0013761
0.00137601
0.001376
0.0013758
0.00137536
0.00137541
0.00137595
0.00137597
0.00137594
0.00137521
0.00118242
0.00122095
0.00126173
0.00130145
0.0013348
0.00135735
0.00136996
0.00137456
0.00137504
0.00137472
0.00137448
0.00137412
0.00137344
0.00137327
0.00137326
0.00137268
0.00137219
0.00137128
0.00137096
0.00137117
0.00137065
0.00137028
0.00136992
0.00137019
0.00137066
0.00137024
0.00137052
0.00137185
0.00137259
0.00137319
0.00137399
0.00137476
0.00137548
0.00137629
0.00137702
0.00137769
0.00137836
0.00137894
0.00137945
0.00137993
0.00138011
0.00138019
0.00138026
0.00138032
0.00138009
0.00137969
0.00137921
0.0013789
0.00137872
0.00137837
0.00137759
0.00137715
0.00137763
0.00137785
0.00137749
0.00137741
0.00137728
0.00137697
0.00137635
0.00137589
0.00137597
0.00137668
0.00137651
0.00137577
0.00137559
0.00137623
0.00137644
0.00137634
0.00137624
0.0013758
0.00137552
0.00137539
0.00137503
0.00137513
0.0013756
0.00137552
0.00137521
0.00137517
0.00137559
0.00137578
0.00137564
0.0013751
0.00137522
0.00137534
0.00137514
0.00137561
0.001376
0.00137598
0.00137596
0.00137507
0.00118254
0.00122077
0.00126175
0.00130169
0.00133443
0.00135734
0.00137027
0.00137444
0.00137444
0.00137441
0.00137478
0.00137448
0.00137393
0.00137387
0.00137398
0.00137309
0.00137289
0.00137299
0.00137202
0.00137181
0.0013719
0.0013711
0.0013707
0.00137089
0.00137089
0.0013713
0.00137201
0.00137195
0.00137266
0.00137355
0.0013743
0.00137521
0.00137606
0.00137702
0.00137778
0.0013782
0.00137844
0.00137885
0.00137919
0.00137949
0.00137978
0.00137999
0.00138018
0.00138032
0.00138039
0.00138038
0.00138018
0.00137968
0.00137874
0.00137793
0.00137783
0.00137774
0.0013775
0.00137713
0.00137723
0.00137744
0.00137724
0.00137704
0.0013763
0.00137623
0.00137643
0.00137627
0.00137615
0.00137593
0.00137559
0.00137581
0.00137637
0.00137612
0.00137605
0.00137585
0.00137577
0.0013757
0.00137561
0.00137527
0.00137563
0.00137618
0.00137605
0.00137564
0.00137555
0.00137592
0.00137593
0.00137581
0.0013757
0.00137527
0.0013754
0.0013757
0.00137548
0.00137545
0.00137537
0.00137483
0.00118249
0.00122092
0.0012615
0.00130196
0.00133443
0.00135695
0.00137022
0.00137566
0.00137628
0.001376
0.00137574
0.00137526
0.00137446
0.00137391
0.00137387
0.00137354
0.00137285
0.00137259
0.00137253
0.00137166
0.00137153
0.00137183
0.00137105
0.0013708
0.00137116
0.00137121
0.0013718
0.00137235
0.00137251
0.00137327
0.00137418
0.00137499
0.001376
0.0013769
0.00137776
0.00137847
0.00137896
0.00137928
0.00137962
0.00137996
0.00138026
0.00138052
0.00138063
0.00138074
0.00138071
0.00138031
0.00138012
0.00137962
0.0013793
0.00137912
0.00137889
0.00137853
0.00137767
0.00137777
0.00137902
0.00137954
0.00137961
0.00137921
0.00137925
0.00137917
0.00137887
0.00137823
0.00137818
0.00137837
0.00137781
0.00137785
0.00137794
0.0013778
0.00137777
0.00137762
0.00137751
0.00137727
0.00137661
0.00137663
0.00137667
0.00137642
0.00137641
0.0013763
0.00137596
0.0013761
0.00137654
0.00137648
0.0013764
0.00137573
0.00137571
0.00137614
0.00137626
0.00137614
0.00137597
0.00137536
0.0011825
0.00122087
0.00126159
0.0013019
0.00133434
0.00135723
0.00137028
0.00137481
0.0013761
0.00137595
0.00137499
0.00137458
0.00137468
0.00137447
0.00137392
0.00137305
0.0013728
0.00137281
0.00137219
0.00137173
0.00137107
0.00137093
0.00137142
0.001371
0.001371
0.00137197
0.00137244
0.00137268
0.00137319
0.00137379
0.00137458
0.00137535
0.00137613
0.0013769
0.00137767
0.00137817
0.00137864
0.00137915
0.00137949
0.00137916
0.00137905
0.00137892
0.00137907
0.00137911
0.0013792
0.00137929
0.00137921
0.00137856
0.00137844
0.0013787
0.00137874
0.0013785
0.00137769
0.00137761
0.00137836
0.00137825
0.00137807
0.00137851
0.00137892
0.00137873
0.00137869
0.00137847
0.00137823
0.00137785
0.00137727
0.00137718
0.00137737
0.00137749
0.00137732
0.00137712
0.00137697
0.00137652
0.00137643
0.00137622
0.00137652
0.00137693
0.0013764
0.00137658
0.00137671
0.00137659
0.00137654
0.00137642
0.00137636
0.00137602
0.00137584
0.00137525
0.00137536
0.00137585
0.00137575
0.00137525
0.00118256
0.00122071
0.00126184
0.00130162
0.00133445
0.00135748
0.00136997
0.00137498
0.00137548
0.00137482
0.00137474
0.00137475
0.00137429
0.00137376
0.00137322
0.00137314
0.00137264
0.00137251
0.00137225
0.00137135
0.00137093
0.00137144
0.0013717
0.00137137
0.0013714
0.00137164
0.00137178
0.00137196
0.00137192
0.00137265
0.00137352
0.00137413
0.00137507
0.00137602
0.00137704
0.00137799
0.0013788
0.00137952
0.0013801
0.00138027
0.00138014
0.00138012
0.00138012
0.0013801
0.00138013
0.00138005
0.0013797
0.00137869
0.00137803
0.00137807
0.00137826
0.001378
0.00137735
0.00137731
0.00137856
0.00137883
0.00137859
0.0013782
0.00137829
0.00137889
0.00137872
0.00137855
0.00137786
0.00137781
0.00137801
0.00137767
0.00137759
0.00137773
0.00137766
0.00137743
0.0013769
0.00137682
0.00137708
0.00137695
0.00137696
0.00137706
0.00137693
0.0013767
0.0013762
0.00137621
0.00137668
0.00137648
0.00137667
0.00137682
0.00137676
0.00137674
0.0013765
0.00137646
0.0013762
0.00137526
0.00118252
0.00122092
0.00126152
0.00130159
0.00133495
0.00135759
0.00136959
0.00137327
0.00137341
0.00137296
0.00137286
0.0013732
0.00137272
0.00137255
0.00137221
0.00137167
0.00137115
0.00137108
0.00137108
0.00137029
0.00136992
0.00137063
0.00137147
0.00137125
0.00137092
0.00137112
0.00137161
0.00137126
0.00137176
0.00137264
0.00137338
0.00137421
0.00137493
0.00137593
0.00137678
0.00137759
0.00137818
0.00137891
0.00137936
0.00137935
0.00137925
0.00137937
0.00137946
0.00137912
0.00137904
0.00137895
0.00137836
0.00137846
0.00137872
0.00137837
0.00137804
0.00137807
0.00137818
0.00137798
0.0013777
0.00137771
0.00137773
0.00137753
0.00137734
0.00137651
0.00137626
0.00137677
0.00137689
0.00137662
0.00137599
0.00137588
0.00137635
0.00137609
0.00137635
0.00137652
0.00137643
0.00137636
0.00137578
0.00137562
0.00137593