/*--------------------------------*- C++ -*----------------------------------*\
  =========                 |
  \\      /  F ield         | OpenFOAM: The Open Source CFD Toolbox
   \\    /   O peration     | Website:  https://openfoam.org
    \\  /    A nd           | Version:  11
     \\/     M anipulation  |
\*---------------------------------------------------------------------------*/
FoamFile
{
    format      ascii;
    class       volScalarField;
    location    "0.088";
    object      omega;
}
// * * * * * * * * * * * * * * * * * * * * * * * * * * * * * * * * * * * * * //

dimensions      [0 0 -1 0 0 0 0];

internalField   nonuniform List<scalar> 
287084
(
55.0116
55.8983
56.8255
57.7086
58.4075
58.8551
59.0636
59.1078
59.1081
59.1103
59.1078
59.1004
59.104
59.1165
59.1132
59.1165
59.1209
59.1203
59.1217
59.1204
59.1176
59.1087
59.1093
59.1306
59.1336
59.1323
59.1318
59.1228
59.1207
59.126
59.134
59.1316
59.1215
59.125
59.1266
59.1226
59.1223
59.1212
59.1206
59.1168
59.1081
59.1046
59.0977
59.0945
59.0893
59.0863
59.0838
59.0797
59.0769
59.0727
59.0603
59.0609
59.075
59.0749
59.0766
59.0737
59.0722
59.0711
59.0659
59.0595
59.0651
59.0712
59.0688
59.0606
59.0639
59.086
59.0871
59.0838
59.0729
59.0747
59.081
59.0816
59.0817
59.0696
59.0727
59.0836
59.0769
59.0829
59.0869
59.0869
59.0869
59.0771
59.0742
59.0853
59.0946
59.0927
59.093
59.0935
59.0913
59.0722
55.0128
55.8981
56.8133
57.6912
58.3935
58.8538
59.0752
59.1228
59.1187
59.1277
59.1457
59.137
59.1429
59.1481
59.1482
59.1482
59.1435
59.1337
59.1326
59.1342
59.1301
59.127
59.138
59.1606
59.1556
59.1617
59.165
59.1604
59.1599
59.1608
59.1595
59.1453
59.1386
59.1372
59.129
59.1336
59.1363
59.1344
59.1334
59.1206
59.1234
59.127
59.1257
59.1254
59.1205
59.1183
59.1051
59.1052
59.1165
59.1177
59.1182
59.1152
59.113
59.111
59.1101
59.1056
59.0987
59.0951
59.093
59.0906
59.0878
59.0833
59.0939
59.1036
59.1033
59.1031
59.0929
59.0992
59.1086
59.1072
59.1049
59.1
59.1059
59.1073
59.1107
59.115
59.1119
59.1126
59.1114
59.0995
59.1019
59.1075
59.1032
59.1028
59.0993
59.0995
59.0987
59.1002
59.1001
59.091
55.013
55.8979
56.8105
57.6929
58.3895
58.843
59.0782
59.1419
59.1432
59.1449
59.1447
59.1363
59.1393
59.1442
59.1411
59.1407
59.1327
59.1408
59.1549
59.1566
59.1543
59.1492
59.1444
59.1532
59.1646
59.164
59.1623
59.1611
59.1614
59.1555
59.1563
59.156
59.157
59.1533
59.1513
59.1505
59.1507
59.1493
59.1425
59.1375
59.1318
59.114
59.1129
59.1205
59.1203
59.1181
59.1136
59.1062
59.1108
59.1188
59.1127
59.1122
59.1126
59.1127
59.1121
59.1113
59.1077
59.0999
59.0974
59.0944
59.0844
59.0892
59.0983
59.0969
59.0967
59.088
59.0973
59.1132
59.1069
59.111
59.1126
59.1096
59.1096
59.1104
59.1107
59.1071
59.1051
59.0929
59.0945
59.098
59.0955
59.09
59.0905
59.101
59.0941
59.1007
59.1077
59.1079
59.1078
59.0912
55.0119
55.8966
56.8137
57.6905
58.3835
58.8389
59.0774
59.1487
59.1521
59.1443
59.1433
59.1546
59.1581
59.1559
59.153
59.1463
59.1445
59.1391
59.1455
59.1556
59.1489
59.1495
59.1487
59.1396
59.1425
59.1488
59.1491
59.149
59.1381
59.1338
59.1466
59.1555
59.1479
59.1527
59.1548
59.154
59.154
59.1519
59.1511
59.1459
59.1455
59.1424
59.1396
59.1362
59.1304
59.114
59.1102
59.111
59.1128
59.1128
59.0997
59.1021
59.1065
59.1012
59.101
59.1033
59.1043
59.1015
59.0918
59.0946
59.107
59.1046
59.1042
59.1022
59.1019
59.0987
59.0991
59.098
59.0922
59.0996
59.1118
59.1079
59.1085
59.1091
59.1084
59.0971
59.0968
59.1089
59.1063
59.1121
59.1182
59.1156
59.1067
59.1068
59.1119
59.1108
59.1108
59.1093
59.1076
59.0924
55.0115
55.8964
56.8155
57.6845
58.385
58.8459
59.0614
59.1441
59.1515
59.1509
59.1506
59.1391
59.144
59.149
59.1439
59.1453
59.1428
59.1324
59.1351
59.1416
59.1422
59.1423
59.1313
59.1388
59.1517
59.1471
59.1476
59.1475
59.1421
59.1458
59.1519
59.1431
59.1468
59.1494
59.1484
59.1478
59.1398
59.1302
59.1348
59.1401
59.1354
59.1384
59.1388
59.1363
59.1368
59.1341
59.133
59.1332
59.1334
59.1303
59.1236
59.1189
59.1161
59.1103
59.1069
59.1043
59.0995
59.0832
59.0813
59.0928
59.0966
59.094
59.0876
59.0875
59.0844
59.0822
59.0763
59.081
59.0931
59.0935
59.0935
59.0845
59.0918
59.1121
59.1057
59.1126
59.1185
59.1084
59.1118
59.1167
59.1102
59.1143
59.1156
59.1123
59.106
59.0981
59.1033
59.1068
59.1036
59.0928
55.0118
55.8966
56.8115
57.6872
58.3925
58.8389
59.05
59.1143
59.1472
59.1468
59.1384
59.1419
59.144
59.1423
59.1416
59.1291
59.1277
59.14
59.1424
59.1457
59.1464
59.1433
59.1361
59.1321
59.1397
59.142
59.1344
59.1356
59.1522
59.155
59.1488
59.1529
59.1545
59.1523
59.1518
59.1465
59.1417
59.1244
59.1226
59.1281
59.1204
59.1239
59.1278
59.1252
59.1251
59.1229
59.1198
59.1071
59.1024
59.1056
59.1105
59.1085
59.1043
59.0996
59.1021
59.108
59.1081
59.1081
59.1039
59.1022
59.1003
59.0973
59.0999
59.1013
59.0986
59.0899
59.0922
59.1062
59.1014
59.1083
59.1134
59.1132
59.1132
59.1074
59.1062
59.0957
59.0981
59.1091
59.1027
59.1085
59.1118
59.1097
59.1074
59.0994
59.0989
59.0985
59.1064
59.1108
59.1077
59.0969
55.0111
55.8957
56.8126
57.6854
58.3959
58.8307
59.0566
59.1321
59.1368
59.1362
59.1361
59.1306
59.1252
59.1363
59.1449
59.1404
59.1534
59.174
59.1734
59.1724
59.1764
59.1801
59.1779
59.1746
59.1676
59.167
59.1643
59.1665
59.1674
59.1656
59.1661
59.1638
59.1597
59.1483
59.1455
59.1475
59.1476
59.1451
59.1318
59.1295
59.1336
59.1348
59.1325
59.1255
59.1258
59.1237
59.12
59.1188
59.1182
59.1156
59.1123
59.1015
59.0983
59.1012
59.1051
59.103
59.1005
59.1
59.0887
59.0938
59.1033
59.101
59.1008
59.1012
59.1009
59.0878
59.0907
59.0995
59.099
59.0989
59.0895
59.0934
59.1
59.0985
59.0939
59.0962
59.1055
59.1015
59.1026
59.1022
59.0983
59.0943
59.1034
59.1093
59.1087
59.1086
59.0975
59.1011
59.1061
59.0942
55.0127
55.8926
56.8169
57.6909
58.3749
58.8306
59.075
59.1718
59.1861
59.184
59.1748
59.1771
59.1841
59.1782
59.1776
59.1755
59.1812
59.1839
59.1807
59.1726
59.1689
59.1722
59.1681
59.174
59.181
59.1759
59.1798
59.1811
59.1781
59.1778
59.1765
59.1769
59.1748
59.1737
59.1718
59.1694
59.167
59.1603
59.1391
59.1377
59.1422
59.1392
59.139
59.1399
59.139
59.1288
59.1252
59.1239
59.1195
59.1188
59.1186
59.116
59.1077
59.113
59.1193
59.1167
59.1076
59.1081
59.115
59.1094
59.1145
59.12
59.1178
59.1184
59.1191
59.1193
59.1143
59.1047
59.1011
59.0912
59.091
59.1086
59.1138
59.1127
59.1118
59.1009
59.1026
59.1164
59.1196
59.1178
59.1165
59.1158
59.1031
59.1009
59.108
59.1128
59.1106
59.1095
59.109
59.0942
55.0118
55.8954
56.8113
57.6908
58.3849
58.8344
59.0633
59.1347
59.139
59.137
59.1358
59.126
59.1358
59.1588
59.1509
59.157
59.1629
59.1519
59.1548
59.1715
59.1674
59.1749
59.1818
59.1684
59.1702
59.1793
59.1714
59.1764
59.1831
59.1754
59.1802
59.1824
59.1807
59.1803
59.1746
59.1726
59.1661
59.1621
59.1571
59.1469
59.1346
59.1295
59.1261
59.1163
59.1198
59.1271
59.1154
59.1197
59.1284
59.1256
59.1256
59.123
59.121
59.1196
59.1195
59.1163
59.1031
59.0966
59.1006
59.1054
59.1027
59.0909
59.0953
59.1061
59.1007
59.1011
59.1018
59.1006
59.0924
59.0907
59.1089
59.1178
59.1149
59.1155
59.1138
59.1119
59.0998
59.0992
59.1115
59.1086
59.1162
59.1233
59.1234
59.1234
59.1185
59.118
59.1141
59.1132
59.1087
59.0938
55.0159
55.8886
56.8129
57.6926
58.3848
58.8353
59.0598
59.1165
59.1178
59.1159
59.1248
59.1452
59.1449
59.1441
59.1333
59.1358
59.1446
59.1506
59.1545
59.1526
59.1525
59.1464
59.1463
59.142
59.149
59.1558
59.1542
59.1519
59.1493
59.1551
59.1534
59.156
59.1563
59.1538
59.1535
59.1514
59.1482
59.1424
59.1393
59.1362
59.1271
59.1304
59.1317
59.1305
59.1303
59.126
59.1179
59.111
59.1081
59.1034
59.0924
59.086
59.0869
59.0907
59.0886
59.078
59.0807
59.0823
59.0712
59.0701
59.0902
59.1026
59.0986
59.1
59.1009
59.0991
59.0943
59.0855
59.0905
59.1034
59.103
59.1035
59.1011
59.0907
59.0902
59.0918
59.0821
59.082
59.1022
59.1097
59.1092
59.109
59.0967
59.1012
59.1144
59.1084
59.1126
59.1147
59.1111
59.0981
55.0132
55.8938
56.8131
57.6877
58.384
58.839
59.0649
59.1218
59.1174
59.1226
59.1351
59.1327
59.1325
59.1286
59.1314
59.1337
59.1313
59.1384
59.1515
59.1525
59.1712
59.1769
59.1749
59.1718
59.1635
59.161
59.1536
59.1559
59.1674
59.1674
59.1644
59.1532
59.1509
59.1549
59.1492
59.1547
59.1569
59.1475
59.1504
59.1543
59.1532
59.1527
59.1461
59.1421
59.137
59.1279
59.1058
59.0948
59.0993
59.101
59.0922
59.0955
59.102
59.0996
59.0999
59.0996
59.0997
59.0978
59.0948
59.0851
59.0909
59.099
59.0971
59.0936
59.0884
59.0961
59.1006
59.0983
59.0943
59.0875
59.0926
59.096
59.0869
59.0904
59.1036
59.1042
59.1047
59.103
59.094
59.0971
59.1044
59.0943
59.0973
59.1137
59.1167
59.1151
59.1136
59.1111
59.1075
59.0966
55.0109
55.8962
56.8124
57.688
58.3865
58.8323
59.0647
59.1454
59.151
59.15
59.1497
59.1432
59.1405
59.1574
59.1681
59.1606
59.1654
59.1679
59.1664
59.1621
59.1615
59.1776
59.1802
59.1776
59.1694
59.168
59.1799
59.1831
59.1825
59.1811
59.1797
59.1783
59.1768
59.1767
59.1765
59.1726
59.1722
59.172
59.171
59.1637
59.1551
59.1474
59.1407
59.1267
59.1127
59.1038
59.1019
59.0999
59.0992
59.0962
59.0877
59.0842
59.0919
59.0936
59.1006
59.1055
59.0974
59.1016
59.1071
59.1025
59.1022
59.1023
59.1004
59.0864
59.09
59.1055
59.1065
59.1065
59.0977
59.0946
59.1057
59.1116
59.1086
59.1007
59.0972
59.1058
59.1086
59.1057
59.0987
59.095
59.1034
59.1093
59.107
59.0995
59.1035
59.1135
59.1119
59.1118
59.1098
59.0963
55.0133
55.891
56.8192
57.6886
58.3741
58.8327
59.079
59.1506
59.1483
59.1493
59.1593
59.1599
59.1625
59.1633
59.1604
59.1574
59.1685
59.1859
59.1877
59.1855
59.1744
59.1797
59.1864
59.1764
59.1809
59.1936
59.183
59.1878
59.1943
59.1848
59.1884
59.1908
59.1891
59.1886
59.1839
59.1737
59.166
59.1618
59.1587
59.1546
59.1458
59.1411
59.1381
59.1353
59.1309
59.122
59.1177
59.1055
59.1081
59.1151
59.1135
59.112
59.112
59.1122
59.1093
59.1037
59.0997
59.0981
59.0979
59.0958
59.0926
59.0965
59.0946
59.1026
59.1095
59.1095
59.1095
59.1053
59.1042
59.0936
59.0912
59.1043
59.1093
59.1083
59.1079
59.0967
59.101
59.1155
59.1148
59.1127
59.1041
59.102
59.1078
59.1132
59.111
59.1065
59.1042
59.1023
59.0997
59.0928
55.0129
55.8949
56.8095
57.688
58.3951
58.8304
59.0557
59.1191
59.1135
59.1147
59.122
59.1139
59.1183
59.129
59.1283
59.124
59.1243
59.1366
59.1453
59.1574
59.1565
59.1544
59.1499
59.1554
59.1807
59.1847
59.1707
59.1736
59.1819
59.1745
59.1777
59.1816
59.1778
59.1773
59.1767
59.1734
59.1672
59.1522
59.1427
59.1373
59.1256
59.1203
59.1209
59.1208
59.1227
59.1225
59.1195
59.1109
59.1144
59.1188
59.1184
59.1184
59.1145
59.1056
59.1019
59.0976
59.0978
59.0985
59.0908
59.0976
59.1026
59.0999
59.0943
59.0897
59.0937
59.0983
59.0962
59.0925
59.0907
59.0843
59.0899
59.107
59.1084
59.109
59.1077
59.107
59.103
59.0958
59.0944
59.091
59.0899
59.1055
59.1236
59.1214
59.1213
59.1209
59.1126
59.1127
59.1141
59.1023
55.0127
55.8929
56.8161
57.692
58.3736
58.8284
59.0812
59.1597
59.1589
59.1621
59.1713
59.1632
59.1629
59.1698
59.1671
59.1708
59.1722
59.172
59.1742
59.1722
59.1668
59.1698
59.1857
59.1867
59.184
59.1926
59.1998
59.1878
59.1924
59.1953
59.1842
59.1881
59.1889
59.1816
59.1831
59.183
59.1807
59.1789
59.1729
59.1643
59.1573
59.1488
59.1295
59.1148
59.1048
59.1011
59.099
59.0962
59.0966
59.0998
59.0997
59.0962
59.0876
59.0843
59.091
59.0889
59.0951
59.1046
59.1058
59.1036
59.0928
59.09
59.1009
59.1085
59.1068
59.1013
59.1071
59.1147
59.1145
59.1143
59.1005
59.1026
59.107
59.1062
59.106
59.0941
59.1008
59.1129
59.112
59.1119
59.107
59.1061
59.0974
59.1027
59.1103
59.1095
59.1095
59.1047
59.1023
59.0898
55.0111
55.8988
56.8137
57.682
58.3909
58.8292
59.0629
59.143
59.1516
59.1491
59.1399
59.141
59.1465
59.145
59.1386
59.1401
59.1563
59.1607
59.1592
59.1534
59.1552
59.1574
59.1542
59.1628
59.1724
59.1616
59.1664
59.1787
59.1777
59.1775
59.1748
59.1728
59.1561
59.1552
59.156
59.1487
59.1477
59.1469
59.147
59.1457
59.1456
59.143
59.1404
59.1372
59.1365
59.1342
59.1302
59.1209
59.1161
59.1059
59.0868
59.0892
59.097
59.0956
59.0942
59.0859
59.087
59.0871
59.0942
59.127
59.1325
59.1295
59.1212
59.1188
59.1196
59.1096
59.1139
59.1239
59.1186
59.122
59.1235
59.1217
59.1205
59.1187
59.117
59.1142
59.1003
59.1017
59.1061
59.105
59.1049
59.0972
59.1082
59.1161
59.1135
59.1037
59.1047
59.1088
59.1067
59.0986
55.012
55.8943
56.8154
57.6933
58.3745
58.8215
59.0779
59.1793
59.1909
59.1885
59.1791
59.1777
59.1852
59.1808
59.1824
59.1907
59.1937
59.1923
59.1899
59.1821
59.1852
59.1934
59.1928
59.1928
59.1843
59.1851
59.1853
59.1892
59.1933
59.1881
59.1913
59.1916
59.1891
59.1892
59.1863
59.1842
59.1813
59.178
59.1724
59.1673
59.163
59.1558
59.1394
59.1256
59.1163
59.1115
59.1081
59.1059
59.102
59.0942
59.0771
59.0781
59.0852
59.085
59.085
59.0776
59.0909
59.1076
59.1072
59.1092
59.1076
59.1054
59.0965
59.1018
59.1071
59.0994
59.1006
59.1104
59.1111
59.1099
59.1098
59.1055
59.0984
59.1042
59.1135
59.1136
59.1137
59.1111
59.1103
59.0983
59.0987
59.1125
59.1164
59.1144
59.1122
59.1098
59.1058
59.1042
59.1031
59.0922
55.0121
55.8947
56.813
57.6958
58.3728
58.8235
59.0836
59.1704
59.172
59.1799
59.1922
59.1935
59.1911
59.1801
59.1766
59.18
59.182
59.1781
59.1831
59.1901
59.1815
59.1875
59.2012
59.1907
59.1935
59.2096
59.2102
59.2085
59.2054
59.204
59.2024
59.2023
59.1969
59.1949
59.1942
59.1935
59.1893
59.1838
59.1736
59.1609
59.1525
59.145
59.1347
59.1273
59.122
59.1175
59.1094
59.0876
59.0811
59.093
59.0989
59.0999
59.0979
59.095
59.0866
59.0916
59.1049
59.0953
59.0929
59.0981
59.0946
59.0978
59.1166
59.1199
59.1187
59.1203
59.1197
59.1183
59.1143
59.1039
59.0985
59.111
59.1238
59.1217
59.1222
59.1197
59.1217
59.1223
59.1163
59.1158
59.1155
59.1133
59.1005
59.1043
59.1121
59.1115
59.1114
59.1069
59.1044
59.0908
55.0125
55.893
56.8177
57.6911
58.3735
58.8283
59.0746
59.1705
59.1801
59.1739
59.171
59.1706
59.1701
59.1723
59.1808
59.181
59.1766
59.1763
59.1727
59.1821
59.1949
59.1939
59.1923
59.1885
59.19
59.189
59.1894
59.1861
59.1892
59.1896
59.1862
59.185
59.1826
59.182
59.1793
59.1699
59.1508
59.136
59.134
59.1358
59.1351
59.1348
59.133
59.1302
59.1289
59.1288
59.1284
59.1224
59.1094
59.0832
59.0808
59.0889
59.092
59.0898
59.0843
59.079
59.089
59.105
59.0949
59.095
59.103
59.0974
59.099
59.1177
59.1217
59.1184
59.1068
59.1047
59.1082
59.0976
59.0982
59.1059
59.1004
59.0975
59.1076
59.1136
59.1121
59.1115
59.1018
59.1077
59.1171
59.1125
59.1136
59.1139
59.1132
59.1053
59.1028
59.1019
59.0991
59.0883
55.0087
55.8993
56.8151
57.6878
58.3777
58.834
59.0736
59.1495
59.1539
59.1456
59.145
59.1496
59.1487
59.1511
59.1549
59.1536
59.1448
59.1491
59.1665
59.1663
59.1667
59.1626
59.1673
59.1959
59.2083
59.2002
59.206
59.2086
59.2022
59.2008
59.1987
59.1986
59.1979
59.1961
59.1927
59.1893
59.1831
59.1773
59.1702
59.1642
59.1542
59.1468
59.1395
59.1294
59.1225
59.1082
59.0977
59.0893
59.0863
59.0822
59.0728
59.0673
59.0883
59.1155
59.1105
59.1097
59.1242
59.14
59.1392
59.1372
59.1318
59.1306
59.1292
59.1174
59.1179
59.1239
59.1227
59.1227
59.1223
59.1221
59.1128
59.1185
59.1256
59.1248
59.1247
59.1194
59.1189
59.1154
59.1112
59.1096
59.106
59.1089
59.1105
59.1021
59.1038
59.1044
59.1019
59.1023
59.099
59.0857
55.0125
55.8953
56.8126
57.6871
58.386
58.8415
59.0568
59.1046
59.1033
59.1134
59.1387
59.1383
59.1383
59.1376
59.1298
59.1349
59.149
59.1466
59.1471
59.1444
59.1569
59.1945
59.1918
59.2
59.2112
59.2079
59.2088
59.2075
59.2052
59.2039
59.2044
59.202
59.2002
59.1982
59.1943
59.1836
59.1657
59.1553
59.1492
59.1443
59.1402
59.1369
59.1337
59.1307
59.1245
59.1102
59.1002
59.0953
59.0811
59.0822
59.0893
59.0828
59.0869
59.0894
59.0875
59.0866
59.0765
59.0756
59.0807
59.0798
59.072
59.0753
59.0822
59.0804
59.0803
59.071
59.0771
59.0846
59.0846
59.0835
59.0838
59.0984
59.11
59.1162
59.1137
59.1138
59.1133
59.1126
59.1094
59.099
59.1028
59.1117
59.1096
59.1098
59.1094
59.108
59.0987
59.0895
59.0871
59.0826
55.0135
55.8905
56.82
57.688
58.3745
58.8331
59.0787
59.1618
59.1679
59.1668
59.1665
59.1575
59.1599
59.1762
59.1784
59.1736
59.1775
59.1796
59.1776
59.1745
59.1718
59.1858
59.1952
59.201
59.2091
59.2021
59.2019
59.1994
59.204
59.2046
59.2023
59.2017
59.1978
59.1918
59.1848
59.18
59.1713
59.1649
59.1591
59.1549
59.149
59.1443
59.1388
59.1343
59.1313
59.1266
59.1172
59.1007
59.0822
59.0804
59.0811
59.0797
59.073
59.0765
59.1076
59.1123
59.1064
59.1074
59.1166
59.1157
59.123
59.1266
59.1153
59.1186
59.1295
59.1297
59.1297
59.1304
59.1306
59.1256
59.1244
59.1166
59.1105
59.1117
59.1102
59.1186
59.1314
59.1201
59.1227
59.1344
59.1336
59.1359
59.1363
59.1347
59.1342
59.1312
59.1242
59.1216
59.116
59.0965
55.0124
55.8935
56.8148
57.6943
58.3711
58.8312
59.0808
59.1597
59.1832
59.1849
59.1711
59.1746
59.1812
59.1795
59.1795
59.1718
59.1796
59.1889
59.1803
59.1844
59.2009
59.2017
59.1989
59.204
59.218
59.2089
59.2143
59.2193
59.2136
59.2132
59.2115
59.2106
59.21
59.207
59.2021
59.1928
59.1811
59.1722
59.1622
59.1397
59.1246
59.1193
59.1104
59.1067
59.1046
59.1029
59.0999
59.0867
59.0881
59.0974
59.0967
59.0946
59.0824
59.0819
59.1056
59.1315
59.1307
59.1236
59.1287
59.1372
59.1372
59.1372
59.1308
59.13
59.1239
59.1263
59.1275
59.1241
59.124
59.1233
59.1152
59.1191
59.1313
59.1199
59.1214
59.1358
59.137
59.1345
59.1216
59.1209
59.125
59.1145
59.1187
59.1259
59.1263
59.1263
59.1195
59.1188
59.1143
59.099
55.0132
55.8958
56.8073
57.6944
58.3843
58.8346
59.062
59.1278
59.1304
59.123
59.1263
59.134
59.1327
59.1338
59.1297
59.1416
59.1546
59.1563
59.1781
59.1996
59.2088
59.2072
59.2009
59.2032
59.2041
59.2015
59.1933
59.1967
59.2028
59.1975
59.1983
59.1977
59.1946
59.188
59.1865
59.183
59.18
59.1747
59.1622
59.1456
59.1363
59.1181
59.1068
59.1029
59.1002
59.0964
59.0844
59.0866
59.0894
59.0825
59.0842
59.0845
59.0768
59.0803
59.0826
59.0784
59.0768
59.075
59.0713
59.0789
59.0887
59.0854
59.0851
59.0832
59.0961
59.1121
59.1127
59.1114
59.1108
59.1034
59.0979
59.1007
59.1022
59.1043
59.1122
59.1108
59.1094
59.1083
59.0994
59.1041
59.112
59.1102
59.108
59.1036
59.0974
59.1012
59.1137
59.1132
59.112
59.0978
55.0105
55.8959
56.8172
57.6849
58.3821
58.8327
59.0737
59.1539
59.162
59.1611
59.1628
59.1606
59.154
59.1607
59.1695
59.1688
59.169
59.1586
59.1627
59.1778
59.175
59.1752
59.1734
59.1835
59.194
59.1836
59.1865
59.2069
59.2101
59.2079
59.2073
59.2036
59.1961
59.1917
59.1851
59.1782
59.1721
59.1659
59.1605
59.1561
59.1474
59.1392
59.1332
59.1285
59.1193
59.1083
59.0971
59.0914
59.0888
59.0836
59.0688
59.0654
59.0819
59.0885
59.0858
59.0864
59.0869
59.0849
59.072
59.0671
59.0747
59.0901
59.0905
59.0779
59.0782
59.0949
59.1
59.0993
59.099
59.0902
59.0872
59.0884
59.0813
59.0852
59.0966
59.0958
59.0897
59.0908
59.0999
59.1014
59.1015
59.0916
59.0945
59.0973
59.0949
59.1058
59.1133
59.1126
59.1122
59.0946
55.0131
55.8915
56.8185
57.6896
58.3737
58.8334
59.0802
59.1522
59.1508
59.1543
59.1666
59.1678
59.1663
59.1744
59.1853
59.1767
59.1835
59.1953
59.1847
59.1907
59.2008
59.1892
59.188
59.1978
59.1981
59.207
59.2172
59.2085
59.212
59.2162
59.2146
59.2142
59.211
59.2092
59.2025
59.1882
59.1732
59.1637
59.1543
59.1465
59.1406
59.1353
59.1319
59.1292
59.1268
59.124
59.1185
59.107
59.0875
59.0758
59.0775
59.0785
59.077
59.0727
59.0796
59.0872
59.0859
59.0848
59.0736
59.0763
59.0839
59.0824
59.0802
59.0799
59.0773
59.0854
59.0987
59.0966
59.0975
59.0948
59.0951
59.095
59.0918
59.086
59.0976
59.1095
59.1075
59.0995
59.0999
59.1078
59.108
59.1078
59.1031
59.095
59.0997
59.1062
59.1033
59.1033
59.1001
59.0893
55.0121
55.8947
56.8129
57.6961
58.3726
58.8249
59.0813
59.179
59.1889
59.1864
59.186
59.1846
59.1737
59.1727
59.1831
59.1849
59.1821
59.1864
59.1948
59.1864
59.1931
59.2067
59.1958
59.1959
59.2067
59.2052
59.2124
59.2154
59.2084
59.2097
59.2119
59.2096
59.2079
59.2073
59.2033
59.1953
59.1852
59.1735
59.1644
59.1575
59.1518
59.1475
59.1422
59.1389
59.134
59.1229
59.1178
59.1073
59.1021
59.1003
59.0978
59.0931
59.0804
59.0896
59.1199
59.1313
59.138
59.1343
59.1378
59.1389
59.1357
59.1249
59.1278
59.1347
59.1254
59.1284
59.1323
59.1311
59.1305
59.129
59.1277
59.1249
59.1141
59.1162
59.1182
59.1134
59.1122
59.1102
59.1065
59.1119
59.1218
59.1202
59.118
59.1055
59.1072
59.1156
59.1158
59.1159
59.113
59.1008
55.0124
55.8935
56.8148
57.6943
58.371
58.8311
59.0809
59.1599
59.1834
59.1852
59.1709
59.1713
59.1814
59.1847
59.1827
59.1736
59.1795
59.1892
59.185
59.1848
59.1811
59.1865
59.2034
59.1979
59.2
59.2197
59.2236
59.2202
59.2201
59.2189
59.2179
59.2149
59.2101
59.2053
59.1998
59.1892
59.1796
59.1721
59.1624
59.14
59.1259
59.1138
59.1099
59.1078
59.108
59.1078
59.1021
59.0884
59.0893
59.0956
59.0962
59.0962
59.0827
59.0862
59.1075
59.1052
59.1049
59.1208
59.1312
59.1298
59.1297
59.1297
59.1294
59.1213
59.1121
59.114
59.1183
59.1223
59.1227
59.12
59.1157
59.1103
59.1126
59.1091
59.1166
59.1257
59.1156
59.1203
59.1234
59.1211
59.1211
59.1189
59.1165
59.1093
59.1058
59.0958
59.1002
59.111
59.1086
59.0986
55.0136
55.8903
56.8202
57.6878
58.3742
58.8356
59.0737
59.1628
59.1707
59.1612
59.1657
59.1727
59.1711
59.166
59.1653
59.1772
59.1752
59.1815
59.1849
59.1757
59.1765
59.1956
59.2052
59.2031
59.2041
59.2051
59.2062
59.2027
59.191
59.1935
59.1956
59.1916
59.1926
59.1897
59.1879
59.1874
59.1869
59.1839
59.1784
59.1668
59.152
59.1422
59.1347
59.1288
59.1254
59.1209
59.1119
59.0893
59.0798
59.084
59.0902
59.0878
59.0766
59.0813
59.1128
59.1193
59.1177
59.1125
59.1196
59.1353
59.1353
59.1344
59.1213
59.1237
59.1306
59.1261
59.1266
59.1299
59.1305
59.1274
59.1175
59.1191
59.1266
59.1251
59.1253
59.1259
59.1259
59.1209
59.1116
59.1148
59.1264
59.1225
59.1261
59.1294
59.1283
59.1281
59.1228
59.1204
59.1153
59.0979
55.013
55.8946
56.8126
57.6885
58.3853
58.8365
59.0624
59.1229
59.1248
59.1208
59.1252
59.14
59.1373
59.1411
59.1422
59.1395
59.1383
59.1485
59.1571
59.15
59.1512
59.176
59.1975
59.1965
59.1905
59.1936
59.1996
59.1848
59.1864
59.1926
59.1908
59.1907
59.1863
59.1855
59.1855
59.184
59.1749
59.1714
59.1646
59.1497
59.1359
59.1294
59.1235
59.11
59.1046
59.1012
59.089
59.0922
59.0985
59.091
59.0868
59.0912
59.0964
59.0957
59.093
59.0968
59.0999
59.0987
59.0976
59.081
59.0808
59.0973
59.1007
59.0976
59.0861
59.0879
59.1015
59.0967
59.1036
59.1081
59.1077
59.1076
59.0948
59.0943
59.1056
59.101
59.1049
59.1149
59.1038
59.1032
59.116
59.1217
59.1208
59.1202
59.1108
59.1087
59.1178
59.1197
59.1166
59.1028
55.0116
55.8984
56.813
57.6826
58.3916
58.8292
59.0618
59.1428
59.1487
59.142
59.1478
59.1508
59.1491
59.1489
59.14
59.1467
59.1506
59.1579
59.166
59.1641
59.1654
59.1617
59.1785
59.201
59.2028
59.2004
59.1992
59.1984
59.1832
59.1845
59.1849
59.1825
59.182
59.1784
59.1774
59.1736
59.1663
59.1598
59.1545
59.1491
59.1421
59.137
59.1322
59.1284
59.1257
59.1209
59.1094
59.1064
59.0997
59.1003
59.1008
59.0976
59.0922
59.0875
59.0856
59.0835
59.0803
59.0771
59.0943
59.1125
59.1119
59.1115
59.0997
59.1019
59.1089
59.1081
59.1082
59.1045
59.1057
59.1037
59.097
59.1011
59.1159
59.1155
59.114
59.1018
59.101
59.1135
59.1146
59.1109
59.1108
59.1106
59.0995
59.1024
59.1091
59.1065
59.1063
59.1042
59.1021
59.0875
55.0111
55.8988
56.8136
57.6821
58.391
58.8293
59.0643
59.1382
59.1411
59.1363
59.1391
59.1451
59.1438
59.1415
59.1335
59.1468
59.1684
59.1711
59.1692
59.1593
59.1678
59.1783
59.1784
59.1773
59.1817
59.1934
59.188
59.1931
59.1942
59.192
59.1913
59.1855
59.1792
59.1739
59.1639
59.156
59.15
59.1446
59.1406
59.1389
59.1392
59.1395
59.1374
59.1338
59.1248
59.1137
59.1065
59.1036
59.098
59.0843
59.0741
59.0753
59.0738
59.0777
59.1049
59.1185
59.1155
59.1179
59.1189
59.1166
59.1058
59.1083
59.1151
59.1099
59.1138
59.116
59.1131
59.105
59.1018
59.1125
59.1166
59.1112
59.1113
59.1114
59.1104
59.1067
59.1051
59.101
59.1068
59.1108
59.1053
59.1051
59.1008
59.1052
59.1074
59.1042
59.0938
59.0936
59.0994
59.0883
55.0123
55.8939
56.8144
57.6943
58.3725
58.8271
59.0809
59.1717
59.1796
59.1787
59.1799
59.1774
59.169
59.1734
59.1872
59.185
59.1851
59.1836
59.184
59.1805
59.1868
59.1904
59.1809
59.1857
59.2004
59.1902
59.1945
59.2025
59.1915
59.1958
59.1969
59.1942
59.1932
59.1865
59.1803
59.173
59.1683
59.1598
59.1542
59.1495
59.1451
59.1417
59.137
59.1312
59.1195
59.1007
59.0943
59.0919
59.0872
59.0949
59.1092
59.1022
59.1073
59.1099
59.1084
59.1079
59.1004
59.0959
59.1016
59.1036
59.102
59.101
59.1049
59.1069
59.1047
59.1015
59.0969
59.1013
59.1031
59.0988
59.0982
59.1099
59.1187
59.1247
59.1233
59.1223
59.1222
59.1149
59.1155
59.1116
59.1103
59.1091
59.0976
59.0994
59.1125
59.1153
59.1136
59.1125
59.1115
59.0949
55.0117
55.8952
56.8137
57.6964
58.3699
58.8254
59.0789
59.1714
59.1876
59.1857
59.1803
59.1758
59.1779
59.1769
59.1783
59.1828
59.183
59.1777
59.1849
59.2038
59.2003
59.2062
59.2086
59.1965
59.1986
59.2056
59.1995
59.2021
59.2024
59.2004
59.2002
59.1979
59.1971
59.1942
59.1894
59.1859
59.1794
59.1739
59.1688
59.1584
59.152
59.1484
59.1436
59.1333
59.1268
59.1231
59.1178
59.1149
59.1092
59.1049
59.0918
59.092
59.1054
59.108
59.1052
59.0951
59.0988
59.1094
59.1045
59.1077
59.1087
59.107
59.1082
59.1058
59.0965
59.0969
59.1083
59.1048
59.112
59.1272
59.1273
59.127
59.1199
59.1138
59.1222
59.1288
59.1217
59.1255
59.1267
59.1234
59.1254
59.123
59.1207
59.1207
59.1185
59.107
59.1004
59.0982
59.0978
59.0901
55.0096
55.897
56.8178
57.6862
58.3757
58.8381
59.0715
59.1452
59.1531
59.152
59.1512
59.139
59.1406
59.1439
59.1314
59.1317
59.1522
59.16
59.1583
59.1522
59.1547
59.1724
59.1876
59.1866
59.1743
59.1794
59.1842
59.183
59.1822
59.167
59.1681
59.17
59.1665
59.1598
59.156
59.1525
59.1456
59.1391
59.1393
59.1392
59.1369
59.1365
59.1332
59.1276
59.118
59.1063
59.1016
59.0962
59.0834
59.076
59.0854
59.0943
59.1002
59.0987
59.098
59.0979
59.0863
59.0838
59.0974
59.0995
59.1067
59.1163
59.1088
59.1086
59.1083
59.1028
59.1
59.1031
59.1014
59.1035
59.1038
59.1016
59.0996
59.1025
59.1043
59.0976
59.1021
59.1118
59.1099
59.1048
59.1029
59.1074
59.1014
59.1074
59.1121
59.1101
59.1038
59.1039
59.1069
59.0939
55.0126
55.8931
56.8161
57.6914
58.3753
58.8267
59.0774
59.1737
59.1877
59.1853
59.1748
59.1756
59.1837
59.179
59.1788
59.1779
59.1687
59.1675
59.1776
59.1791
59.1805
59.1814
59.178
59.1854
59.2024
59.1999
59.2011
59.2048
59.2037
59.1995
59.1914
59.1852
59.1819
59.176
59.1735
59.1701
59.1671
59.1662
59.1635
59.1595
59.1553
59.1494
59.1438
59.1321
59.1221
59.1176
59.1112
59.1074
59.1016
59.083
59.0825
59.0986
59.0995
59.0998
59.0998
59.0937
59.0967
59.1013
59.0949
59.0964
59.0938
59.0919
59.0868
59.0923
59.0991
59.0869
59.091
59.0996
59.0977
59.0929
59.0946
59.112
59.1103
59.1164
59.1187
59.1119
59.1139
59.1176
59.1166
59.115
59.1022
59.1002
59.107
59.1055
59.1078
59.1054
59.0951
59.0954
59.1
59.0891
55.0125
55.8945
56.8111
57.6899
58.387
58.8386
59.0572
59.1109
59.107
59.109
59.1324
59.1398
59.1393
59.1393
59.1279
59.1331
59.1511
59.1519
59.1502
59.1565
59.1731
59.1638
59.164
59.1768
59.1772
59.185
59.2027
59.2031
59.2029
59.2007
59.2003
59.1991
59.1984
59.1936
59.1831
59.1742
59.1686
59.1639
59.1555
59.1498
59.1462
59.1431
59.1378
59.135
59.1321
59.1261
59.1081
59.1055
59.1097
59.1023
59.1073
59.1101
59.1086
59.1075
59.0941
59.0912
59.0941
59.0944
59.0929
59.0862
59.0901
59.0968
59.0947
59.0871
59.0916
59.1065
59.1063
59.1043
59.1019
59.0989
59.0884
59.0857
59.0998
59.1062
59.105
59.1045
59.095
59.0971
59.0996
59.0963
59.0932
59.0919
59.0914
59.1011
59.1123
59.1011
59.1061
59.1127
59.1095
59.0973
55.0131
55.8916
56.8186
57.6891
58.3734
58.8361
59.0675
59.1696
59.1866
59.1867
59.1866
59.1804
59.1789
59.1751
59.1624
59.1634
59.1745
59.1655
59.1707
59.1811
59.1764
59.1755
59.1735
59.169
59.1741
59.187
59.1779
59.1835
59.1873
59.1859
59.1858
59.1833
59.1804
59.1774
59.1745
59.1721
59.1682
59.1604
59.1465
59.1403
59.1379
59.1337
59.1316
59.1288
59.1268
59.1252
59.119
59.1107
59.1092
59.1045
59.1086
59.1122
59.1117
59.1102
59.1121
59.114
59.1131
59.1127
59.1029
59.0988
59.0947
59.0935
59.0894
59.0927
59.0953
59.0908
59.0852
59.0897
59.0983
59.0922
59.09
59.1024
59.1129
59.1131
59.1131
59.0999
59.1041
59.1135
59.1138
59.1138
59.1077
59.1066
59.0978
59.1032
59.1105
59.1097
59.1097
59.1049
59.1026
59.0899
55.0109
55.8962
56.8124
57.688
58.3866
58.8323
59.0647
59.1447
59.1529
59.1522
59.1519
59.1445
59.1413
59.1562
59.1758
59.1689
59.1757
59.181
59.179
59.1814
59.1794
59.1768
59.1695
59.1728
59.1868
59.1855
59.1769
59.175
59.1838
59.1861
59.1855
59.1865
59.1845
59.1801
59.1791
59.1793
59.1783
59.1705
59.166
59.1568
59.1345
59.125
59.1224
59.1195
59.1108
59.112
59.1212
59.1213
59.1217
59.1174
59.1145
59.1148
59.1152
59.1131
59.1137
59.1121
59.1093
59.1078
59.1058
59.1011
59.085
59.0849
59.0895
59.0788
59.0785
59.0941
59.0978
59.095
59.0885
59.0852
59.1007
59.1104
59.1077
59.0997
59.0959
59.1061
59.1092
59.1066
59.1018
59.0939
59.1024
59.1203
59.1196
59.1186
59.1194
59.1168
59.1104
59.1057
59.1026
59.0934
55.0135
55.8935
56.8109
57.6886
58.3887
58.8426
59.0504
59.1033
59.107
59.1209
59.1385
59.1426
59.147
59.1382
59.1412
59.153
59.1486
59.1467
59.151
59.1553
59.1543
59.1522
59.1475
59.153
59.1722
59.1726
59.1711
59.1585
59.1582
59.1662
59.1568
59.1613
59.1654
59.1639
59.164
59.1624
59.16
59.1579
59.1553
59.1504
59.1504
59.148
59.1458
59.1442
59.1358
59.1281
59.1214
59.1075
59.09
59.0896
59.0907
59.0884
59.0861
59.0936
59.1059
59.1044
59.1022
59.0913
59.0937
59.1025
59.0965
59.0958
59.0958
59.0938
59.089
59.0902
59.0915
59.0828
59.0829
59.0949
59.0947
59.1033
59.1093
59.1024
59.1064
59.108
59.1049
59.0949
59.0962
59.1122
59.1077
59.1148
59.1218
59.1191
59.1187
59.1104
59.1153
59.1186
59.1145
59.0993
55.0114
55.896
56.8139
57.6852
58.3907
58.8297
59.0592
59.1346
59.1391
59.1362
59.1266
59.1261
59.1375
59.1341
59.1414
59.1467
59.1422
59.1383
59.1463
59.1668
59.1677
59.1647
59.1535
59.156
59.1641
59.1704
59.1717
59.1717
59.1716
59.157
59.1592
59.1611
59.1556
59.1555
59.1536
59.1519
59.1494
59.1465
59.1409
59.1395
59.1368
59.1344
59.1297
59.1266
59.1236
59.1168
59.0973
59.0912
59.0996
59.0957
59.0999
59.1103
59.1078
59.1094
59.1097
59.1076
59.1064
59.1044
59.1022
59.0971
59.0892
59.0935
59.1015
59.1039
59.1015
59.0923
59.0912
59.1101
59.1189
59.1107
59.1168
59.124
59.1197
59.122
59.1234
59.1213
59.1166
59.1072
59.1112
59.1188
59.1167
59.1091
59.1102
59.1156
59.1107
59.1103
59.1081
59.1092
59.1065
59.0946
55.0132
55.8946
56.8119
57.691
58.3828
58.8317
59.0657
59.1411
59.1455
59.1442
59.1438
59.1335
59.1325
59.1573
59.1664
59.1638
59.1642
59.1647
59.1645
59.1576
59.1664
59.188
59.1879
59.186
59.1855
59.182
59.1652
59.1649
59.1705