/*--------------------------------*- C++ -*----------------------------------*\
  =========                 |
  \\      /  F ield         | OpenFOAM: The Open Source CFD Toolbox
   \\    /   O peration     | Website:  https://openfoam.org
    \\  /    A nd           | Version:  11
     \\/     M anipulation  |
\*---------------------------------------------------------------------------*/
FoamFile
{
    format      ascii;
    class       volScalarField;
    location    "0.088";
    object      p;
}
// * * * * * * * * * * * * * * * * * * * * * * * * * * * * * * * * * * * * * //

dimensions      [0 2 -2 0 0 0 0];

internalField   nonuniform List<scalar> 
287084
(
1.68465
1.39782
1.34171
1.27143
1.20224
1.14917
1.09826
1.0513
1.00608
0.961715
0.917884
0.872992
0.828968
0.78618
0.741623
0.69608
0.650016
0.603457
0.557115
0.51119
0.465686
0.421134
0.377402
0.33454
0.294195
0.258054
0.22419
0.191963
0.164519
0.143104
0.123065
0.102654
0.0851814
0.0723005
0.0628716
0.0563974
0.0527448
0.0515305
0.052429
0.0551386
0.0593557
0.0647898
0.0711599
0.0782136
0.0857214
0.0934672
0.101258
0.108991
0.11632
0.123511
0.129713
0.135626
0.141959
0.147396
0.152245
0.156094
0.159464
0.16187
0.163399
0.164489
0.164831
0.164658
0.163885
0.162563
0.160717
0.158302
0.155413
0.151984
0.148202
0.143949
0.139235
0.134193
0.128749
0.12299
0.11698
0.110595
0.103956
0.0970893
0.089949
0.0826181
0.0750492
0.0673122
0.0593616
0.0512395
0.0428395
0.0341943
0.0251288
0.0154991
0.00522033
0.000863274
1.54915
1.35658
1.30961
1.25135
1.19051
1.14097
1.09252
1.04698
1.00268
0.958972
0.915504
0.871367
0.82751
0.783762
0.738685
0.692874
0.646719
0.600284
0.553833
0.507716
0.462026
0.417327
0.373601
0.331499
0.291683
0.254517
0.220118
0.188145
0.160805
0.136386
0.114223
0.095148
0.0794264
0.0671882
0.0581725
0.0520993
0.0487746
0.0478779
0.0490832
0.0520914
0.0565953
0.0623026
0.0689291
0.0762268
0.0839548
0.0919095
0.0998986
0.107791
0.115386
0.122669
0.129476
0.135771
0.141663
0.14688
0.151512
0.15543
0.158665
0.161133
0.162882
0.164046
0.164548
0.164431
0.16371
0.162425
0.160587
0.158216
0.155312
0.151939
0.148125
0.143888
0.139212
0.134138
0.128711
0.122961
0.116947
0.110569
0.103931
0.0970748
0.0899374
0.0826095
0.0750494
0.0673224
0.0593845
0.0513193
0.0429984
0.0345434
0.0257445
0.0168511
0.00747464
0.00197015
1.52237
1.35048
1.30176
1.2451
1.18655
1.13769
1.08993
1.04459
1.00022
0.956354
0.91258
0.868432
0.824056
0.779335
0.733896
0.687786
0.641214
0.594359
0.547446
0.500814
0.454663
0.409444
0.365394
0.322991
0.282753
0.244938
0.210151
0.17819
0.149473
0.12487
0.103353
0.0848334
0.069613
0.0577598
0.0492183
0.0436599
0.0408636
0.0405166
0.0422916
0.0458719
0.0509353
0.0571834
0.0643275
0.0721053
0.0802828
0.0886501
0.0970213
0.105251
0.113165
0.120727
0.127735
0.134205
0.140326
0.145735
0.150479
0.154508
0.157841
0.160471
0.162344
0.163576
0.164126
0.164074
0.163394
0.162147
0.160343
0.157983
0.155137
0.151777
0.147989
0.143745
0.139073
0.134063
0.128678
0.122924
0.116889
0.110535
0.103913
0.0970394
0.0899336
0.0826156
0.0750735
0.067358
0.0594685
0.0513685
0.0430916
0.0345949
0.0258502
0.0167965
0.00762942
0.0023705
1.47455
1.31573
1.27244
1.22073
1.16793
1.12269
1.07785
1.03457
0.991698
0.948822
0.905672
0.861888
0.817506
0.772436
0.726579
0.679996
0.632866
0.585395
0.537816
0.490448
0.443569
0.397614
0.352882
0.309877
0.269022
0.230666
0.195241
0.16314
0.134432
0.109182
0.0874061
0.0691175
0.0544445
0.0433094
0.0355251
0.0308135
0.0288885
0.0294351
0.0321061
0.0365693
0.0424891
0.0495584
0.057476
0.0659805
0.0748292
0.0838151
0.0927558
0.101495
0.109896
0.117866
0.125322
0.132194
0.138482
0.144085
0.148973
0.153162
0.156635
0.159391
0.161422
0.162775
0.163457
0.163486
0.1629
0.161723
0.159965
0.157681
0.154861
0.151553
0.147787
0.143575
0.138955
0.13393
0.128549
0.122821
0.116798
0.110459
0.103854
0.0970071
0.089903
0.0825902
0.0750685
0.0673632
0.0594786
0.0514467
0.0432307
0.0347947
0.0262075
0.0171556
0.00818568
0.00289442
1.45134
1.3013
1.26049
1.21085
1.16029
1.11604
1.07188
1.02882
0.985891
0.942781
0.899223
0.854977
0.810007
0.76421
0.71759
0.670187
0.622184
0.573766
0.525194
0.476797
0.428876
0.381881
0.336175
0.292245
0.250523
0.21141
0.175362
0.142594
0.113431
0.0880894
0.0665812
0.0488626
0.0349218
0.0246136
0.017759
0.0140686
0.0132335
0.0149104
0.0187299
0.024333
0.0313684
0.0395063
0.0484396
0.0578961
0.0676265
0.0774232
0.0870999
0.0965073
0.105509
0.114016
0.121939
0.129226
0.135869
0.141797
0.146983
0.151431
0.155116
0.15807
0.160283
0.161786
0.162595
0.162752
0.162261
0.161164
0.159491
0.157253
0.154498
0.151242
0.147514
0.143339
0.138745
0.133764
0.128421
0.122714
0.1167
0.110386
0.103798
0.0969498
0.0898732
0.082584
0.0750793
0.0674027
0.059553
0.0515028
0.0433249
0.0348768
0.0262406
0.0172286
0.00831433
0.00299859
1.42658
1.27817
1.23902
1.19136
1.14318
1.10092
1.05851
1.01682
0.974916
0.932447
0.889219
0.844996
0.799757
0.753429
0.706091
0.657833
0.608821
0.559291
0.509519
0.459838
0.410638
0.362328
0.315382
0.270254
0.227459
0.187403
0.150569
0.117323
0.0878907
0.0624661
0.0411386
0.0239042
0.0107009
0.00137514
-0.00432592
-0.00671603
-0.00616647
-0.00305298
0.00222178
0.00926265
0.0176923
0.0271677
0.0373617
0.0479949
0.0588147
0.069608
0.0801952
0.090423
0.100172
0.109344
0.11787
0.125689
0.132774
0.139087
0.144607
0.149342
0.153294
0.156476
0.158895
0.160581
0.161557
0.161844
0.16148
0.160491
0.158899
0.15675
0.154063
0.150863
0.147188
0.143055
0.138503
0.133548
0.128225
0.122554
0.116564
0.110272
0.103704
0.0968832
0.089819
0.0825376
0.075056
0.0673868
0.0595482
0.0515371
0.0433842
0.0349335
0.0263633
0.0173832
0.00850648
0.00319451
1.40837
1.26272
1.22533
1.1792
1.13252
1.09117
1.04937
1.00791
0.96597
0.923251
0.879556
0.834718
0.788699
0.741445
0.693049
0.643588
0.593282
0.542329
0.491055
0.439823
0.389021
0.339144
0.290652
0.244095
0.199987
0.158819
0.121094
0.0871641
0.0573815
0.0319303
0.0109399
-0.00561898
-0.0178536
-0.0259719
-0.0302743
-0.0311241
-0.0289329
-0.0241251
-0.0171428
-0.00840995
0.00166349
0.012706
0.0243814
0.0363992
0.0484977
0.0604619
0.0721107
0.0833007
0.0939088
0.103848
0.113049
0.121468
0.129079
0.135856
0.14179
0.146891
0.151159
0.154615
0.157279
0.159179
0.160338
0.160791
0.160565
0.159694
0.158214
0.156149
0.153543
0.150415
0.146799
0.142724
0.138221
0.133312
0.128028
0.122387
0.116423
0.110155
0.103609
0.0968038
0.0897622
0.0825052
0.0750405
0.0673997
0.0595834
0.0515805
0.0434419
0.0350137
0.0264216
0.0174246
0.00856615
0.00321375
1.39119
1.24582
1.20897
1.16371
1.11794
1.07747
1.03643
0.995565
0.953984
0.911363
0.867521
0.822267
0.775583
0.727433
0.677926
0.627181
0.575399
0.52285
0.46986
0.416817
0.364195
0.312464
0.262211
0.213969
0.168358
0.125899
0.0871468
0.0525324
0.0223996
-0.00301862
-0.0236132
-0.0394078
-0.0505473
-0.0572846
-0.059972
-0.0590274
-0.0549226
-0.0481424
-0.0391735
-0.0284829
-0.0165171
-0.00367114
0.00970234
0.0232981
0.0368488
0.0501412
0.062998
0.0752739
0.0868594
0.0976694
0.107647
0.11675
0.124963
0.132267
0.138661
0.144158
0.148777
0.152544
0.15548
0.157615
0.158983
0.159612
0.159541
0.158808
0.157444
0.155484
0.152963
0.149911
0.146363
0.142346
0.137895
0.133029
0.127778
0.122175
0.116242
0.110006
0.103488
0.0967082
0.0896861
0.0824466
0.0750041
0.0673762
0.0595754
0.0516007
0.0434788
0.0350682
0.0265164
0.0174656
0.00858284
0.00324874
1.37628
1.23172
1.19569
1.15112
1.10611
1.06613
1.0254
0.984582
0.942834
0.899824
0.855373
0.809328
0.761644
0.7123
0.661418
0.609105
0.555617
0.501198
0.44623
0.391133
0.336388
0.282579
0.230276
0.180138
0.132816
0.0889003
0.0490217
0.0136176
-0.0168689
-0.0422318
-0.06232
-0.0772036
-0.0870553
-0.0921812
-0.0930088
-0.0900162
-0.0837454
-0.0747396
-0.0635433
-0.0506667
-0.0365871
-0.0217301
-0.00647035
0.00887714
0.0240418
0.0388026
0.0529876
0.0664603
0.0791145
0.0908796
0.101701
0.111553
0.12042
0.128299
0.135202
0.141146
0.146157
0.150264
0.153495
0.155889
0.157483
0.158311
0.158418
0.157832
0.156598
0.154751
0.152329
0.149363
0.145889
0.141941
0.137546
0.132731
0.127527
0.121961
0.116061
0.10985
0.103358
0.0966047
0.0896056
0.0823865
0.0749613
0.0673543
0.0595687
0.0516038
0.0434916
0.0350817
0.0265333
0.0175027
0.00863465
0.0033147
1.36246
1.21801
1.1822
1.13798
1.09328
1.05358
1.01301
0.972237
0.930346
0.886983
0.841961
0.795095
0.746367
0.695751
0.643371
0.589369
0.533978
0.477509
0.420345
0.36295
0.305886
0.24973
0.195194
0.142938
0.0937274
0.0482167
0.00708443
-0.0291309
-0.0599933
-0.0852359
-0.104737
-0.118569
-0.126959
-0.130285
-0.129026
-0.123753
-0.115073
-0.103601
-0.0899388
-0.0746516
-0.058254
-0.0411993
-0.0238846
-0.00663551
0.0102737
0.0266232
0.0422407
0.0570032
0.0708131
0.0836031
0.0953387
0.105996
0.115572
0.124074
0.131521
0.13794
0.143366
0.147835
0.151384
0.154058
0.155893
0.156928
0.157212
0.156788
0.155693
0.153966
0.151648
0.148775
0.145382
0.141498
0.137159
0.132395
0.127238
0.121716
0.115854
0.109678
0.103214
0.0964875
0.0895114
0.0823122
0.074906
0.0673159
0.0595467
0.0516013
0.0435014
0.0351097
0.0265659
0.0175014
0.00862182
0.00328864
1.34981
1.20555
1.17
1.12603
1.08155
1.04195
1.00135
0.960362
0.918068
0.874111
0.828261
0.780376
0.730394
0.678313
0.624249
0.568339
0.510867
0.452124
0.392554
0.332654
0.273016
0.214325
0.157307
0.102757
0.0514883
0.00424259
-0.0382052
-0.0753007
-0.106508
-0.131589
-0.150381
-0.163017
-0.169765
-0.171075
-0.16752
-0.159738
-0.148428
-0.134277
-0.117953
-0.100072
-0.0811889
-0.0617867
-0.0422781
-0.0230027
-0.00423826
0.0137945
0.0309355
0.0470634
0.0620886
0.0759584
0.0886471
0.10015
0.110466
0.11962
0.12764
0.134563
0.140429
0.145281
0.149163
0.152124
0.154214
0.155472
0.155951
0.155692
0.154744
0.153143
0.150934
0.148155
0.144843
0.141036
0.136762
0.132054
0.126946
0.121468
0.115641
0.109496
0.103062
0.0963591
0.0894072
0.0822314
0.074842
0.0672717
0.0595191
0.051585
0.0434878
0.0351194
0.0265548
0.0174673
0.00863727
0.00332433
1.33804
1.19378
1.15828
1.11441
1.06992
1.03025
0.98947
0.948167
0.905395
0.860754
0.814027
0.765021
0.713704
0.660042
0.604161
0.546222
0.486492
0.425322
0.363161
0.300567
0.238193
0.176759
0.117119
0.0600988
0.00664084
-0.042435
-0.0862893
-0.124265
-0.15582
-0.180649
-0.19864
-0.209944
-0.214888
-0.214012
-0.20796
-0.197483
-0.183354
-0.166344
-0.147186
-0.126553
-0.105043
-0.0831659
-0.0613551
-0.0399605
-0.0192627
0.0005283
0.0192495
0.0367906
0.0530774
0.0680671
0.081749
0.0941254
0.105213
0.115041
0.123653
0.13109
0.137405
0.14265
0.146875
0.150134
0.152484
0.153969
0.154643
0.154562
0.153766
0.152294
0.150198
0.147517
0.144291
0.140557
0.136351
0.131699
0.126638
0.121202
0.115416
0.109306
0.102899
0.0962223
0.0892955
0.0821438
0.0747764
0.0672212
0.05948
0.0515659
0.0434865
0.0351334
0.0266229
0.0175069
0.00861569
0.00331552
1.3271
1.18285
1.14735
1.10349
1.05893
1.01909
0.978007
0.936261
0.892866
0.847431
0.799676
0.749441
0.696647
0.641286
0.583469
0.523355
0.461249
0.39749
0.332597
0.267144
0.20186
0.137553
0.0751158
0.0155188
-0.0402369
-0.091228
-0.136512
-0.175385
-0.20722
-0.23174
-0.248808
-0.258645
-0.261636
-0.258404
-0.249698
-0.236359
-0.21926
-0.199252
-0.177138
-0.15365
-0.129418
-0.104988
-0.0808057
-0.0572328
-0.0345479
-0.0129612
0.00737439
0.026359
0.0439318
0.0600591
0.0747427
0.088004
0.099869
0.110385
0.119595
0.127558
0.134334
0.139979
0.144555
0.148118
0.150733
0.152449
0.153326
0.153416
0.152767
0.151429
0.149448
0.146868
0.143727
0.140068
0.135929
0.131338
0.12633
0.120937
0.115188
0.109113
0.102739
0.0960883
0.0891818
0.0820486
0.0746979
0.0671628
0.0594376
0.0515305
0.0434551
0.0351142
0.0265599
0.0174451
0.00862678
0.0033363
1.3169
1.17263
1.13708
1.09313
1.04838
1.00827
0.9668
0.924525
0.880443
0.83412
0.785288
0.733739
0.679416
0.62227
0.562429
0.500061
0.435462
0.369033
0.301284
0.232881
0.164582
0.097276
0.0319725
-0.0302991
-0.0884168
-0.141359
-0.188091
-0.22782
-0.259912
-0.284036
-0.300098
-0.308353
-0.309265
-0.303554
-0.292069
-0.27576
-0.255587
-0.232491
-0.207346
-0.180932
-0.153927
-0.126899
-0.100316
-0.0745412
-0.049856
-0.0264639
-0.00450913
0.0159255
0.0347877
0.0520582
0.0677528
0.0819005
0.0945446
0.105742
0.115553
0.124041
0.131273
0.137317
0.142242
0.146108
0.148983
0.150927
0.152003
0.15227
0.151774
0.150568
0.148702
0.14622
0.143168
0.139585
0.135511
0.130976
0.126015
0.120667
0.114956
0.108915
0.102568
0.0959439
0.0890642
0.0819526
0.0746244
0.0671062
0.0593901
0.0515017
0.0434334
0.0351211
0.026586
0.0174467
0.00860667
0.0033129
1.30747
1.16315
1.1275
1.08342
1.03845
0.998016
0.9561
0.913229
0.868369
0.821115
0.771131
0.718218
0.662291
0.603312
0.54139
0.4767
0.409562
0.340377
0.269731
0.198289
0.126916
0.0565714
-0.0116719
-0.0766436
-0.137147
-0.192023
-0.240171
-0.280728
-0.312991
-0.336645
-0.351601
-0.358176
-0.356919
-0.348644
-0.334307
-0.314962
-0.29167
-0.265456
-0.237265
-0.207924
-0.178147
-0.148538
-0.119567
-0.0916061
-0.0649354
-0.0397525
-0.0161917
0.00567117
0.0258004
0.0441958
0.0608796
0.0758989
0.0893092
0.101182
0.111582
0.120584
0.128267
0.134701
0.139965
0.144127
0.147263
0.149438
0.150713
0.151147
0.150797
0.14972
0.147967
0.145583
0.142613
0.139103
0.135092
0.130616
0.12571
0.120405
0.114732
0.108725
0.102409
0.0958107
0.0889486
0.0818566
0.074541
0.0670377
0.0593388
0.0514629
0.0434139
0.0351014
0.0265982
0.0174532
0.0085899
0.00331771
1.29876
1.1544
1.11862
1.07438
1.02911
0.988316
0.945903
0.902406
0.856749
0.808521
0.757366
0.703065
0.645526
0.584692
0.520684
0.453669
0.38397
0.312043
0.238461
0.164006
0.0895421
0.0161503
-0.0550057
-0.122668
-0.185519
-0.242294
-0.291804
-0.333115
-0.365495
-0.388598
-0.402388
-0.407228
-0.403752
-0.392881
-0.375679
-0.353305
-0.32691
-0.297607
-0.266404
-0.234176
-0.20168
-0.169533
-0.138228
-0.108137
-0.0795376
-0.0526197
-0.0275062
-0.00425612
0.0171063
0.0365894
0.0542384
0.0701041
0.0842578
0.0967781
0.107745
0.117247
0.125363
0.132177
0.137775
0.142225
0.145605
0.147992
0.149454
0.150056
0.149849
0.148898
0.147256
0.144967
0.142082
0.138644
0.134696
0.130271
0.12541
0.120147
0.114509
0.108531
0.102243
0.0956699
0.0888325
0.081759
0.0744628
0.0669739
0.0592879
0.0514193
0.0433766
0.0350751
0.026557
0.0174121
0.00858288
0.00333507
1.29082
1.14638
1.11046
1.06603
1.02049
0.979303
0.936397
0.892234
0.845774
0.796552
0.744231
0.688543
0.629406
0.566746
0.500667
0.431352
0.359142
0.284491
0.20805
0.130601
0.0531238
-0.0232503
-0.0972651
-0.167533
-0.232653
-0.291227
-0.342017
-0.383987
-0.416395
-0.438883
-0.451452
-0.454527
-0.448837
-0.435396
-0.41538
-0.390045
-0.360636
-0.328345
-0.294232
-0.259229
-0.224119
-0.189545
-0.156005
-0.123875
-0.0934295
-0.0648518
-0.0382532
-0.0136833
0.00884798
0.0293685
0.04793
0.064602
0.0794572
0.0925934
0.104101
0.114075
0.122605
0.129774
0.135681
0.140404
0.144026
0.146622
0.148269
0.149025
0.148955
0.148121
0.14658
0.14438
0.141572
0.138202
0.134312
0.129941
0.125128
0.119905
0.114304
0.108358
0.102095
0.0955446
0.0887235
0.0816708
0.0743896
0.0669145
0.059238
0.051386
0.043357
0.0350651
0.0265778
0.0174133
0.00856307
0.00332153
1.28363
1.13914
1.10307
1.05846
1.01259
0.971031
0.927584
0.882817
0.835487
0.785373
0.73193
0.674877
0.614196
0.549766
0.481701
0.410175
0.335538
0.258293
0.179076
0.0987815
0.0183884
-0.0608277
-0.137569
-0.21031
-0.277553
-0.337817
-0.389765
-0.43231
-0.464673
-0.486504
-0.497844
-0.499182
-0.491335
-0.475417
-0.452705
-0.424547
-0.392274
-0.357154
-0.320292
-0.282667
-0.245098
-0.208239
-0.172601
-0.13856
-0.106389
-0.0762611
-0.0482783
-0.0224735
0.00115984
0.0226498
0.0420623
0.0594803
0.0749966
0.0887063
0.100714
0.111127
0.120034
0.127537
0.133739
0.138717
0.142559
0.145351
0.147159
0.148058
0.148114
0.147394
0.145948
0.143832
0.141097
0.13779
0.133961
0.129638
0.124863
0.119674
0.114104
0.108187
0.101948
0.0954176
0.0886164
0.0815788
0.0743104
0.0668476
0.0591854
0.0513439
0.0433252
0.0350425
0.0266061
0.0174601
0.00853438
0.0032915
1.27726
1.13271
1.09647
1.05167
1.00553
0.963567
0.919658
0.874246
0.826209
0.775152
0.720597
0.662315
0.600175
0.534087
0.464144
0.390538
0.313624
0.233921
0.152126
0.0691409
-0.0139525
-0.0958402
-0.17511
-0.250128
-0.319336
-0.381106
-0.43408
-0.477073
-0.509327
-0.530468
-0.540603
-0.540271
-0.530386
-0.512146
-0.486918
-0.456142
-0.42122
-0.383485
-0.344095
-0.304065
-0.26424
-0.225292
-0.187736
-0.151951
-0.118203
-0.0866573
-0.0574084
-0.0304801
-0.0058587
0.0165132
0.036705
0.0548079
0.0709193
0.0851514
0.0976193
0.108433
0.117695
0.125503
0.131965
0.137176
0.141221
0.144184
0.146152
0.147184
0.147354
0.146732
0.145374
0.143335
0.140666
0.137417
0.133635
0.129355
0.12462
0.119469
0.11393
0.108037
0.101819
0.0953077
0.0885266
0.0815074
0.0742499
0.0668007
0.059145
0.0513089
0.0432944
0.0350138
0.026524
0.0173724
0.00855883
0.00333982
1.27172
1.12711
1.09074
1.04575
0.999322
0.95701
0.912631
0.866659
0.817871
0.766031
0.710546
0.65107
0.587594
0.519988
0.44834
0.372838
0.293854
0.211934
0.12777
0.0423597
-0.04321
-0.127488
-0.209038
-0.286096
-0.357037
-0.420151
-0.473981
-0.51734
-0.549429
-0.569897
-0.578892
-0.577019
-0.565268
-0.544918
-0.517419
-0.484285
-0.446993
-0.406926
-0.365281
-0.323107
-0.281271
-0.240457
-0.201191
-0.16385
-0.128697
-0.0958932
-0.065515
-0.0375827
-0.012068
0.0110855
0.0319667
0.0506785
0.067326
0.0820209
0.0948904
0.106056
0.115622
0.123699
0.130396
0.135809
0.140031
0.143151
0.145248
0.1464
0.146676
0.146143
0.144862
0.142889
0.14028
0.137083
0.133347
0.129107
0.124405
0.119279
0.113766
0.107898
0.1017
0.0952056
0.0884366
0.0814269
0.0741831
0.0667433
0.0590962
0.0512691
0.0432576
0.0349798
0.0265016
0.0173687
0.00855994
0.00333668
1.26705
1.12238
1.08585
1.04074
0.994046
0.951414
0.906628
0.860143
0.810735
0.7582
0.701824
0.641344
0.576702
0.507761
0.434609
0.35745
0.276646
0.19276
0.106541
0.0189952
-0.0687089
-0.155093
-0.238629
-0.317438
-0.38988
-0.454092
-0.508635
-0.552239
-0.584144
-0.603975
-0.611939
-0.608693
-0.595301
-0.573111
-0.543641
-0.508471
-0.469125
-0.427043
-0.383454
-0.339435
-0.295871
-0.253458
-0.212725
-0.174052
-0.137696
-0.103808
-0.0724648
-0.0436745
-0.0174041
0.00642326
0.027893
0.0471181
0.0642166
0.0793142
0.0925342
0.104
0.113835
0.122146
0.129048
0.134638
0.139015
0.142267
0.144481
0.145733
0.146097
0.145641
0.144428
0.142514
0.139955
0.136802
0.133102
0.128896
0.124223
0.119125
0.113634
0.107783
0.1016
0.0951217
0.0883672
0.0813724
0.0741383
0.0667081
0.059068
0.051248
0.0432461
0.0349654
0.0265125
0.017371
0.00854302
0.00332869
1.26326
1.11856
1.08193
1.03665
0.989763
0.946855
0.901733
0.854803
0.8049
0.751726
0.694622
0.63332
0.567699
0.497649
0.423252
0.3447
0.262382
0.176873
0.0889256
-0.000383217
-0.0898934
-0.177999
-0.263176
-0.343435
-0.417088
-0.482211
-0.537258
-0.581042
-0.61276
-0.632032
-0.639122
-0.634725
-0.619964
-0.596245
-0.565147
-0.528297
-0.487271
-0.443538
-0.398358
-0.352827
-0.307844
-0.264118
-0.22218
-0.18241
-0.145063
-0.11029
-0.0781562
-0.0486621
-0.0217633
0.00261174
0.0245665
0.0442182
0.0616944
0.0771202
0.0906219
0.102333
0.11238
0.120882
0.127949
0.133681
0.138182
0.141541
0.143848
0.145188
0.145625
0.14523
0.144068
0.142201
0.139681
0.136561
0.132893
0.128712
0.124066
0.118989
0.113518
0.107688
0.101518
0.0950504
0.0883068
0.0813184
0.0740916
0.0666639
0.0590319
0.0512157
0.043217
0.0349542
0.0264853
0.0173423
0.0085363
0.00333731
1.26039
1.11568
1.07896
1.03355
0.986499
0.943387
0.897989
0.850734
0.800396
0.746801
0.689153
0.627163
0.560787
0.489871
0.414497
0.334873
0.251378
0.164602
0.0753271
-0.0153538
-0.106241
-0.195684
-0.282129
-0.363468
-0.438112
-0.503829
-0.559246
-0.603131
-0.634711
-0.653531
-0.659929
-0.654636
-0.638815
-0.613922
-0.581575
-0.543439
-0.501124
-0.456129
-0.409731
-0.363046
-0.31698
-0.272252
-0.229394
-0.18879
-0.150691
-0.115239
-0.0825016
-0.0524676
-0.0250931
-0.000298815
0.0220242
0.0419993
0.0597552
0.0754309
0.0891545
0.101057
0.111268
0.119911
0.127106
0.132948
0.137545
0.140986
0.143367
0.144765
0.145257
0.144912
0.143793
0.141963
0.139477
0.136386
0.13274
0.128585
0.123954
0.118892
0.113436
0.107613
0.101454
0.0949952
0.0882588
0.0812817
0.0740597
0.0666428
0.0590153
0.0512066
0.0432076
0.0349462
0.0264892
0.0173424
0.00852882
0.00332025
1.25848
1.11373
1.07695
1.03147
0.984309
0.941041
0.895456
0.847981
0.797321
0.74348
0.685453
0.622986
0.556091
0.484592
0.408564
0.328204
0.243905
0.156277
0.066086
-0.0255209
-0.117372
-0.207703
-0.295041
-0.377102
-0.452506
-0.518601
-0.574084
-0.617998
-0.64955
-0.668064
-0.673995
-0.668089
-0.65155
-0.625857
-0.592663
-0.553657
-0.510474
-0.464628
-0.417411
-0.369945
-0.32315
-0.277746
-0.234266
-0.193098
-0.154487
-0.11858
-0.0854364
-0.0550367
-0.0273369
-0.00225885
0.0203109
0.0405012
0.0584509
0.0742923
0.0881598
0.10019
0.110516
0.119258
0.126537
0.132456
0.137116
0.140615
0.143043
0.144488
0.145019
0.144705
0.143611
0.141804
0.139337
0.136261
0.132633
0.128487
0.123871
0.118825
0.113377
0.107563
0.101411
0.0949586
0.0882293
0.0812538
0.0740364
0.066617
0.0589928
0.0511844
0.0431956
0.0349381
0.026492
0.0173546
0.00853671
0.00334582
1.25752
1.11276
1.07594
1.03043
0.983215
0.939868
0.894211
0.8466
0.795899
0.741771
0.6835
0.620882
0.553719
0.481922
0.405551
0.324821
0.240113
0.152045
0.0613985
-0.0306826
-0.123001
-0.213793
-0.301574
-0.38401
-0.459828
-0.52624
-0.581474
-0.62541
-0.657006
-0.675379
-0.681075
-0.674862
-0.657958
-0.631865
-0.598245
-0.558802
-0.515179
-0.468902
-0.42127
-0.373415
-0.326253
-0.280507
-0.236719
-0.195268
-0.156404
-0.120268
-0.0869385
-0.0563471
-0.0284517
-0.00323259
0.0194515
0.0397552
0.057801
0.0737242
0.087665
0.0997617
0.110143
0.118929
0.126249
0.132206
0.136901
0.140427
0.142878
0.144338
0.14489
0.144593
0.143515
0.141719
0.139265
0.136204
0.13258
0.128443
0.123832
0.118789
0.113345
0.107532
0.10139
0.0949435
0.088216
0.0812426
0.0740237
0.0666114
0.0589888
0.0511831
0.0431886
0.0349304
0.0264598
0.0173067
0.00852931
0.00334741
1.25752
1.11275
1.07593
1.03043
0.983216
0.939868
0.894205
0.846596
0.795898
0.741772
0.683497
0.620886
0.553721
0.481924
0.405559
0.324828
0.240128
0.152057
0.0614059
-0.030668
-0.122995
-0.213781
-0.301566
-0.384
-0.459836
-0.526224
-0.58145
-0.625414
-0.656993
-0.675367
-0.681064
-0.674849
-0.657947
-0.631853
-0.598235
-0.558793
-0.515171
-0.468894
-0.421263
-0.373406
-0.326243
-0.280499
-0.236708
-0.195257
-0.156393
-0.120258
-0.086928
-0.0563435
-0.0284543
-0.00323374
0.0194522
0.0397507
0.0577939
0.0737177
0.0876605
0.0997554
0.110138
0.118928
0.126248
0.132203
0.136897
0.140425
0.142878
0.144343
0.144893
0.144599
0.14352
0.141724
0.139269
0.136203
0.13258
0.128442
0.123832
0.118789
0.113346
0.107535
0.101387
0.0949401
0.0882145
0.0812394
0.0740245
0.0666073
0.0589825
0.0511766
0.0431872
0.0349291
0.0264722
0.0173391
0.00853375
0.00333869
1.25848
1.11374
1.07695
1.03148
0.984321
0.94105
0.89548
0.84799
0.797321
0.743486
0.685471
0.622999
0.556097
0.4846
0.408563
0.328209
0.243908
0.15628
0.0660915
-0.0255136
-0.11735
-0.207679
-0.295017
-0.377056
-0.452478
-0.518521
-0.574024
-0.61801
-0.649511
-0.668027
-0.673956
-0.668049
-0.651509
-0.62582
-0.59263
-0.553628
-0.510448
-0.464602
-0.417385
-0.369923
-0.323131
-0.27773
-0.234254
-0.193086
-0.154479
-0.118573
-0.0854297
-0.0550311
-0.0273312
-0.00225324
0.0203185
0.0405107
0.0584614
0.0743059
0.0881734
0.100203
0.110526
0.119265
0.126539
0.132454
0.137113
0.14061
0.143042
0.144481
0.145011
0.144698
0.143606
0.141799
0.139333
0.136262
0.13263
0.128485
0.123866
0.118818
0.11337
0.107554
0.101409
0.0949606
0.0882313
0.0812565
0.0740357
0.0666207
0.0589905
0.0511846
0.0431885
0.0349313
0.0264599
0.0173121
0.00853381
0.0033406
1.2604
1.11568
1.07896
1.03356
0.986509
0.943393
0.897999
0.850734
0.800446
0.746786
0.689117
0.627178
0.560796
0.489883
0.414517
0.334891
0.251404
0.164632
0.0753531
-0.0153174
-0.106209
-0.195632
-0.282089
-0.363412
-0.438069
-0.503748
-0.559185
-0.603096
-0.634643
-0.653473
-0.659869
-0.654575
-0.638755
-0.613863
-0.581521
-0.543387
-0.501078
-0.456087
-0.409692
-0.363012
-0.316948
-0.272223
-0.229367
-0.188765
-0.150667
-0.115218
-0.0824841
-0.0524533
-0.0250791
-0.000287128
0.022034
0.0420057
0.0597606
0.0754347
0.0891555
0.101055
0.111271
0.119914
0.127103
0.132946
0.137541
0.140986
0.143365
0.144763
0.145257
0.144916
0.143797
0.141965
0.139479
0.136385
0.132737
0.128578
0.123947
0.118888
0.113432
0.107607
0.101451
0.0949962
0.0882594
0.0812758
0.0740554
0.0666335
0.0590046
0.0511893
0.0431956
0.0349257
0.0264495
0.0173227
0.00855703
0.00337227
1.26327
1.11858
1.08194
1.03666
0.989777
0.946863
0.901755
0.854811
0.80493
0.75173
0.694622
0.633345
0.567714
0.497669
0.423269
0.344729
0.262408
0.176899
0.0889608
-0.000350907
-0.0898383
-0.177948
-0.263113
-0.343368
-0.417017
-0.482122
-0.537181
-0.580963
-0.612669
-0.631943
-0.639032
-0.634637
-0.619879
-0.596166
-0.565072
-0.528227
-0.487207
-0.443478
-0.398305
-0.35278
-0.307804
-0.264083
-0.222149
-0.182382
-0.145038
-0.110266
-0.0781348
-0.0486409
-0.0217439
0.00262847
0.0245806
0.0442287
0.0617012
0.0771282
0.0906326
0.102344
0.112391
0.120889
0.127954
0.133683
0.138182
0.141538
0.143846
0.145181
0.145617
0.145222
0.144062
0.142197
0.139679
0.13656
0.132889
0.128712
0.124063
0.118985
0.113511
0.107677
0.101513
0.0950482
0.0883049
0.0813208
0.0740902
0.0666641
0.0590267
0.0512157
0.0432145
0.0349498
0.0265052
0.0173508
0.0085334
0.00332724
1.26705
1.1224
1.08589
1.04073
0.994061
0.951422
0.906643
0.860145
0.810778
0.75819
0.701808
0.641371
0.576723
0.507783
0.434641
0.357478
0.276687
0.19281
0.106587
0.0190571
-0.068651
-0.155015
-0.238552
-0.317356
-0.389786
-0.453993
-0.508525
-0.552143
-0.584031
-0.603867
-0.611833
-0.608591
-0.595198
-0.573009
-0.543546
-0.508381
-0.469043
-0.42697
-0.383389
-0.339381
-0.295821
-0.253414
-0.212684
-0.174013
-0.137659
-0.103774
-0.0724339
-0.0436439
-0.0173755
0.00644452
0.0279151
0.0471383
0.0642334
0.0793286
0.0925468
0.104011
0.11384
0.122148
0.129044
0.134633
0.139011
0.142265
0.144478
0.14573
0.146094
0.145642
0.144427
0.142512
0.139955
0.136798
0.133095
0.128886
0.124213
0.119116
0.113626
0.107776
0.101599
0.0951187
0.088361
0.0813655
0.0741314
0.0666971
0.059056
0.0512332
0.0432292
0.0349513
0.0264723
0.0173402
0.0085627
0.00336427
1.27173
1.12714
1.09075
1.04576
0.999339
0.957017
0.912659
0.866664
0.817932
0.766047
0.710518
0.651099
0.587619
0.520019
0.448373
0.37288
0.293904
0.211974
0.127833
0.0424155
-0.0431246
-0.127414
-0.208945
-0.286006
-0.356931
-0.420035
-0.473863
-0.517216
-0.549301
-0.569766
-0.578765
-0.576894
-0.565146
-0.544802
-0.51731
-0.484184
-0.446897
-0.406836
-0.3652
-0.323034
-0.281205
-0.240397
-0.201137
-0.163803
-0.128654
-0.0958532
-0.0654781
-0.0375473
-0.0120402
0.0111094
0.031985
0.0506871
0.0673291
0.0820256
0.0948964
0.106057
0.115625
0.123707
0.130407
0.135814
0.140034
0.143147
0.145244
0.146397
0.146673
0.146138
0.144857
0.142888
0.14028
0.137081
0.133342
0.129104
0.124401
0.119277
0.113759
0.107889
0.101696
0.0952044
0.088435
0.0814273
0.0741797
0.0667376
0.0590885
0.0512684
0.0432563
0.0349815
0.0265229
0.0173812
0.00854366
0.0033064
1.27727
1.13273
1.0965
1.05168
1.00554
0.963581
0.919665
0.874255
0.826211
0.775164
0.72063
0.662353
0.600209
0.534119
0.464187
0.390586
0.313681
0.233989
0.152191
0.0692232
-0.0138674
-0.095739
-0.175001
-0.250015
-0.319203
-0.380977
-0.433935
-0.476935
-0.509181
-0.530325
-0.540459
-0.540132
-0.53025
-0.512016
-0.486795
-0.456025
-0.42111
-0.383386
-0.344004
-0.303987
-0.264168
-0.225227
-0.187677
-0.1519
-0.118158
-0.0866171
-0.0573692
-0.0304402
-0.00582024
0.0165462
0.0367356
0.0548342
0.0709447
0.08518
0.0976425
0.108444
0.117697
0.125505
0.131964
0.137169
0.141214
0.14418
0.146143
0.147176
0.14735
0.146731
0.145373
0.143333
0.140668
0.137419
0.133631
0.129349
0.124613
0.119457
0.113919
0.108027
0.101811
0.0953015
0.0885188
0.0814959
0.0742368
0.066786
0.0591282
0.0512973
0.0432754
0.0350029
0.0265173
0.0173683
0.00855707
0.00331626
1.28366
1.13916
1.10307
1.05848
1.01262
0.971041
0.927624
0.882814
0.835548
0.785389
0.731924
0.674921
0.614234
0.549812
0.481752
0.410224
0.335606
0.258347
0.179162
0.098851
0.0184922
-0.0607352
-0.137452
-0.210188
-0.277422
-0.337679
-0.389616
-0.432152
-0.464516
-0.48634
-0.497684
-0.499022
-0.491185
-0.475278
-0.452572
-0.424421
-0.392155
-0.357039
-0.320187
-0.282571
-0.245011
-0.20816
-0.172531
-0.138501
-0.106338
-0.0762145
-0.0482293
-0.0224288
0.00119423
0.0226812
0.0420908
0.0595041
0.0750136
0.0887208
0.100727
0.11113
0.120038
0.127545
0.133743
0.138717
0.142559
0.145345
0.147154
0.148052
0.14811
0.147388
0.145943
0.14383
0.141096
0.13779
0.133956
0.129634
0.124858
0.11967
0.114098
0.108181
0.101941
0.0954124
0.0886111
0.0815742
0.0743043
0.0668397
0.0591742
0.0513289
0.0433131
0.0349987
0.0265325
0.0174133
0.00857412
0.00334647
1.29082
1.1464
1.1105
1.06606
1.0205
0.979333
0.936409
0.892261
0.845789
0.796586
0.744254
0.688588
0.629448
0.566786
0.500717
0.431409
0.359204
0.284572
0.208137
0.130704
0.0532322
-0.0231361
-0.097135
-0.167401
-0.232499
-0.291074
-0.341852
-0.383822
-0.416227
-0.438711
-0.451283
-0.45436
-0.448675
-0.435244
-0.415236
-0.389911
-0.360509
-0.328228
-0.294124
-0.259129
-0.224025
-0.189459
-0.155927
-0.123808
-0.093371
-0.0648
-0.0382066
-0.0136385
0.00888971
0.0294073
0.0479665
0.0646358
0.0794902
0.0926218
0.104121
0.114087
0.122608
0.129775
0.135678
0.140401
0.144023
0.146617
0.14826
0.149017
0.148949
0.148119
0.146578
0.14438
0.141577
0.138205
0.134311
0.129937
0.12512
0.119897
0.114296
0.108347
0.102083
0.0955325
0.0887126
0.0816579
0.0743713
0.0668953
0.0592193
0.0513665
0.0433305
0.0350379
0.02653
0.0173651
0.00857334
0.00334349
1.2988
1.15442
1.11861
1.07442
1.02914
0.988345
0.945936
0.902425
0.856778
0.808555
0.757398
0.703109
0.645571
0.584742
0.520743
0.453726
0.384055
0.312108
0.238564
0.164092
0.0896611
0.0162675
-0.054875
-0.12253
-0.18537
-0.242132
-0.291637
-0.332939
-0.365318
-0.388416
-0.402209
-0.407048
-0.403584
-0.392721
-0.375525
-0.353158
-0.326773
-0.297479
-0.266284
-0.234066
-0.201582
-0.169444
-0.138149
-0.108068
-0.0794767
-0.0525662
-0.0274529
-0.00420853
0.0171484
0.0366325
0.0542773
0.0701379
0.0842849
0.0968
0.107763