/*--------------------------------*- C++ -*----------------------------------*\
  =========                 |
  \\      /  F ield         | OpenFOAM: The Open Source CFD Toolbox
   \\    /   O peration     | Website:  https://openfoam.org
    \\  /    A nd           | Version:  11
     \\/     M anipulation  |
\*---------------------------------------------------------------------------*/
FoamFile
{
    format      ascii;
    class       volScalarField;
    location    "0.056";
    object      k;
}
// * * * * * * * * * * * * * * * * * * * * * * * * * * * * * * * * * * * * * //

dimensions      [0 2 -2 0 0 0 0];

internalField   nonuniform List<scalar> 
287084
(
0.381377
0.395752
0.408057
0.415882
0.419507
0.420361
0.420389
0.420351
0.420218
0.42034
0.420521
0.420455
0.420487
0.420509
0.420474
0.420382
0.42029
0.420318
0.420285
0.420408
0.420629
0.420497
0.420558
0.420594
0.420564
0.420562
0.420428
0.420507
0.420634
0.420612
0.42061
0.420582
0.420554
0.420338
0.420249
0.420264
0.420251
0.420287
0.420251
0.420205
0.420078
0.420097
0.420116
0.420028
0.420027
0.420013
0.41987
0.419932
0.420135
0.419954
0.420025
0.420152
0.420155
0.420152
0.419963
0.419873
0.419955
0.419995
0.419925
0.420009
0.420042
0.4199
0.41985
0.420064
0.420242
0.420221
0.420205
0.420034
0.420094
0.42021
0.420169
0.420086
0.419997
0.420046
0.420048
0.420159
0.420198
0.420175
0.420113
0.420142
0.420277
0.420205
0.420263
0.420287
0.420245
0.420188
0.41997
0.420013
0.4201
0.419926
0.381433
0.395651
0.407861
0.415788
0.419488
0.420411
0.420429
0.420325
0.420414
0.42058
0.420596
0.420553
0.42044
0.420458
0.420416
0.420269
0.420318
0.420429
0.420387
0.420318
0.420361
0.420629
0.42076
0.420739
0.420737
0.420668
0.420558
0.420563
0.420435
0.420489
0.42061
0.42054
0.420564
0.420525
0.42047
0.420474
0.420415
0.420202
0.420223
0.420461
0.42047
0.420424
0.420203
0.42019
0.420364
0.420434
0.420403
0.420377
0.420374
0.420337
0.420269
0.420061
0.420105
0.420155
0.420101
0.42011
0.420096
0.419947
0.419966
0.420154
0.420054
0.420161
0.420238
0.420205
0.420158
0.420073
0.420199
0.420316
0.420273
0.420111
0.420166
0.420413
0.420402
0.420366
0.420305
0.420288
0.420096
0.420158
0.420319
0.420226
0.42024
0.420227
0.420074
0.420088
0.420257
0.420274
0.420241
0.420213
0.420159
0.419921
0.381435
0.395637
0.407858
0.415752
0.419405
0.420568
0.420678
0.420634
0.420484
0.420531
0.42067
0.420554
0.420545
0.420544
0.420428
0.420415
0.420601
0.420689
0.420637
0.420486
0.420435
0.420499
0.420505
0.420697
0.420807
0.420775
0.420732
0.420627
0.420608
0.420581
0.420545
0.420496
0.420432
0.420431
0.420437
0.420296
0.420291
0.420404
0.420376
0.420441
0.420453
0.42036
0.420388
0.420395
0.420357
0.420355
0.420276
0.420354
0.420421
0.420376
0.420298
0.420199
0.420144
0.419975
0.419969
0.420137
0.420151
0.420042
0.420078
0.42022
0.420163
0.420162
0.42016
0.42002
0.420024
0.420256
0.420351
0.420327
0.420307
0.420219
0.420218
0.42022
0.420046
0.420001
0.420088
0.420112
0.420089
0.4201
0.420077
0.420034
0.419958
0.420076
0.420295
0.420148
0.420091
0.420105
0.420025
0.419999
0.420038
0.419921
0.381411
0.395679
0.407832
0.41566
0.41944
0.420656
0.420782
0.420737
0.420579
0.420617
0.420776
0.420773
0.420754
0.420513
0.420517
0.420715
0.42076
0.42073
0.420706
0.420657
0.420607
0.420525
0.420498
0.420472
0.420507
0.42052
0.420494
0.420424
0.420441
0.42069
0.420757
0.420718
0.420635
0.42058
0.420585
0.420594
0.420533
0.420418
0.42027
0.420367
0.420425
0.420381
0.420246
0.42031
0.420385
0.420386
0.420385
0.420301
0.420286
0.420141
0.42018
0.420205
0.42018
0.420175
0.420053
0.420042
0.419925
0.419918
0.42022
0.420315
0.420266
0.420161
0.420062
0.420121
0.42009
0.420223
0.420344
0.42016
0.420257
0.420378
0.420202
0.420135
0.420178
0.420203
0.420127
0.420178
0.420246
0.420334
0.420429
0.420401
0.420396
0.420182
0.420224
0.42033
0.420321
0.420316
0.420133
0.420164
0.420187
0.420024
0.38141
0.395685
0.407805
0.415664
0.419489
0.420439
0.420363
0.420456
0.42066
0.420443
0.420428
0.42062
0.420647
0.420609
0.420439
0.420491
0.420581
0.420464
0.420466
0.420466
0.420406
0.420366
0.420464
0.420475
0.420553
0.420571
0.42054
0.420535
0.420512
0.420462
0.420426
0.420421
0.420432
0.420406
0.42041
0.420344
0.420405
0.420645
0.420648
0.420649
0.420612
0.420391
0.420368
0.420402
0.420379
0.420319
0.420208
0.420157
0.420068
0.420034
0.420061
0.420062
0.420067
0.420068
0.420051
0.420001
0.420025
0.420012
0.420081
0.420097
0.420072
0.420064
0.420028
0.419924
0.419939
0.420053
0.420028
0.420072
0.420079
0.420049
0.419999
0.420183
0.420383
0.420369
0.420355
0.420227
0.420207
0.420123
0.420123
0.420124
0.420093
0.420078
0.420062
0.419964
0.420058
0.420274
0.420102
0.420076
0.420152
0.420018
0.381399
0.395672
0.407857
0.415721
0.419257
0.420004
0.419991
0.420201
0.420522
0.420551
0.42051
0.420424
0.420407
0.420224
0.420251
0.420487
0.420433
0.420436
0.420437
0.420459
0.420463
0.420449
0.420372
0.420462
0.420528
0.420369
0.420448
0.420622
0.42062
0.420618
0.420499
0.420504
0.420452
0.420429
0.420379
0.420457
0.42049
0.420441
0.420434
0.420434
0.420425
0.420297
0.420174
0.420099
0.420073
0.420057
0.42011
0.42013
0.420178
0.420213
0.420176
0.42007
0.42014
0.420346
0.420339
0.420343
0.420268
0.420145
0.420182
0.420247
0.420212
0.420169
0.420036
0.420034
0.42002
0.420152
0.420351
0.42035
0.420344
0.420194
0.42013
0.420171
0.420087
0.420178
0.420356
0.420255
0.420209
0.420185
0.420146
0.420119
0.420119
0.420012
0.420099
0.420318
0.420242
0.420238
0.420193
0.42021
0.420198
0.420049
0.38137
0.395696
0.407858
0.415715
0.419299
0.420099
0.420328
0.420398
0.420394
0.420391
0.420188
0.420264
0.420802
0.420883
0.420777
0.420879
0.421022
0.421005
0.421004
0.420872
0.420864
0.42086
0.420728
0.42076
0.420938
0.420936
0.420896
0.420673
0.420715
0.42076
0.420516
0.420538
0.420678
0.420617
0.420611
0.420595
0.420522
0.42035
0.420464
0.420605
0.42058
0.420562
0.420379
0.420436
0.420488
0.420439
0.420279
0.420312
0.420372
0.420344
0.420339
0.42021
0.420224
0.420229
0.420179
0.420144
0.420225
0.420322
0.420274
0.420282
0.420259
0.420145
0.419996
0.420107
0.420253
0.420147
0.420147
0.42014
0.420034
0.419961
0.420083
0.42014
0.41999
0.419979
0.420193
0.420314
0.420288
0.420253
0.420199
0.420014
0.420077
0.420284
0.420149
0.420087
0.420102
0.420058
0.420194
0.420322
0.420276
0.420105
0.381395
0.395698
0.407851
0.415511
0.419444
0.42091
0.421054
0.42116
0.421238
0.421216
0.42118
0.4212
0.421211
0.421194
0.421193
0.421145
0.421044
0.42107
0.421118
0.421004
0.421027
0.421061
0.421035
0.421001
0.420914
0.420881
0.420922
0.420926
0.420935
0.420892
0.4208
0.420754
0.420692
0.420501
0.420536
0.420596
0.4204
0.420384
0.420655
0.420725
0.420671
0.420556
0.420467
0.420562
0.420638
0.420613
0.42063
0.420569
0.420354
0.420401
0.420563
0.420401
0.420495
0.420575
0.420466
0.420457
0.420452
0.420463
0.420467
0.420455
0.420369
0.420319
0.420164
0.42017
0.420175
0.42
0.420005
0.420189
0.420257
0.42025
0.420223
0.420197
0.420194
0.420162
0.420078
0.420235
0.420363
0.420345
0.420335
0.420219
0.420192
0.420069
0.420163
0.420365
0.420341
0.420303
0.420117
0.420181
0.420241
0.420024
0.381384
0.395684
0.407866
0.415674
0.419302
0.420377
0.420438
0.420405
0.420399
0.420237
0.420285
0.420687
0.420737
0.420828
0.42086
0.420841
0.420798
0.420849
0.421062
0.421068
0.421113
0.421071
0.421039
0.420928
0.420989
0.421021
0.421004
0.421003
0.420952
0.420873
0.420703
0.420613
0.420578
0.420486
0.420546
0.420599
0.420438
0.420392
0.420451
0.420416
0.420545
0.420641
0.42044
0.420517
0.420648
0.420624
0.420628
0.420563
0.420517
0.420456
0.420357
0.420089
0.420081
0.420096
0.419996
0.419966
0.420139
0.420256
0.420222
0.420172
0.42003
0.42015
0.420244
0.420221
0.420213
0.420054
0.42002
0.419978
0.420104
0.420387
0.420369
0.420328
0.420109
0.42009
0.420203
0.420105
0.42022
0.420434
0.420436
0.420432
0.420311
0.42024
0.42021
0.420123
0.420228
0.420309
0.420203
0.420193
0.420174
0.420005
0.381382
0.395629
0.407987
0.415603
0.419265
0.420267
0.4203
0.420279
0.420231
0.420419
0.420604
0.420576
0.42053
0.420383
0.420533
0.420695
0.420651
0.420662
0.420615
0.420461
0.420405
0.420558
0.420609
0.420534
0.420518
0.420565
0.420473
0.420522
0.420698
0.420701
0.4207
0.420643
0.42062
0.420488
0.420564
0.420616
0.420579
0.420539
0.420492
0.420443
0.420398
0.420353
0.420288
0.420169
0.419995
0.420042
0.420146
0.420131
0.420127
0.419955
0.419989
0.420072
0.420075
0.420074
0.419876
0.419943
0.419999
0.419837
0.419888
0.420197
0.420216
0.420163
0.419966
0.419987
0.420099
0.419914
0.41996
0.420148
0.420083
0.42007
0.420034
0.420029
0.419936
0.42002
0.420103
0.419937
0.419984
0.420231
0.420238
0.420219
0.420066
0.420015
0.420222
0.420354
0.420347
0.420343
0.420141
0.420145
0.420202
0.420019
0.381399
0.395657
0.407871
0.415654
0.419391
0.420361
0.420386
0.42033
0.420291
0.420415
0.420479
0.420371
0.420376
0.42055
0.420576
0.420484
0.420617
0.420831
0.420735
0.420827
0.420864
0.420807
0.420802
0.42069
0.420748
0.420776
0.420593
0.420659
0.420687
0.420655
0.420578
0.420628
0.420744
0.420746
0.420743
0.420662
0.420679
0.420652
0.420606
0.420524
0.420463
0.420306
0.420078
0.420116
0.420158
0.420019
0.420131
0.420325
0.420306
0.420311
0.420245
0.420241
0.420235
0.420188
0.42006
0.420093
0.420108
0.419945
0.419954
0.420154
0.420205
0.420151
0.419952
0.419999
0.420182
0.420154
0.420116
0.419926
0.41998
0.420142
0.420133
0.420084
0.420065
0.420202
0.420155
0.420117
0.420138
0.420069
0.420173
0.420362
0.420148
0.420188
0.420345
0.420322
0.420317
0.42017
0.420205
0.420236
0.420185
0.42002
0.381377
0.395699
0.407835
0.415676
0.419357
0.420429
0.420588
0.420568
0.420564
0.420479
0.42044
0.420639
0.420726
0.420839
0.421025
0.420897
0.420893
0.420892
0.420779
0.420855
0.421006
0.420779
0.420796
0.420951
0.420893
0.420958
0.420999
0.420971
0.42097
0.420936
0.420894
0.420839
0.42075
0.420681
0.420637
0.420581
0.420519
0.420393
0.420234
0.420136
0.420104
0.420108
0.420124
0.420076
0.420149
0.42018
0.420147
0.420055
0.420121
0.420308
0.420186
0.420262
0.420355
0.420345
0.420331
0.420127
0.420019
0.420069
0.42009
0.419954
0.419973
0.420134
0.420029
0.420133
0.420303
0.420275
0.420238
0.420038
0.420101
0.420314
0.42032
0.420305
0.420076
0.420119
0.420217
0.420216
0.420215
0.41999
0.420045
0.420254
0.420252
0.420241
0.420121
0.420212
0.420296
0.420243
0.4201
0.420041
0.420117
0.419987
0.381396
0.395695
0.40786
0.41548
0.419494
0.420835
0.420973
0.420944
0.42083
0.420955
0.421074
0.420866
0.420934
0.421075
0.420891
0.420983
0.421102
0.421073
0.421069
0.420911
0.421017
0.421131
0.420903
0.420953
0.421136
0.421129
0.42109
0.421096
0.421047
0.420926
0.420714
0.420707
0.420723
0.420695
0.420629
0.420668
0.420733
0.420704
0.420687
0.420466
0.420499
0.420544
0.420494
0.420401
0.420309
0.420425
0.420515
0.420493
0.42049
0.420456
0.420394
0.420357
0.4203
0.420123
0.420157
0.420262
0.42026
0.420258
0.420052
0.420143
0.420312
0.4203
0.420289
0.420151
0.420122
0.419993
0.419991
0.420167
0.420219
0.420208
0.420183
0.420164
0.420162
0.420131
0.42007
0.420233
0.420357
0.420322
0.420264
0.420133
0.420231
0.420296
0.420266
0.420259
0.420101
0.42011
0.420229
0.420212
0.420163
0.420022
0.381386
0.395647
0.407899
0.41574
0.419236
0.42006
0.420194
0.420291
0.420195
0.420286
0.420325
0.420272
0.42029
0.420296
0.420219
0.420322
0.42057
0.42044
0.420542
0.420618
0.420446
0.420484
0.420726
0.420657
0.420778
0.420965
0.420815
0.420873
0.420888
0.420839
0.420695
0.420713
0.420727
0.420604
0.420537
0.420632
0.420678
0.420567
0.420585
0.420634
0.420614
0.420568
0.420567
0.420553
0.42048
0.420473
0.420431
0.420471
0.420486
0.420447
0.4204
0.420146
0.42016
0.420247
0.420245
0.420243
0.420028
0.420072
0.420266
0.420257
0.42022
0.420018
0.420021
0.420143
0.420147
0.420128
0.420045
0.420133
0.420263
0.420241
0.420227
0.420216
0.420168
0.419994
0.419978
0.420186
0.420109
0.420206
0.420401
0.42024
0.420332
0.420412
0.420405
0.420401
0.420207
0.420179
0.420382
0.42045
0.420394
0.420179
0.381396
0.395697
0.40785
0.41551
0.419425
0.420951
0.42115
0.421125
0.42103
0.421102
0.421205
0.42103
0.421105
0.421163
0.421078
0.421106
0.421065
0.420911
0.420975
0.421096
0.421002
0.421013
0.421015
0.421053
0.421057
0.421076
0.421004
0.42097
0.420941
0.42094
0.420938
0.42091
0.420848
0.420785
0.420713
0.420658
0.420593
0.420464
0.420291
0.420231
0.420189
0.420075
0.420156
0.420329
0.420326
0.420323
0.42022
0.420196
0.420044
0.42012
0.420236
0.420041
0.420103
0.420322
0.42031
0.420272
0.420174
0.420043
0.420012
0.42
0.420136
0.420397
0.42035
0.420344
0.420259
0.420338
0.420371
0.420359
0.420355
0.420139
0.420174
0.420211
0.420186
0.420184
0.42006
0.420232
0.420356
0.42031
0.420211
0.42011
0.420248
0.420347
0.42027
0.420264
0.420249
0.420037
0.420016
0.420148
0.420157
0.420045
0.381431
0.395679
0.407771
0.415682
0.419384
0.420297
0.420562
0.420621
0.420399
0.420434
0.420583
0.420577
0.420577
0.420436
0.420528
0.420703
0.420673
0.420612
0.420535
0.420604
0.420639
0.420557
0.420621
0.420791
0.4207
0.420651
0.420757
0.420805
0.420645
0.420691
0.420791
0.420576
0.420622
0.420744
0.420705
0.420696
0.42061
0.42059
0.420552
0.420547
0.420491
0.420461
0.420427
0.420398
0.42035
0.420252
0.419945
0.419966
0.420176
0.420046
0.420139
0.420197
0.420164
0.420067
0.420074
0.420363
0.420323
0.4204
0.420707
0.420714
0.420663
0.420476
0.420506
0.420583
0.420568
0.420561
0.420567
0.420571
0.420516
0.4205
0.420366
0.420166
0.420233
0.420356
0.420308
0.420178
0.420126
0.420162
0.420166
0.420077
0.420133
0.42031
0.42033
0.420331
0.420143
0.420137
0.420196
0.420202
0.420201
0.420023
0.381404
0.39571
0.407833
0.415498
0.419349
0.420994
0.421341
0.421318
0.421322
0.421308
0.421247
0.421285
0.421302
0.421251
0.421068
0.421049
0.42109
0.420892
0.42095
0.421096
0.420903
0.420855
0.420909
0.420887
0.420992
0.421041
0.421026
0.42102
0.420881
0.420869
0.420797
0.420766
0.420755
0.420628
0.420619
0.420575
0.420538
0.420499
0.420453
0.420411
0.420323
0.420083
0.420024
0.420149
0.420168
0.420116
0.419918
0.419942
0.420082
0.419927
0.420023
0.420159
0.420056
0.419952
0.420051
0.420229
0.420348
0.42046
0.420252
0.420313
0.420473
0.420262
0.420325
0.420442
0.420306
0.420308
0.420296
0.420211
0.420144
0.42013
0.42002
0.420114
0.420255
0.420272
0.420231
0.420085
0.420017
0.420186
0.420309
0.420309
0.420309
0.420255
0.420242
0.420044
0.420094
0.420274
0.420079
0.420123
0.420284
0.420066
0.381396
0.395698
0.407844
0.415535
0.419347
0.421078
0.421316
0.421302
0.421282
0.421291
0.421306
0.421276
0.421272
0.421095
0.421152
0.421192
0.420994
0.421074
0.421178
0.420952
0.421011
0.421168
0.421075
0.421051
0.421118
0.421144
0.421119
0.421111
0.420986
0.420926
0.420882
0.420818
0.420766
0.42072
0.420691
0.420651
0.420579
0.420427
0.420284
0.420207
0.42016
0.420022
0.420016
0.4201
0.420029
0.420021
0.419972
0.420076
0.420221
0.42019
0.420153
0.420042
0.419971
0.420057
0.420082
0.420204
0.42044
0.420313
0.420409
0.420482
0.420405
0.420443
0.42046
0.420415
0.420203
0.420183
0.420276
0.420251
0.420172
0.420234
0.420416
0.420435
0.420394
0.420347
0.420271
0.420205
0.420252
0.420281
0.420287
0.420244
0.420145
0.420073
0.420239
0.420318
0.420285
0.420257
0.420095
0.42015
0.420204
0.420029
0.381404
0.395709
0.407837
0.415479
0.419411
0.420896
0.421041
0.421169
0.421234
0.421067
0.421139
0.421173
0.421131
0.421003
0.421047
0.421125
0.420886
0.420934
0.421081
0.420931
0.420879
0.420903
0.420881
0.420971
0.421
0.42094
0.420935
0.420925
0.420945
0.420901
0.420862
0.420787
0.420534
0.42054
0.42065
0.420509
0.420573
0.420646
0.420629
0.42062
0.420494
0.420408
0.420342
0.42024
0.420135
0.420032
0.419977
0.41982
0.419827
0.420102
0.420128
0.420101
0.420082
0.419937
0.420021
0.420293
0.420443
0.420498
0.420344
0.42044
0.420511
0.420416
0.42047
0.420495
0.420445
0.420273
0.4203
0.420395
0.420322
0.420246
0.420297
0.420349
0.420209
0.420289
0.420328
0.420281
0.420132
0.420161
0.420271
0.420277
0.420278
0.420179
0.420156
0.419965
0.420009
0.420186
0.420132
0.420129
0.420079
0.419915
0.381392
0.395753
0.407739
0.415609
0.419427
0.420685
0.420787
0.420746
0.420609
0.420626
0.420737
0.420737
0.420738
0.420567
0.420651
0.42079
0.420661
0.420746
0.420793
0.420772
0.420717
0.420768
0.421044
0.420983
0.421062
0.421094
0.421061
0.421054
0.420952
0.420889
0.420853
0.420803
0.420757
0.420708
0.420653
0.420601
0.420519
0.420462
0.420403
0.420298
0.420188
0.420135
0.419985
0.419966
0.420026
0.419986
0.419992
0.419993
0.419986
0.419866
0.419909
0.420575
0.420811
0.420797
0.420741
0.420789
0.420841
0.420843
0.420844
0.420591
0.420625
0.42071
0.420595
0.420605
0.420596
0.420594
0.42056
0.420457
0.420531
0.420593
0.420571
0.420569
0.420492
0.420468
0.420309
0.420344
0.420374
0.420264
0.420274
0.420256
0.420064
0.42006
0.420157
0.420117
0.420131
0.420085
0.420016
0.420011
0.420008
0.4199
0.381402
0.395666
0.407853
0.415677
0.419336
0.420183
0.420209
0.42018
0.420235
0.42038
0.420367
0.420361
0.420225
0.420176
0.420446
0.420604
0.420572
0.420499
0.420459
0.420732
0.421131
0.421181
0.421151
0.421128
0.421121
0.421015
0.420875
0.42089
0.42094
0.420906
0.42089
0.420797
0.420679
0.420618
0.420517
0.420415
0.420492
0.420541
0.420495
0.420428
0.420256
0.420248
0.420264
0.420211
0.420028
0.42007
0.420158
0.420152
0.420151
0.420088
0.420079
0.420028
0.419872
0.419859
0.419978
0.419932
0.419956
0.419959
0.419969
0.419939
0.419903
0.419881
0.419833
0.419817
0.419781
0.419919
0.42005
0.419879
0.419843
0.420073
0.420281
0.420278
0.420316
0.420284
0.420246
0.42019
0.420104
0.420251
0.420386
0.420328
0.420346
0.420299
0.420139
0.420066
0.42012
0.420135
0.420023
0.420082
0.420173
0.419983
0.381397
0.395694
0.407863
0.41547
0.419516
0.420838
0.42094
0.420911
0.420864
0.420874
0.420821
0.420937
0.421065
0.421039
0.421004
0.420923
0.420908
0.420904
0.420911
0.420854
0.420992
0.421179
0.421179
0.421196
0.421139
0.421122
0.421142
0.421128
0.420926
0.420884
0.420821
0.420602
0.420661
0.420709
0.420695
0.420681
0.420478
0.420425
0.420375
0.420291
0.42024
0.420197
0.420146
0.420108
0.420054
0.419866
0.419835
0.419993
0.420092
0.420048
0.419908
0.419872
0.420229
0.420738
0.420717
0.42072
0.420659
0.420768
0.420865
0.420781
0.420776
0.420776
0.42067
0.420727
0.420761
0.420505
0.420532
0.420621
0.420408
0.420471
0.420627
0.420457
0.420535
0.420672
0.420669
0.420658
0.420658
0.420672
0.420644
0.420642
0.420573
0.420446
0.42018
0.420222
0.420316
0.420269
0.420168
0.420081
0.420091
0.419949
0.381396
0.395698
0.407848
0.415519
0.419402
0.421009
0.421185
0.421036
0.421139
0.421236
0.421123
0.421141
0.421098
0.421064
0.420972
0.421071
0.421181
0.420953
0.421006
0.421169
0.421165
0.421138
0.421149
0.421333
0.421343
0.421272
0.421267
0.421245
0.42112
0.421071
0.421015
0.420897
0.420814
0.420758
0.420684
0.42046
0.420458
0.420471
0.420254
0.420318
0.420478
0.420462
0.420437
0.420173
0.420178
0.420262
0.42013
0.420222
0.420281
0.420244
0.420197
0.420046
0.420251
0.420759
0.420683
0.420811
0.420926
0.420847
0.420846
0.420789
0.420785
0.420714
0.420797
0.420842
0.4206
0.420642
0.420729
0.420518
0.420593
0.420724
0.420691
0.420721
0.420715
0.42068
0.420697
0.420703
0.42064
0.42063
0.420528
0.42054
0.420543
0.420503
0.420481
0.420482
0.420408
0.420164
0.420194
0.420322
0.420282
0.420113
0.381404
0.395639
0.407893
0.415709
0.419217
0.420385
0.420449
0.420422
0.420391
0.420333
0.420349
0.420355
0.420241
0.420274
0.420695
0.420757
0.420751
0.42105
0.421269
0.421246
0.421205
0.421124
0.421114
0.421094
0.421116
0.421076
0.420985
0.421036
0.421055
0.421021
0.421031
0.420997
0.420948
0.420874
0.420712
0.420647
0.420552
0.420345
0.420175
0.420274
0.420369
0.420288
0.420307
0.420311
0.420268
0.420231
0.420214
0.420077
0.420118
0.420206
0.419954
0.41998
0.420081
0.42004
0.420037
0.419931
0.420057
0.420169
0.420124
0.420125
0.420125
0.42003
0.420071
0.420397
0.420428
0.420369
0.420212
0.420166
0.42026
0.420226
0.420311
0.42034
0.420306
0.420209
0.420252
0.420312
0.420117
0.420174
0.420356
0.420248
0.420175
0.420137
0.420018
0.420015
0.42025
0.42032
0.420272
0.42027
0.420217
0.419986
0.381389
0.395726
0.407787
0.415592
0.419482
0.42064
0.420928
0.420896
0.42071
0.420753
0.420912
0.4209
0.420901
0.420809
0.4208
0.420801
0.420747
0.420722
0.420785
0.420832
0.420802
0.420701
0.420832
0.421026
0.420825
0.420886
0.421062
0.421048
0.421017
0.420962
0.420876
0.420598
0.420623
0.420658
0.42064
0.420633
0.420544
0.420527
0.42046
0.420332
0.420149
0.42009
0.420028
0.41989
0.419822
0.419889
0.419958
0.419921
0.419863
0.41975
0.419886
0.420049
0.420058
0.420059
0.419835
0.419888
0.420002
0.419819
0.419899
0.420108
0.42004
0.420057
0.420117
0.420109
0.420077
0.420065
0.420025
0.419972
0.41983
0.419959
0.420157
0.420136
0.420059
0.420101
0.420152
0.419954
0.420043
0.42016
0.420125
0.420056
0.420008
0.420205
0.420316
0.420295
0.420292
0.420248
0.420154
0.420052
0.42
0.419847
0.381396
0.395696
0.407856
0.415491
0.419482
0.420858
0.42097
0.420939
0.420883
0.421027
0.421137
0.420972
0.42107
0.421172
0.421129
0.421113
0.421124
0.421134
0.420983
0.420965
0.421032
0.420986
0.421126
0.421232
0.421221
0.42122
0.421178
0.421158
0.421031
0.420975
0.420884
0.420792
0.420734
0.420671
0.420551
0.420356
0.420377
0.420401
0.420362
0.420335
0.420298
0.420227
0.42019
0.420147
0.420085
0.420014
0.41978
0.419771
0.419987
0.420048
0.420012
0.419909
0.419932
0.42002
0.420018
0.420009
0.419904
0.41982
0.419964
0.420027
0.419881
0.419866
0.420111
0.420246
0.420177
0.420174
0.420171
0.420128
0.419951
0.419983
0.420051
0.41989
0.419953
0.420263
0.420288
0.42026
0.42026
0.420224
0.42016
0.420113
0.420058
0.419886
0.419908
0.42019
0.420215
0.420177
0.420002
0.420075
0.420218
0.420008
0.381396
0.395699
0.407844
0.415537
0.419348
0.421081
0.421319
0.42129
0.421283
0.421119
0.421195
0.42125
0.421109
0.421187
0.421226
0.42104
0.421121
0.421232
0.421005
0.421055
0.421224
0.421065
0.421036
0.421208
0.421311
0.421291
0.421304
0.421258
0.421222
0.42122
0.421225
0.421217
0.421142
0.421026
0.42077
0.420502
0.420485
0.42053
0.420511
0.420504
0.420413
0.420314
0.420259
0.420221
0.42021
0.4201
0.420119
0.420143
0.420119
0.420113
0.419929
0.419956
0.420591
0.420902
0.420758
0.420855
0.420934
0.420902
0.420919
0.420869
0.420851
0.420817
0.420843
0.420799
0.420595
0.420578
0.420634
0.42046
0.420534
0.420667
0.420544
0.420552
0.42054
0.420558
0.420514
0.42034
0.420388
0.420463
0.42044
0.420404
0.420411
0.420425
0.420199
0.420255
0.420341
0.42034
0.42034
0.420266
0.420239
0.419971
0.381396
0.395698
0.407848
0.415519
0.419402
0.421011
0.421187
0.421039
0.421142
0.421239
0.421121
0.421128
0.421129
0.421131
0.420996
0.421076
0.421184
0.420954
0.421006
0.421169
0.421061
0.421164
0.421251
0.421151
0.421216
0.421237
0.421216
0.421214
0.421133
0.421068
0.421001
0.420884
0.420674
0.420611
0.420564
0.420462
0.42045
0.420428
0.420265
0.420322
0.420483
0.420464
0.420439
0.420175
0.42018
0.420262
0.42017
0.420228
0.420259
0.420218
0.420154
0.420052
0.420301
0.420655
0.420641
0.420625
0.420701
0.420756
0.420732
0.420726
0.420502
0.420565
0.420677
0.420468
0.420541
0.420643
0.420516
0.420516
0.420503
0.420352
0.420375
0.420546
0.420548
0.420553
0.420545
0.420496
0.420402
0.420336
0.420279
0.420099
0.420167
0.420323
0.420115
0.420189
0.42031
0.420279
0.420275
0.420265
0.420251
0.419986
0.381397
0.395694
0.407864
0.41547
0.419517
0.420806
0.420833
0.420953
0.421065
0.420981
0.421005
0.420998
0.420868
0.42093
0.421084
0.421054
0.420944
0.420939
0.421017
0.420928
0.421021
0.421093
0.421045
0.420877
0.420908
0.421009
0.420788
0.420828
0.421033
0.421044
0.421052
0.420927
0.420893
0.420886
0.420878
0.420827
0.420774
0.420672
0.42044
0.420196
0.420191
0.420202
0.42014
0.420135
0.420103
0.419945
0.419844
0.42003
0.420141
0.420113
0.420089
0.419966
0.420266
0.420692
0.420665
0.420666
0.420642
0.420714
0.420801
0.42077
0.420731
0.420587
0.42062
0.420674
0.420639
0.420595
0.420504
0.42045
0.420282
0.420279
0.420508
0.420547
0.42052
0.420508
0.420339
0.420361
0.420475
0.420359
0.420442
0.420485
0.42046
0.420458
0.420379
0.420355
0.420303
0.420135
0.420189
0.420316
0.420269
0.420096
0.381404
0.395661
0.407868
0.415653
0.419328
0.420298
0.420375
0.42034
0.420216
0.420364
0.420572
0.420556
0.420538
0.420415
0.420411
0.420397
0.420541
0.42065
0.420493
0.42057
0.420826
0.420924
0.421016
0.420839
0.420886
0.421056
0.421042
0.420939
0.420963
0.421006
0.420976
0.420969
0.420888
0.420883
0.420826
0.420713
0.420483
0.420493
0.420509
0.420339
0.420416
0.420467
0.420352
0.420328
0.420317
0.420321
0.42034
0.420334
0.420274
0.420234
0.420268
0.420297
0.420272
0.420245
0.420038
0.41999
0.419944
0.419778
0.419761
0.420048
0.420162
0.420134
0.420109
0.419983
0.420113
0.420329
0.420313
0.420254
0.420256
0.42016
0.420198
0.420392
0.420304
0.420414
0.42048
0.42033
0.420401
0.420436
0.420329
0.420368
0.420384
0.420335
0.420141
0.420126
0.420283
0.420287
0.420363
0.420382
0.420317
0.420052
0.381435
0.395666
0.407785
0.415687
0.419365
0.420275
0.420546
0.42061
0.420549
0.420544
0.420492
0.420476
0.42033
0.4204
0.420724
0.420747
0.420701
0.420602
0.420579
0.420475
0.420513
0.420936
0.421022
0.420984
0.420924
0.420786
0.420848
0.420934
0.420886
0.420878
0.420845
0.420609
0.420593
0.42067
0.420681
0.420671
0.420461
0.420468
0.420476
0.420412
0.420407
0.420417
0.420412
0.42038
0.420322
0.420243
0.420206
0.4202
0.420139
0.420096
0.4199
0.419855
0.420001
0.420015
0.420026
0.41998
0.420038
0.420051
0.420186
0.420419
0.420399
0.420316
0.42032
0.420385
0.420343
0.420337
0.420204
0.420286
0.420337
0.420173
0.420269
0.420363
0.420354
0.420352
0.420154
0.420215
0.420349
0.420337
0.420336
0.420282
0.420179
0.420055
0.420157
0.420255
0.420204
0.420083
0.419991
0.420084
0.420114
0.419972
0.38143
0.395679
0.407773
0.415683
0.419384
0.420296
0.420555
0.420615
0.420415
0.42048
0.420526
0.420491
0.420392
0.420367
0.42067
0.420759
0.420706
0.42056
0.42051
0.420787
0.420936
0.420869
0.420867
0.420877
0.420881
0.420886
0.420858
0.420734
0.420725
0.420678
0.420477
0.4205
0.420712
0.420762
0.42072
0.420666
0.42063
0.420481
0.420333
0.420331
0.42033
0.420294
0.420271
0.420041
0.419965
0.420053
0.42009
0.420042
0.419858
0.419877
0.420205
0.420178
0.420223
0.420552
0.420618
0.420575
0.420506
0.420348
0.42045
0.420591
0.420535
0.420565
0.420521
0.420306
0.420285
0.42037
0.420227
0.420313
0.42044
0.420438
0.420438
0.420363
0.420342
0.420137
0.42019
0.420306
0.420287
0.420287
0.420201
0.420193
0.420164
0.420156
0.420153
0.420158
0.420107
0.419946
0.42004
0.420221
0.420181
0.420018
0.381396
0.395698
0.407846
0.415523
0.419387
0.421023
0.421225
0.421142
0.421137
0.421095
0.421182
0.421252
0.421177
0.421215
0.421235
0.421197
0.421023
0.421079
0.421177
0.420952
0.421011
0.421169
0.421022
0.421081
0.421125
0.421067
0.42109
0.421092
0.421052
0.420829
0.420755
0.420723
0.420541
0.420605
0.420665
0.420441
0.42039
0.420447
0.420426
0.420421
0.420399
0.420231
0.420251
0.420417
0.420253
0.42034
0.420458
0.420274
0.420357
0.420433
0.42042
0.420415
0.420278
0.420252
0.420099
0.420162
0.420396
0.420322
0.420351
0.420307
0.420293
0.420286
0.420296
0.420286
0.420147
0.420198
0.420329
0.420254
0.420169
0.420235
0.420416
0.420434
0.420394
0.420348
0.420228
0.420248
0.42033
0.42032
0.420315
0.420197
0.420183
0.420059
0.420159
0.420357
0.420331
0.420294
0.420113
0.420182
0.420245
0.420028
0.381404
0.395711
0.40783
0.415505
0.419321
0.42106
0.421308
0.421248
0.421266
0.42125
0.421172
0.421208
0.42125
0.421217
0.421192
0.421244
0.421296
0.42127
0.421258
0.421266
0.421282
0.421246
0.421202
0.421095
0.421154
0.421174
0.421104
0.421099
0.421091
0.421091
0.421101
0.421099
0.421026
0.420858
0.420595
0.420638
0.420701
0.420665
0.420635
0.420402
0.420421
0.420464
0.420419
0.420288
0.420315
0.420356
0.420202
0.420145
0.42029
0.420427
0.420365
0.420369
0.420361
0.420252
0.420187
0.42036
0.420436
0.420395
0.420319
0.42023
0.42028
0.420229
0.420332
0.420545
0.420402
0.420478
0.420625
0.420568
0.420569
0.42056
0.420437
0.420345
0.420401
0.420508
0.42049
0.420469
0.420319
0.420253
0.420305
0.420374
0.420338
0.420253
0.420227
0.420041
0.419977
0.420079
0.420144
0.420115
0.420073
0.419934
0.381394
0.395747
0.407758
0.415562
0.419484
0.420669
0.420729
0.420699
0.420685
0.420631
0.420446
0.420502
0.420668
0.420445
0.420463
0.420604
0.420618
0.420622
0.420518
0.420658
0.420866
0.420817
0.420808
0.420773
0.420771
0.420746
0.420719
0.420526
0.420495
0.420725
0.420762
0.420716
0.420521
0.420542
0.42064
0.420653
0.420653
0.420592
0.420575
0.420475
0.420359
0.420258
0.42001
0.419926
0.420073
0.42011
0.420066
0.419922
0.419961
0.420198
0.420201
0.420191
0.420111
0.420017
0.420063
0.420062
0.420141
0.420524
0.420575
0.420502
0.420505
0.420463
0.420347
0.420285
0.420332
0.420312
0.420409
0.420446
0.420369
0.420363
0.420358
0.420221
0.420277
0.420353
0.420153
0.420235
0.420351
0.420178
0.420106
0.420183
0.420259
0.420301
0.420326
0.420304
0.420293
0.42011
0.420166
0.420323
0.420283
0.420108
0.381396
0.395698
0.407848
0.415515
0.419418
0.420944
0.421148
0.421269
0.421268
0.421219
0.421198
0.421217
0.421227
0.42104
0.421086
0.421155
0.421012
0.421122
0.421209
0.421006
0.421082
0.421181
0.421139
0.421169
0.421158
0.421109
0.420971
0.420811
0.420852
0.420954
0.420905
0.420935
0.420896
0.42084
0.42077
0.420693
0.420534
0.420383
0.420312
0.420247
0.420157
0.420118
0.419994
0.419997
0.420119
0.419997
0.420013
0.42014
0.420035
0.420134
0.420336
0.42036
0.420319
0.420173
0.420103
0.420217
0.420332
0.420297
0.420179
0.420233
0.420322
0.420118
0.420173
0.420313
0.420094
0.420097
0.420228
0.420144
0.420105
0.42021
0.420267
0.420346
0.420365
0.420322
0.420194
0.420212
0.420293
0.420272
0.420244
0.42011
0.420212
0.420337
0.420304
0.42031
0.42026
0.420037
0.420012
0.42014
0.42015
0.42004
0.381383
0.395668
0.40789
0.415695
0.419283
0.42018
0.420201
0.420113
0.420156
0.420444
0.420477
0.420424
0.420317
0.420215
0.420473
0.420778
0.420764
0.420693
0.420769
0.420985
0.420834
0.420809
0.421039
0.421184
0.421117
0.421157
0.421166
0.421128
0.421067
0.4208
0.420743
0.420728
0.420739
0.420736
0.420567
0.420636
0.420655
0.420563
0.420487
0.420518
0.420565
0.420505
0.420339
0.420294
0.420338
0.420281
0.420366
0.420405
0.420373
0.420358
0.420239
0.420166
0.419937
0.419931
0.42018
0.4202
0.420159
0.419988
0.420007
0.420125