/*--------------------------------*- C++ -*----------------------------------*\
  =========                 |
  \\      /  F ield         | OpenFOAM: The Open Source CFD Toolbox
   \\    /   O peration     | Website:  https://openfoam.org
    \\  /    A nd           | Version:  11
     \\/     M anipulation  |
\*---------------------------------------------------------------------------*/
FoamFile
{
    format      ascii;
    class       volScalarField;
    location    "0.056";
    object      nut;
}
// * * * * * * * * * * * * * * * * * * * * * * * * * * * * * * * * * * * * * //

dimensions      [0 2 -1 0 0 0 0];

internalField   nonuniform List<scalar> 
287084
(
0.00083609
0.000868479
0.000897014
0.000915802
0.000924894
0.000927522
0.000928007
0.000928156
0.000927977
0.000928271
0.000928654
0.000928491
0.000928537
0.000928541
0.000928407
0.000928134
0.00092786
0.000927848
0.000927703
0.000927908
0.000928336
0.000927996
0.000928086
0.000928138
0.00092806
0.000928053
0.000927765
0.000927952
0.000928234
0.000928217
0.00092829
0.000928395
0.000928523
0.000928217
0.000928177
0.00092837
0.000928499
0.000928735
0.000928809
0.000928858
0.000928719
0.000928897
0.000929066
0.000928986
0.00092909
0.000929153
0.00092892
0.000929128
0.000929639
0.000929293
0.000929484
0.000929778
0.00092979
0.000929784
0.000929362
0.00092916
0.000929329
0.000929401
0.00092923
0.000929411
0.000929474
0.000929141
0.000929018
0.000929471
0.000929843
0.000929782
0.000929716
0.000929304
0.000929422
0.000929667
0.000929559
0.000929331
0.000929121
0.000929228
0.000929219
0.000929455
0.000929523
0.000929461
0.000929314
0.000929361
0.000929653
0.000929483
0.000929592
0.000929638
0.000929527
0.000929382
0.000928908
0.000929023
0.000929212
0.000928798
0.00118186
0.00122608
0.00126443
0.00128952
0.0013014
0.00130454
0.00130476
0.00130452
0.00130484
0.00130535
0.00130537
0.00130519
0.00130477
0.00130474
0.00130451
0.00130395
0.001304
0.00130423
0.001304
0.00130369
0.00130374
0.0013045
0.00130485
0.00130475
0.00130472
0.00130451
0.0013042
0.00130429
0.00130395
0.00130422
0.00130474
0.00130469
0.00130494
0.00130502
0.00130505
0.00130527
0.00130531
0.00130487
0.00130515
0.0013061
0.00130633
0.00130638
0.00130587
0.00130599
0.00130668
0.00130704
0.00130705
0.00130707
0.00130715
0.00130711
0.00130696
0.00130637
0.00130654
0.00130673
0.00130658
0.0013066
0.00130656
0.00130608
0.00130612
0.00130669
0.00130637
0.00130669
0.0013069
0.00130678
0.0013066
0.00130631
0.00130668
0.00130702
0.00130686
0.00130634
0.0013065
0.00130725
0.00130719
0.00130707
0.00130687
0.0013068
0.00130618
0.00130635
0.00130684
0.00130652
0.00130655
0.00130649
0.00130598
0.00130602
0.00130655
0.0013066
0.00130649
0.0013064
0.00130623
0.00130548
0.00118192
0.00122624
0.00126466
0.00128964
0.00130133
0.00130516
0.00130561
0.00130553
0.00130509
0.00130522
0.00130561
0.0013052
0.00130508
0.00130499
0.00130452
0.00130438
0.00130484
0.00130501
0.00130474
0.00130416
0.00130392
0.00130404
0.00130401
0.00130456
0.00130489
0.0013048
0.0013047
0.00130444
0.00130447
0.0013045
0.00130453
0.00130453
0.00130451
0.0013047
0.00130493
0.00130471
0.00130491
0.00130549
0.00130563
0.00130605
0.00130629
0.00130619
0.00130646
0.00130665
0.00130668
0.0013068
0.00130667
0.00130702
0.00130731
0.00130725
0.00130706
0.0013068
0.00130667
0.00130617
0.00130617
0.00130671
0.00130676
0.00130641
0.00130651
0.00130693
0.00130675
0.00130673
0.0013067
0.00130625
0.00130624
0.00130693
0.0013072
0.00130711
0.00130703
0.00130674
0.00130672
0.00130671
0.00130615
0.00130599
0.00130624
0.0013063
0.00130621
0.00130622
0.00130614
0.00130599
0.00130574
0.00130609
0.00130676
0.00130629
0.00130611
0.00130615
0.00130589
0.0013058
0.00130591
0.00130551
0.00118186
0.00122651
0.00126484
0.00128969
0.00130177
0.00130572
0.00130616
0.00130601
0.00130549
0.00130555
0.00130599
0.00130589
0.00130575
0.00130489
0.00130479
0.00130529
0.00130531
0.0013051
0.00130492
0.00130466
0.00130441
0.00130408
0.00130393
0.00130381
0.0013039
0.00130395
0.00130391
0.00130375
0.0013039
0.00130479
0.00130515
0.00130519
0.00130512
0.00130515
0.00130539
0.00130564
0.00130569
0.00130556
0.00130533
0.00130585
0.00130624
0.0013063
0.00130607
0.00130643
0.00130681
0.00130695
0.00130706
0.0013069
0.00130694
0.00130656
0.00130674
0.00130686
0.00130682
0.00130683
0.00130646
0.00130644
0.00130608
0.00130606
0.00130699
0.00130727
0.00130711
0.00130676
0.00130643
0.0013066
0.00130648
0.00130687
0.00130722
0.00130663
0.0013069
0.00130726
0.00130669
0.00130646
0.00130657
0.00130663
0.00130637
0.00130651
0.0013067
0.00130696
0.00130724
0.00130714
0.00130711
0.00130643
0.00130655
0.00130687
0.00130683
0.00130681
0.00130622
0.00130631
0.00130638
0.00130583
0.00118188
0.00122661
0.00126488
0.00128983
0.00130206
0.00130516
0.00130496
0.00130522
0.0013058
0.00130506
0.00130493
0.00130543
0.00130541
0.00130518
0.00130453
0.00130457
0.00130472
0.00130424
0.00130412
0.00130401
0.00130372
0.00130352
0.00130376
0.00130375
0.00130397
0.00130403
0.00130397
0.00130402
0.00130405
0.00130403
0.00130407
0.00130423
0.00130447
0.0013046
0.00130485
0.00130488
0.00130532
0.0013063
0.00130655
0.00130678
0.00130688
0.0013064
0.00130651
0.00130678
0.00130686
0.00130681
0.00130658
0.00130652
0.00130632
0.00130628
0.00130642
0.00130647
0.00130651
0.00130654
0.0013065
0.00130635
0.00130642
0.00130638
0.00130658
0.00130662
0.00130652
0.00130648
0.00130634
0.001306
0.00130602
0.00130635
0.00130625
0.00130636
0.00130636
0.00130624
0.00130606
0.00130661
0.00130721
0.00130715
0.00130708
0.00130666
0.00130658
0.0013063
0.00130629
0.00130628
0.00130617
0.00130611
0.00130605
0.00130573
0.00130601
0.00130668
0.00130613
0.00130604
0.00130627
0.00130582
0.00118184
0.00122659
0.0012651
0.00129011
0.00130146
0.00130393
0.0013039
0.00130451
0.00130544
0.00130544
0.00130521
0.00130484
0.00130466
0.00130397
0.00130392
0.00130452
0.00130422
0.00130409
0.00130397
0.00130392
0.00130383
0.00130369
0.00130338
0.00130361
0.0013038
0.00130331
0.00130359
0.00130421
0.00130431
0.00130444
0.00130423
0.00130444
0.00130449
0.00130466
0.00130475
0.00130525
0.00130561
0.00130571
0.00130594
0.00130618
0.00130637
0.00130618
0.00130599
0.00130592
0.00130599
0.00130607
0.00130635
0.00130651
0.00130674
0.00130691
0.00130684
0.00130655
0.0013068
0.00130745
0.00130744
0.00130746
0.00130722
0.00130682
0.00130693
0.00130711
0.00130699
0.00130683
0.00130639
0.00130636
0.00130629
0.00130668
0.00130727
0.00130724
0.00130719
0.0013067
0.00130648
0.00130658
0.0013063
0.00130656
0.00130709
0.00130676
0.00130659
0.0013065
0.00130636
0.00130626
0.00130625
0.0013059
0.00130616
0.00130683
0.00130658
0.00130657
0.00130642
0.00130646
0.00130641
0.00130591
0.00118176
0.00122669
0.00126514
0.00129015
0.00130166
0.00130429
0.00130501
0.00130517
0.00130508
0.00130497
0.00130422
0.00130434
0.00130588
0.001306
0.00130552
0.00130569
0.00130599
0.0013058
0.00130566
0.00130512
0.00130498
0.00130487
0.00130438
0.00130443
0.00130496
0.00130496
0.00130488
0.00130426
0.00130451
0.00130479
0.00130422
0.0013045
0.00130516
0.00130523
0.00130548
0.0013057
0.00130575
0.00130549
0.0013061
0.00130679
0.00130694
0.0013071
0.00130672
0.00130707
0.00130738
0.00130736
0.00130697
0.00130716
0.00130743
0.0013074
0.00130743
0.00130706
0.00130712
0.00130715
0.001307
0.00130689
0.00130713
0.00130742
0.00130725
0.00130726
0.00130716
0.00130678
0.00130629
0.00130661
0.00130703
0.00130668
0.00130665
0.0013066
0.00130624
0.00130598
0.00130634
0.00130649
0.001306
0.00130594
0.00130659
0.00130694
0.00130684
0.00130671
0.00130653
0.00130594
0.00130612
0.00130675
0.00130632
0.00130611
0.00130615
0.00130601
0.00130642
0.00130681
0.00130666
0.00130609
0.00118184
0.0012267
0.00126514
0.00128955
0.00130215
0.00130686
0.00130732
0.00130758
0.00130773
0.00130755
0.00130731
0.00130724
0.00130713
0.00130693
0.00130677
0.00130647
0.00130599
0.00130592
0.00130592
0.00130543
0.00130538
0.00130538
0.00130521
0.00130505
0.00130475
0.00130466
0.00130483
0.00130493
0.00130508
0.00130511
0.00130502
0.00130511
0.00130517
0.00130485
0.00130525
0.00130573
0.00130542
0.00130566
0.00130678
0.00130725
0.00130733
0.00130719
0.0013071
0.00130757
0.00130796
0.00130801
0.00130817
0.00130807
0.00130747
0.00130767
0.00130821
0.00130773
0.00130804
0.0013083
0.00130796
0.00130792
0.00130789
0.00130791
0.00130789
0.00130783
0.00130753
0.00130735
0.00130684
0.00130683
0.00130681
0.00130624
0.00130622
0.00130677
0.00130695
0.0013069
0.00130679
0.00130668
0.00130665
0.00130652
0.00130623
0.0013067
0.00130708
0.00130701
0.00130696
0.00130658
0.00130648
0.00130609
0.00130637
0.00130698
0.0013069
0.00130677
0.00130618
0.00130637
0.00130655
0.00130584
0.0011818
0.00122667
0.0012652
0.00129009
0.00130174
0.00130524
0.00130544
0.00130526
0.00130514
0.00130452
0.00130453
0.00130564
0.00130564
0.00130575
0.00130569
0.00130546
0.00130515
0.00130515
0.00130565
0.00130551
0.00130552
0.00130527
0.00130508
0.00130468
0.00130484
0.00130495
0.00130494
0.00130503
0.00130501
0.00130494
0.00130463
0.00130461
0.00130478
0.00130479
0.00130529
0.00130578
0.00130559
0.00130576
0.00130623
0.0013064
0.00130705
0.00130757
0.00130715
0.00130756
0.00130812
0.00130817
0.00130829
0.00130817
0.00130809
0.00130794
0.00130767
0.00130685
0.00130683
0.00130688
0.00130656
0.00130645
0.00130697
0.00130731
0.00130718
0.00130699
0.00130652
0.00130686
0.00130712
0.00130701
0.00130695
0.00130643
0.00130629
0.00130613
0.00130649
0.00130734
0.00130725
0.0013071
0.00130639
0.0013063
0.00130663
0.00130631
0.00130664
0.00130729
0.00130728
0.00130725
0.00130686
0.00130662
0.00130652
0.00130623
0.00130654
0.00130679
0.00130645
0.0013064
0.00130634
0.00130577
0.0011818
0.0012265
0.00126559
0.00128988
0.00130165
0.00130492
0.00130502
0.00130488
0.00130463
0.00130508
0.00130551
0.00130527
0.00130496
0.00130433
0.00130461
0.00130494
0.00130461
0.00130447
0.00130415
0.00130351
0.00130319
0.00130354
0.00130359
0.00130329
0.00130321
0.00130337
0.00130313
0.00130339
0.00130409
0.00130429
0.00130453
0.00130463
0.00130487
0.00130478
0.00130536
0.00130586
0.00130609
0.00130629
0.00130646
0.0013066
0.00130672
0.00130681
0.00130682
0.00130662
0.00130623
0.0013065
0.00130692
0.00130695
0.00130699
0.0013065
0.00130663
0.0013069
0.00130691
0.0013069
0.00130626
0.00130645
0.0013066
0.00130606
0.00130619
0.00130711
0.00130714
0.00130694
0.00130628
0.00130631
0.00130663
0.00130601
0.00130612
0.00130667
0.00130644
0.00130636
0.00130622
0.00130618
0.00130586
0.0013061
0.00130633
0.00130579
0.00130592
0.00130666
0.00130667
0.00130659
0.0013061
0.00130592
0.00130656
0.00130695
0.00130692
0.0013069
0.00130626
0.00130626
0.00130644
0.00130582
0.00118185
0.00122659
0.00126523
0.00129005
0.00130205
0.00130522
0.0013053
0.00130505
0.00130481
0.00130506
0.0013051
0.0013046
0.00130444
0.0013048
0.00130469
0.0013042
0.00130442
0.00130489
0.0013044
0.00130451
0.00130446
0.00130415
0.00130402
0.0013036
0.00130375
0.00130384
0.00130334
0.00130365
0.00130391
0.00130402
0.00130405
0.00130451
0.0013052
0.00130557
0.00130594
0.00130606
0.00130647
0.00130674
0.00130693
0.00130698
0.00130706
0.00130681
0.00130631
0.00130661
0.00130689
0.00130657
0.00130701
0.00130769
0.00130768
0.00130773
0.00130754
0.00130753
0.0013075
0.00130734
0.00130692
0.00130699
0.001307
0.00130646
0.00130645
0.00130703
0.00130715
0.00130694
0.00130628
0.00130638
0.00130691
0.00130678
0.00130663
0.001306
0.00130613
0.0013066
0.00130655
0.00130636
0.00130627
0.00130667
0.0013065
0.00130636
0.0013064
0.00130617
0.00130647
0.00130704
0.00130636
0.00130647
0.00130694
0.00130686
0.00130683
0.00130636
0.00130646
0.00130655
0.00130639
0.00130583
0.00118178
0.00122672
0.00126512
0.00129012
0.00130195
0.00130544
0.00130593
0.00130578
0.00130565
0.00130524
0.00130496
0.0013054
0.00130548
0.00130563
0.001306
0.0013054
0.00130517
0.00130496
0.0013044
0.00130445
0.00130474
0.00130389
0.00130382
0.00130422
0.001304
0.00130422
0.00130441
0.00130445
0.00130463
0.00130476
0.00130493
0.00130509
0.00130518
0.00130536
0.00130563
0.00130586
0.00130606
0.00130604
0.0013059
0.00130591
0.0013061
0.00130636
0.00130662
0.00130665
0.00130702
0.00130723
0.00130722
0.00130699
0.00130724
0.00130784
0.00130747
0.0013077
0.00130798
0.00130792
0.00130784
0.00130717
0.00130679
0.00130691
0.00130693
0.00130646
0.00130647
0.00130692
0.00130655
0.00130683
0.00130731
0.00130719
0.00130703
0.00130637
0.00130653
0.00130715
0.00130714
0.00130706
0.00130632
0.00130642
0.0013067
0.00130667
0.00130665
0.00130592
0.00130607
0.00130671
0.00130669
0.00130664
0.00130624
0.00130652
0.00130677
0.00130659
0.00130613
0.00130594
0.00130617
0.00130572
0.00118184
0.00122671
0.0012652
0.00128951
0.00130238
0.0013067
0.00130712
0.00130695
0.00130646
0.0013067
0.0013069
0.00130606
0.00130608
0.0013063
0.00130551
0.00130557
0.00130571
0.00130539
0.00130516
0.00130446
0.00130461
0.0013048
0.00130396
0.00130402
0.00130455
0.00130454
0.0013045
0.00130465
0.00130471
0.0013046
0.00130426
0.0013046
0.00130506
0.0013054
0.00130563
0.00130619
0.00130682
0.00130713
0.00130744
0.00130709
0.00130749
0.00130788
0.00130794
0.00130783
0.00130769
0.00130816
0.00130852
0.0013085
0.00130853
0.00130844
0.00130824
0.00130811
0.00130791
0.00130732
0.00130739
0.00130767
0.00130762
0.00130756
0.00130686
0.0013071
0.00130757
0.00130748
0.0013074
0.00130692
0.00130678
0.00130633
0.00130628
0.00130679
0.00130691
0.00130684
0.00130673
0.00130663
0.0013066
0.00130647
0.00130625
0.00130673
0.0013071
0.00130697
0.00130676
0.00130634
0.00130662
0.00130681
0.0013067
0.00130667
0.00130616
0.00130618
0.00130654
0.00130648
0.00130632
0.00130584
0.00118181
0.00122656
0.00126532
0.00129032
0.00130157
0.00130429
0.0013047
0.0013049
0.00130447
0.0013046
0.00130454
0.00130417
0.00130401
0.00130381
0.00130334
0.00130342
0.00130394
0.0013033
0.00130338
0.00130339
0.00130266
0.0013026
0.00130321
0.0013029
0.00130323
0.00130383
0.00130345
0.00130378
0.00130405
0.00130419
0.0013041
0.00130455
0.00130504
0.00130512
0.00130538
0.00130615
0.00130674
0.00130682
0.00130727
0.00130777
0.00130802
0.00130813
0.00130835
0.00130848
0.0013084
0.00130848
0.00130842
0.00130859
0.00130866
0.00130854
0.00130838
0.00130757
0.00130757
0.0013078
0.00130775
0.00130769
0.00130696
0.00130704
0.00130759
0.0013075
0.00130733
0.00130664
0.0013066
0.00130693
0.00130689
0.00130678
0.00130647
0.0013067
0.00130707
0.00130696
0.00130688
0.00130681
0.00130662
0.00130605
0.00130597
0.00130659
0.00130633
0.00130661
0.0013072
0.00130668
0.00130694
0.00130717
0.00130714
0.00130711
0.00130649
0.0013064
0.00130702
0.00130722
0.00130704
0.00130633
0.00118184
0.00122672
0.00126517
0.0012896
0.00130216
0.00130705
0.00130765
0.00130748
0.00130704
0.0013071
0.00130723
0.00130648
0.00130649
0.00130643
0.00130592
0.00130575
0.00130537
0.00130463
0.00130457
0.00130471
0.0013042
0.00130405
0.0013039
0.00130391
0.00130389
0.00130396
0.00130383
0.0013039
0.00130405
0.00130436
0.00130474
0.00130509
0.00130537
0.00130568
0.00130597
0.0013063
0.00130658
0.00130663
0.0013065
0.00130668
0.00130687
0.00130678
0.00130725
0.00130796
0.00130809
0.00130818
0.00130792
0.00130788
0.00130742
0.00130766
0.001308
0.00130735
0.0013075
0.00130813
0.00130804
0.00130786
0.00130749
0.00130701
0.00130686
0.00130675
0.00130711
0.00130786
0.00130766
0.00130758
0.00130727
0.00130746
0.00130751
0.00130743
0.00130737
0.00130666
0.00130673
0.00130681
0.00130669
0.00130665
0.00130624
0.00130675
0.00130711
0.00130694
0.00130661
0.00130627
0.00130669
0.00130697
0.00130672
0.00130669
0.00130663
0.00130596
0.00130588
0.00130628
0.0013063
0.00130591
0.00118195
0.00122666
0.00126492
0.00129013
0.00130202
0.00130501
0.00130581
0.0013059
0.00130506
0.00130499
0.00130526
0.00130503
0.00130479
0.0013041
0.00130412
0.0013044
0.00130403
0.00130356
0.00130306
0.00130301
0.0013029
0.00130244
0.00130247
0.00130289
0.00130256
0.00130243
0.00130286
0.0013032
0.00130297
0.00130346
0.00130418
0.00130399
0.00130465
0.00130557
0.00130599
0.0013065
0.00130674
0.00130715
0.00130746
0.00130783
0.00130797
0.00130815
0.00130827
0.00130835
0.00130833
0.00130812
0.00130722
0.00130732
0.00130798
0.00130756
0.00130781
0.00130795
0.00130779
0.00130743
0.00130738
0.00130822
0.00130802
0.00130819
0.00130907
0.00130903
0.0013088
0.00130815
0.00130818
0.00130836
0.00130826
0.00130818
0.00130814
0.00130811
0.00130789
0.0013078
0.00130734
0.00130668
0.00130685
0.0013072
0.00130702
0.00130658
0.0013064
0.00130649
0.00130647
0.00130618
0.00130633
0.00130686
0.00130691
0.0013069
0.0013063
0.00130627
0.00130645
0.00130646
0.00130644
0.00130585
0.00118187
0.00122676
0.00126511
0.00128955
0.0013019
0.00130716
0.00130822
0.00130804
0.00130791
0.00130768
0.00130729
0.00130717
0.00130698
0.00130656
0.00130572
0.00130537
0.0013052
0.0013043
0.0013042
0.00130438
0.00130353
0.00130317
0.00130317
0.00130298
0.00130326
0.00130344
0.0013035
0.00130369
0.00130354
0.00130388
0.00130411
0.00130452
0.00130504
0.00130522
0.00130577
0.0013062
0.00130662
0.001307
0.0013073
0.00130756
0.00130762
0.00130715
0.00130719
0.00130775
0.00130793
0.00130786
0.00130729
0.00130738
0.00130782
0.00130731
0.00130757
0.00130794
0.00130755
0.00130716
0.00130739
0.00130787
0.00130816
0.00130843
0.00130771
0.00130782
0.00130825
0.00130752
0.00130765
0.00130795
0.00130747
0.00130741
0.00130732
0.00130701
0.00130675
0.00130666
0.00130627
0.00130652
0.00130693
0.00130695
0.00130679
0.0013063
0.00130606
0.00130656
0.00130692
0.0013069
0.00130688
0.0013067
0.00130664
0.00130601
0.00130615
0.0013067
0.00130608
0.00130621
0.0013067
0.00130598
0.00118184
0.00122672
0.00126514
0.00128967
0.00130189
0.00130741
0.00130813
0.00130798
0.00130775
0.0013076
0.00130742
0.00130709
0.00130682
0.00130601
0.00130589
0.00130572
0.0013048
0.00130474
0.00130476
0.00130378
0.00130369
0.00130395
0.00130349
0.00130329
0.00130345
0.00130356
0.00130361
0.0013038
0.00130373
0.00130394
0.00130429
0.00130463
0.00130506
0.00130552
0.00130605
0.00130652
0.00130686
0.0013069
0.00130691
0.00130708
0.00130727
0.00130712
0.00130733
0.00130776
0.00130766
0.00130771
0.0013076
0.00130794
0.00130837
0.00130825
0.00130808
0.00130767
0.00130738
0.00130757
0.00130757
0.00130786
0.00130851
0.00130803
0.00130825
0.00130839
0.00130808
0.00130812
0.0013081
0.00130789
0.00130717
0.00130705
0.00130728
0.00130715
0.00130685
0.001307
0.00130752
0.00130754
0.00130737
0.00130719
0.00130692
0.00130668
0.0013068
0.00130687
0.00130686
0.0013067
0.00130638
0.00130613
0.00130663
0.00130687
0.00130675
0.00130664
0.00130613
0.00130629
0.00130645
0.00130586
0.00118186
0.00122676
0.00126512
0.00128949
0.00130208
0.00130684
0.00130726
0.00130754
0.00130758
0.00130687
0.00130687
0.00130673
0.00130633
0.00130565
0.00130549
0.00130542
0.00130436
0.00130418
0.00130433
0.00130356
0.00130313
0.00130296
0.0013027
0.00130285
0.00130289
0.00130275
0.00130287
0.00130307
0.00130347
0.00130376
0.00130415
0.00130449
0.00130433
0.00130499
0.00130597
0.00130615
0.00130694
0.0013077
0.00130812
0.00130851
0.00130846
0.00130848
0.00130849
0.00130835
0.00130813
0.00130788
0.00130775
0.00130726
0.00130727
0.00130808
0.0013081
0.00130795
0.00130781
0.00130727
0.00130744
0.0013082
0.00130858
0.00130866
0.00130809
0.00130831
0.00130844
0.00130807
0.00130816
0.00130817
0.00130795
0.00130735
0.00130737
0.00130761
0.00130733
0.00130705
0.00130716
0.00130728
0.0013068
0.00130701
0.0013071
0.00130692
0.00130643
0.0013065
0.00130681
0.00130681
0.00130679
0.00130647
0.00130638
0.00130577
0.00130589
0.00130643
0.00130625
0.00130623
0.00130607
0.00130552
0.00118183
0.00122689
0.00126481
0.00128989
0.00130213
0.00130617
0.00130646
0.00130621
0.00130562
0.00130547
0.00130559
0.00130534
0.00130506
0.00130424
0.00130418
0.00130429
0.00130356
0.00130349
0.00130331
0.00130293
0.00130247
0.00130239
0.00130305
0.00130273
0.00130293
0.00130306
0.00130311
0.00130333
0.00130337
0.00130363
0.00130406
0.00130451
0.00130501
0.00130553
0.00130603
0.00130651
0.00130686
0.00130723
0.00130754
0.00130763
0.00130764
0.00130776
0.00130752
0.00130763
0.00130792
0.00130787
0.00130791
0.00130792
0.00130786
0.00130744
0.00130751
0.0013095
0.00131016
0.00131002
0.00130975
0.0013098
0.00130987
0.00130978
0.00130969
0.00130881
0.00130883
0.00130901
0.00130858
0.00130853
0.00130844
0.00130837
0.0013082
0.00130782
0.00130799
0.00130814
0.00130802
0.00130797
0.00130769
0.00130758
0.00130705
0.00130713
0.00130719
0.00130682
0.00130683
0.00130675
0.00130613
0.0013061
0.00130638
0.00130624
0.00130627
0.00130612
0.00130589
0.00130587
0.00130585
0.00130547
0.00118186
0.00122662
0.00126516
0.00129009
0.00130184
0.00130461
0.00130464
0.00130443
0.00130443
0.00130468
0.0013044
0.00130413
0.00130342
0.00130297
0.00130349
0.00130364
0.0013032
0.00130263
0.00130216
0.00130269
0.00130363
0.00130353
0.00130323
0.00130303
0.00130295
0.00130268
0.00130239
0.00130271
0.00130324
0.0013036
0.00130412
0.00130446
0.00130477
0.00130527
0.00130565
0.00130599
0.00130686
0.00130757
0.00130793
0.00130815
0.00130797
0.00130823
0.00130851
0.0013085
0.00130804
0.00130824
0.00130853
0.00130851
0.00130847
0.00130821
0.00130811
0.00130787
0.00130729
0.00130715
0.00130743
0.00130718
0.00130715
0.00130706
0.001307
0.00130681
0.00130661
0.00130646
0.00130622
0.0013061
0.00130591
0.00130628
0.00130662
0.00130603
0.00130586
0.00130653
0.00130713
0.00130707
0.00130715
0.00130701
0.00130686
0.00130665
0.00130635
0.00130678
0.00130718
0.00130697
0.00130701
0.00130684
0.00130633
0.00130609
0.00130624
0.00130627
0.00130591
0.00130609
0.00130636
0.00130573
0.00118184
0.00122671
0.00126519
0.00128945
0.00130239
0.00130663
0.00130691
0.00130669
0.00130637
0.00130619
0.00130579
0.00130588
0.00130599
0.0013056
0.00130516
0.00130457
0.00130417
0.0013038
0.00130348
0.00130297
0.00130309
0.00130341
0.00130319
0.00130312
0.00130289
0.00130289
0.00130312
0.00130335
0.00130311
0.00130348
0.00130386
0.00130383
0.00130471
0.00130557
0.00130624
0.00130688
0.00130688
0.00130729
0.00130764
0.00130782
0.00130802
0.00130817
0.00130824
0.00130828
0.00130822
0.00130769
0.00130761
0.00130809
0.00130836
0.00130816
0.00130764
0.00130744
0.00130846
0.00130994
0.00130977
0.00130967
0.00130938
0.00130962
0.00130982
0.00130946
0.00130935
0.00130926
0.00130885
0.00130895
0.00130898
0.00130812
0.00130813
0.00130835
0.00130763
0.00130777
0.00130821
0.00130764
0.00130784
0.00130822
0.00130818
0.00130811
0.00130808
0.0013081
0.00130799
0.00130795
0.00130772
0.0013073
0.00130646
0.00130657
0.00130685
0.00130669
0.00130637
0.00130609
0.00130611
0.00130563
0.00118184
0.00122672
0.00126514
0.0012896
0.00130203
0.00130716
0.00130766
0.00130707
0.00130721
0.0013073
0.0013067
0.00130649
0.00130607
0.00130565
0.00130502
0.00130498
0.00130496
0.00130389
0.0013037
0.00130387
0.00130354
0.00130319
0.00130301
0.00130344
0.00130343
0.00130327
0.00130343
0.00130365
0.00130366
0.00130401
0.00130443
0.00130474
0.00130518
0.00130574
0.00130623
0.00130623
0.00130687
0.00130749
0.00130733
0.00130797
0.00130883
0.00130907
0.00130922
0.00130855
0.00130867
0.00130899
0.0013086
0.00130886
0.001309
0.00130882
0.00130859
0.00130802
0.00130857
0.00131004
0.0013097
0.00130999
0.00131024
0.00130988
0.00130978
0.0013095
0.0013094
0.00130909
0.00130926
0.00130932
0.00130849
0.00130855
0.00130876
0.00130804
0.00130821
0.00130857
0.00130842
0.00130846
0.0013084
0.00130825
0.00130827
0.00130825
0.00130803
0.00130797
0.00130762
0.00130764
0.00130763
0.00130748
0.00130739
0.00130738
0.00130714
0.00130637
0.00130645
0.00130684
0.00130671
0.00130614
0.00118186
0.00122654
0.00126528
0.00129019
0.00130146
0.00130521
0.00130537
0.00130516
0.00130488
0.00130448
0.00130429
0.00130403
0.00130338
0.00130316
0.00130413
0.00130398
0.00130359
0.00130415
0.00130447
0.00130406
0.00130361
0.00130308
0.00130285
0.00130264
0.00130266
0.0013026
0.00130249
0.00130294
0.00130341
0.00130382
0.00130446
0.00130503
0.0013056
0.00130611
0.00130634
0.00130684
0.0013072
0.00130714
0.00130713
0.00130788
0.00130854
0.00130858
0.00130886
0.00130903
0.001309
0.00130894
0.0013089
0.00130845
0.00130853
0.00130874
0.00130787
0.00130785
0.00130807
0.00130783
0.0013077
0.00130726
0.00130755
0.00130779
0.00130754
0.00130745
0.00130735
0.00130696
0.00130701
0.00130794
0.00130796
0.00130771
0.00130715
0.00130694
0.00130718
0.00130702
0.00130724
0.00130728
0.00130713
0.00130679
0.00130689
0.00130704
0.0013064
0.00130655
0.00130709
0.00130673
0.00130648
0.00130635
0.00130596
0.00130593
0.00130665
0.00130685
0.00130669
0.00130667
0.0013065
0.00130574
0.00118182
0.0012268
0.00126495
0.00128982
0.00130228
0.001306
0.00130686
0.00130663
0.00130587
0.00130578
0.00130603
0.00130572
0.00130542
0.00130481
0.00130445
0.00130409
0.00130356
0.00130311
0.00130295
0.00130274
0.00130233
0.00130174
0.00130194
0.0013024
0.00130173
0.00130199
0.0013027
0.00130295
0.00130326
0.00130362
0.00130397
0.00130379
0.0013046
0.00130545
0.00130613
0.00130681
0.00130719
0.00130773
0.00130804
0.00130809
0.00130788
0.00130799
0.00130802
0.00130774
0.00130763
0.0013079
0.00130812
0.00130799
0.00130776
0.00130733
0.00130767
0.00130808
0.00130801
0.0013079
0.00130709
0.00130714
0.00130739
0.00130671
0.00130685
0.0013074
0.00130709
0.00130705
0.00130715
0.00130705
0.00130687
0.00130676
0.00130657
0.00130635
0.00130584
0.00130619
0.00130676
0.00130665
0.00130636
0.00130645
0.00130658
0.00130593
0.00130617
0.00130651
0.00130637
0.00130613
0.00130596
0.00130656
0.00130689
0.0013068
0.00130678
0.00130663
0.00130633
0.001306
0.00130583
0.00130531
0.00118184
0.00122671
0.00126517
0.00128951
0.00130228
0.00130668
0.00130699
0.00130676
0.0013064
0.00130663
0.00130673
0.00130594
0.00130595
0.00130594
0.00130547
0.00130506
0.00130473
0.00130439
0.00130356
0.00130316
0.00130304
0.00130263
0.00130285
0.00130304
0.00130295
0.00130302
0.00130305
0.00130329
0.00130331
0.00130366
0.001304
0.0013044
0.00130494
0.00130549
0.00130585
0.00130595
0.00130667
0.00130734
0.00130774
0.00130809
0.00130835
0.00130842
0.00130852
0.00130855
0.00130845
0.00130828
0.00130757
0.00130752
0.00130815
0.00130826
0.00130807
0.00130765
0.00130761
0.00130778
0.00130766
0.00130752
0.00130708
0.00130671
0.00130705
0.00130715
0.0013066
0.00130646
0.00130714
0.00130748
0.00130719
0.0013071
0.00130703
0.00130683
0.00130622
0.00130627
0.00130643
0.00130588
0.00130603
0.00130696
0.001307
0.00130688
0.00130685
0.00130671
0.00130648
0.00130631
0.00130612
0.00130556
0.00130561
0.00130647
0.00130654
0.00130641
0.00130585
0.00130607
0.00130651
0.00130581
0.00118184
0.00122672
0.00126513
0.00128965
0.00130187
0.00130738
0.00130807
0.00130785
0.00130765
0.00130693
0.00130692
0.00130681
0.00130607
0.001306
0.00130578
0.00130485
0.00130474
0.00130472
0.00130365
0.00130346
0.00130367
0.0013029
0.0013026
0.00130299
0.00130327
0.00130327
0.00130348
0.00130363
0.00130393
0.00130444
0.00130506
0.00130572
0.00130621
0.00130658
0.00130652
0.00130639
0.00130699
0.00130772
0.00130818
0.0013086
0.00130868
0.00130866
0.00130871
0.00130875
0.00130882
0.00130853
0.0013086
0.00130866
0.00130854
0.00130845
0.00130779
0.00130778
0.00130966
0.00131051
0.00130996
0.00131014
0.00131028
0.00131007
0.00131002
0.00130976
0.00130961
0.00130942
0.00130941
0.00130919
0.00130848
0.00130836
0.00130847
0.00130786
0.00130803
0.00130839
0.00130796
0.00130794
0.00130786
0.00130788
0.0013077
0.00130713
0.00130724
0.00130745
0.00130735
0.00130722
0.00130722
0.00130724
0.00130652
0.00130668
0.00130693
0.00130692
0.00130691
0.00130667
0.00130657
0.0013057
0.00118184
0.00122672
0.00126514
0.0012896
0.00130203
0.00130717
0.00130767
0.00130708
0.00130722
0.00130732
0.0013067
0.00130645
0.00130616
0.00130585
0.0013051
0.001305
0.00130497
0.0013039
0.0013037
0.00130386
0.00130322
0.00130327
0.00130333
0.00130288
0.00130303
0.00130316
0.00130326
0.00130354
0.0013037
0.001304
0.00130439
0.00130469
0.00130475
0.00130528
0.00130586
0.00130624
0.00130684
0.00130736
0.00130736
0.00130798
0.00130885
0.00130908
0.00130922
0.00130856
0.00130868
0.00130899
0.00130872
0.00130888
0.00130893
0.00130874
0.00130846
0.00130805
0.00130872
0.00130972
0.00130957
0.00130941
0.00130953
0.0013096
0.00130942
0.00130931
0.00130851
0.00130862
0.00130889
0.00130816
0.00130831
0.00130856
0.00130809
0.00130803
0.00130793
0.00130741
0.00130743
0.00130792
0.00130788
0.00130786
0.0013078
0.00130761
0.00130729
0.00130705
0.00130685
0.00130627
0.00130646
0.00130692
0.00130626
0.00130647
0.00130683
0.00130673
0.0013067
0.00130666
0.00130661
0.00130574
0.00118184
0.00122671
0.0012652
0.00128945
0.0013024
0.00130653
0.00130658
0.00130682
0.001307
0.00130653
0.00130636
0.00130608
0.00130538
0.00130527
0.00130541
0.00130498
0.00130429
0.00130392
0.0013038
0.0013032
0.00130318
0.00130314
0.00130278
0.00130213
0.00130218
0.00130254
0.00130202
0.00130242
0.00130344
0.00130397
0.00130458
0.00130484
0.00130543
0.00130613
0.00130681
0.00130733
0.0013078
0.00130806
0.00130784
0.00130752
0.00130786
0.00130819
0.00130822
0.00130836
0.00130837
0.00130793
0.00130764
0.0013082
0.00130851
0.00130836
0.00130821
0.00130773
0.00130857
0.0013098
0.00130961
0.00130951
0.00130933
0.00130945
0.00130962
0.00130943
0.00130921
0.00130867
0.00130869
0.00130878
0.0013086
0.0013084
0.00130805
0.00130782
0.00130724
0.00130718
0.00130784
0.00130792
0.00130779
0.00130771
0.00130715
0.00130719
0.00130751
0.00130712
0.00130736
0.00130747
0.00130737
0.00130734
0.00130707
0.00130699
0.00130681
0.00130627
0.00130643
0.00130682
0.00130666
0.00130608
0.00118187
0.0012266
0.00126521
0.00129002
0.00130181
0.00130496
0.00130517
0.00130493
0.00130437
0.00130463
0.00130504
0.00130473
0.00130439
0.00130371
0.00130338
0.001303
0.00130311
0.0013031
0.00130227
0.00130219
0.00130268
0.00130273
0.00130281
0.00130213
0.00130223
0.00130281
0.00130292
0.00130286
0.00130331
0.00130392
0.00130439
0.00130499
0.00130541
0.00130609
0.00130661
0.00130692
0.00130683
0.00130742
0.00130797
0.00130787
0.00130847
0.00130892
0.00130878
0.00130887
0.00130894
0.00130902
0.0013091
0.00130907
0.00130885
0.00130867
0.0013087
0.00130871
0.00130854
0.00130836
0.00130761
0.00130736
0.00130712
0.0013065
0.00130635
0.00130715
0.00130742
0.00130725
0.00130708
0.00130661
0.00130695
0.00130755
0.00130744
0.0013072
0.00130715
0.0013068
0.00130687
0.00130743
0.00130711
0.00130742
0.00130759