/*--------------------------------*- C++ -*----------------------------------*\
  =========                 |
  \\      /  F ield         | OpenFOAM: The Open Source CFD Toolbox
   \\    /   O peration     | Website:  https://openfoam.org
    \\  /    A nd           | Version:  11
     \\/     M anipulation  |
\*---------------------------------------------------------------------------*/
FoamFile
{
    format      ascii;
    class       volScalarField;
    location    "0.056";
    object      omega;
}
// * * * * * * * * * * * * * * * * * * * * * * * * * * * * * * * * * * * * * //

dimensions      [0 0 -1 0 0 0 0];

internalField   nonuniform List<scalar> 
287084
(
55.005
56.0362
56.8752
57.3813
57.6007
57.6434
57.6447
57.6444
57.6345
57.6434
57.6548
57.6516
57.6522
57.6534
57.6528
57.6427
57.6375
57.6428
57.6399
57.6481
57.6622
57.6536
57.6569
57.6588
57.6563
57.6528
57.6466
57.6539
57.662
57.6597
57.6596
57.6575
57.6548
57.6383
57.6349
57.6394
57.6357
57.6353
57.6348
57.6311
57.6235
57.6257
57.6269
57.6228
57.6236
57.6205
57.6103
57.6162
57.63
57.6172
57.6222
57.6303
57.63
57.6295
57.6143
57.61
57.617
57.619
57.6161
57.6207
57.6222
57.6107
57.6085
57.6263
57.6367
57.6342
57.6295
57.6206
57.6266
57.6341
57.6308
57.6219
57.6183
57.6254
57.6251
57.6312
57.6329
57.6305
57.6265
57.6301
57.6395
57.6352
57.6377
57.6389
57.6358
57.6282
57.6158
57.6206
57.6262
57.615
55.009
56.0285
56.8621
57.3758
57.5997
57.6464
57.6465
57.6412
57.6471
57.655
57.6552
57.6552
57.6465
57.6456
57.6454
57.637
57.6402
57.6475
57.643
57.6385
57.644
57.6607
57.6699
57.6677
57.6644
57.6591
57.6548
57.6586
57.6485
57.652
57.66
57.6537
57.6529
57.6525
57.6486
57.6473
57.6443
57.6314
57.6351
57.6498
57.6502
57.6489
57.6324
57.6334
57.6445
57.6454
57.6458
57.6447
57.6417
57.6381
57.6331
57.6217
57.6262
57.6292
57.6276
57.6288
57.6256
57.6148
57.618
57.6317
57.6239
57.6307
57.635
57.632
57.6256
57.6228
57.6336
57.6406
57.6376
57.626
57.6316
57.6457
57.6459
57.6458
57.6385
57.6369
57.6252
57.6303
57.6409
57.6356
57.6375
57.6345
57.6233
57.6259
57.6354
57.637
57.6342
57.6293
57.6281
57.6128
55.0091
56.0276
56.8618
57.373
57.595
57.6589
57.6642
57.661
57.6506
57.655
57.6643
57.6572
57.6575
57.6574
57.6483
57.6484
57.6606
57.665
57.6617
57.6477
57.6466
57.6547
57.6546
57.6672
57.673
57.6699
57.6637
57.6566
57.6556
57.6552
57.6536
57.6487
57.6465
57.6469
57.6474
57.6392
57.6399
57.6487
57.6461
57.6488
57.6491
57.6447
57.645
57.6453
57.6452
57.6454
57.6393
57.6437
57.6477
57.6438
57.6354
57.6284
57.6268
57.6172
57.6184
57.6285
57.6288
57.623
57.6257
57.6357
57.6319
57.6323
57.6318
57.6209
57.6224
57.6378
57.6429
57.6405
57.6359
57.6329
57.6332
57.6334
57.6195
57.6179
57.6251
57.6259
57.6241
57.6219
57.6201
57.62
57.617
57.6254
57.6395
57.6266
57.624
57.6282
57.6188
57.6178
57.6238
57.6142
55.0075
56.0306
56.8595
57.367
57.5984
57.6655
57.6715
57.6684
57.6572
57.6614
57.6725
57.6704
57.6678
57.6526
57.6549
57.6671
57.6698
57.6671
57.6624
57.6588
57.6551
57.6527
57.6538
57.652
57.6522
57.6529
57.651
57.6463
57.6495
57.6655
57.6663
57.6664
57.6599
57.6569
57.6577
57.6584
57.6535
57.6424
57.6355
57.6442
57.6474
57.6444
57.6351
57.6403
57.645
57.6448
57.6446
57.6381
57.6369
57.6289
57.6312
57.6326
57.6305
57.6303
57.6207
57.6177
57.6126
57.615
57.6358
57.6405
57.6366
57.6261
57.6221
57.63
57.627
57.6355
57.6426
57.6304
57.6374
57.6449
57.6302
57.6272
57.631
57.6323
57.629
57.6312
57.6336
57.64
57.6482
57.6482
57.648
57.6315
57.6346
57.6417
57.6401
57.6394
57.6281
57.6297
57.6311
57.6209
55.0074
56.0309
56.8577
57.3677
57.6008
57.6515
57.6441
57.6504
57.6639
57.6486
57.6492
57.6615
57.662
57.6613
57.6485
57.6518
57.6575
57.6508
57.6519
57.6517
57.6439
57.6419
57.6525
57.6525
57.6557
57.6563
57.6537
57.6505
57.6488
57.6484
57.6487
57.6487
57.6467
57.645
57.6483
57.6432
57.6478
57.6649
57.6646
57.6618
57.6564
57.6441
57.6447
57.6475
57.6438
57.6364
57.6288
57.6282
57.6215
57.6204
57.6255
57.6254
57.6258
57.6257
57.6214
57.6181
57.6231
57.6219
57.6246
57.6251
57.623
57.6196
57.6185
57.6137
57.6158
57.6241
57.6227
57.6236
57.6237
57.621
57.6179
57.6334
57.6456
57.6435
57.6399
57.6306
57.6289
57.6262
57.6266
57.6267
57.626
57.6222
57.622
57.6173
57.624
57.6382
57.6234
57.6231
57.632
57.6208
55.0065
56.0303
56.8617
57.3704
57.5824
57.6205
57.619
57.6343
57.6518
57.6522
57.6522
57.6456
57.6444
57.6333
57.6367
57.6541
57.6493
57.6499
57.6499
57.6515
57.6512
57.6468
57.642
57.6497
57.6534
57.6435
57.6491
57.6605
57.6595
57.6593
57.65
57.6498
57.649
57.6492
57.6457
57.6496
57.6513
57.6503
57.6503
57.6476
57.6458
57.6358
57.626
57.6244
57.6256
57.6247
57.6263
57.6267
57.6305
57.6332
57.6307
57.6234
57.6298
57.6435
57.6418
57.6392
57.6334
57.6278
57.6316
57.6357
57.6325
57.6262
57.6201
57.6234
57.6223
57.6309
57.6434
57.6424
57.6412
57.6294
57.6269
57.6331
57.6262
57.6321
57.6436
57.6346
57.6293
57.6276
57.6275
57.6256
57.624
57.6192
57.6267
57.641
57.634
57.634
57.6333
57.6355
57.6325
57.6216
55.0044
56.0322
56.8616
57.3702
57.5859
57.6256
57.638
57.6449
57.6442
57.644
57.6311
57.6388
57.6757
57.6786
57.6727
57.6794
57.6883
57.6863
57.6861
57.6787
57.6792
57.6784
57.6683
57.6711
57.6809
57.6813
57.6807
57.6638
57.6666
57.6694
57.653
57.6558
57.666
57.6618
57.6621
57.658
57.6494
57.6408
57.6513
57.6601
57.6575
57.6532
57.6435
57.649
57.6521
57.6486
57.6375
57.6404
57.6443
57.6418
57.6382
57.6323
57.634
57.6342
57.6301
57.6282
57.6351
57.6411
57.6397
57.6407
57.6364
57.6247
57.6173
57.6274
57.6364
57.6302
57.6312
57.6298
57.6186
57.6151
57.6253
57.6281
57.6189
57.6193
57.6338
57.6404
57.6377
57.6322
57.6298
57.6192
57.6252
57.6392
57.6268
57.6237
57.628
57.6244
57.6333
57.6409
57.6375
57.6254
55.0064
56.0322
56.8601
57.3567
57.6007
57.6845
57.6881
57.6953
57.7031
57.7026
57.7002
57.7004
57.701
57.6995
57.6994
57.6952
57.6887
57.6914
57.6944
57.6879
57.6881
57.6884
57.6892
57.6851
57.6793
57.6795
57.683
57.6806
57.678
57.6758
57.6692
57.6653
57.6607
57.6508
57.6547
57.6586
57.646
57.6465
57.6655
57.6682
57.664
57.653
57.6498
57.6581
57.6626
57.6604
57.6588
57.6554
57.6427
57.6475
57.6585
57.6475
57.6539
57.6586
57.6525
57.6527
57.6524
57.6533
57.6529
57.6488
57.6404
57.6373
57.6294
57.6301
57.6304
57.6195
57.6209
57.6324
57.6363
57.6353
57.6335
57.6343
57.6334
57.6277
57.6231
57.6364
57.6438
57.6417
57.639
57.6305
57.628
57.6224
57.6311
57.6412
57.6415
57.6415
57.6273
57.6314
57.635
57.6204
55.0054
56.0313
56.862
57.3674
57.5876
57.6454
57.6476
57.6448
57.6443
57.6347
57.6397
57.6669
57.6677
57.6745
57.6767
57.6756
57.6726
57.6776
57.6925
57.6908
57.6906
57.6904
57.6909
57.6825
57.6856
57.6871
57.6857
57.6855
57.6813
57.6726
57.6608
57.6554
57.6531
57.65
57.6556
57.6588
57.6459
57.6444
57.6521
57.649
57.6571
57.6627
57.6494
57.6552
57.6636
57.6612
57.6585
57.6538
57.6533
57.6484
57.6385
57.6233
57.624
57.6251
57.6171
57.6159
57.6302
57.6366
57.6334
57.6266
57.6198
57.6302
57.6357
57.6334
57.6302
57.6218
57.6221
57.6191
57.6279
57.6433
57.6436
57.6431
57.6264
57.6268
57.6357
57.6272
57.6354
57.6492
57.6482
57.6473
57.6377
57.6312
57.6301
57.6268
57.6351
57.6398
57.6339
57.634
57.6309
57.6185
55.005
56.028
56.8705
57.3616
57.5849
57.6373
57.6379
57.6366
57.6334
57.6487
57.6598
57.6569
57.6502
57.6429
57.6559
57.6658
57.6615
57.6612
57.6598
57.6463
57.6443
57.6567
57.6588
57.6525
57.652
57.6586
57.6509
57.6545
57.6669
57.6666
57.6649
57.6588
57.6559
57.65
57.6569
57.66
57.6568
57.6514
57.6482
57.645
57.642
57.6413
57.6364
57.6257
57.617
57.622
57.6288
57.6272
57.6268
57.6164
57.6187
57.6244
57.6236
57.6235
57.6108
57.6153
57.6186
57.6084
57.6132
57.6329
57.6334
57.6305
57.6162
57.6189
57.6267
57.6134
57.6175
57.6308
57.6233
57.623
57.623
57.6212
57.6144
57.6207
57.6256
57.615
57.6194
57.6372
57.637
57.6341
57.62
57.6188
57.6359
57.6431
57.642
57.6413
57.6286
57.6296
57.6338
57.6204
55.0064
56.0293
56.8624
57.3664
57.5938
57.6436
57.6438
57.6392
57.637
57.6473
57.6506
57.6446
57.6456
57.6562
57.6569
57.6523
57.6617
57.6752
57.6695
57.6748
57.6764
57.6717
57.6713
57.6655
57.6686
57.6699
57.6584
57.6625
57.6638
57.6609
57.656
57.661
57.6687
57.6685
57.6684
57.6622
57.6613
57.6608
57.6591
57.6518
57.646
57.6344
57.6224
57.6267
57.6294
57.6211
57.6293
57.6418
57.6395
57.6392
57.637
57.6379
57.6347
57.6279
57.6221
57.6253
57.626
57.616
57.6176
57.6302
57.6328
57.6293
57.6151
57.6196
57.6288
57.6288
57.6287
57.6141
57.6185
57.6295
57.6285
57.625
57.6252
57.636
57.6282
57.626
57.6307
57.625
57.6319
57.644
57.6292
57.6328
57.6438
57.6401
57.638
57.6301
57.6327
57.6345
57.6312
57.6195
55.0049
56.0323
56.8598
57.3679
57.5917
57.6494
57.6584
57.6561
57.6558
57.649
57.6474
57.6636
57.6662
57.6748
57.6887
57.6806
57.6814
57.6808
57.672
57.677
57.6867
57.671
57.6734
57.6847
57.6801
57.6831
57.6852
57.6829
57.6801
57.6793
57.6763
57.6709
57.6648
57.6605
57.6576
57.6539
57.6494
57.6404
57.6297
57.6268
57.6276
57.6257
57.6237
57.6233
57.6294
57.631
57.6287
57.6225
57.6284
57.6409
57.6331
57.6378
57.6435
57.6423
57.6406
57.6245
57.6193
57.6238
57.6248
57.6168
57.6188
57.6307
57.6222
57.6293
57.637
57.6372
57.6372
57.6219
57.6273
57.6419
57.6403
57.6377
57.6235
57.6272
57.6336
57.6331
57.6328
57.6181
57.6232
57.6377
57.6361
57.6318
57.6258
57.6339
57.6389
57.6353
57.6221
57.6205
57.6296
57.6187
55.0064
56.032
56.8606
57.3548
57.6041
57.6788
57.6819
57.6823
57.6763
57.685
57.692
57.6779
57.683
57.692
57.6797
57.6863
57.6936
57.6906
57.6902
57.6807
57.6882
57.695
57.6793
57.6835
57.6929
57.6939
57.691
57.6885
57.6876
57.6777
57.6647
57.6654
57.6667
57.665
57.6607
57.6642
57.6684
57.666
57.6643
57.6505
57.6531
57.656
57.6521
57.6427
57.6394
57.6494
57.6546
57.6524
57.6494
57.6467
57.6425
57.6416
57.6381
57.627
57.6303
57.6374
57.6365
57.6361
57.6229
57.63
57.6408
57.6391
57.6368
57.6264
57.6244
57.6181
57.6198
57.6305
57.6336
57.6329
57.6312
57.6321
57.6318
57.6263
57.6227
57.6363
57.6434
57.6401
57.6328
57.6267
57.6352
57.6388
57.6361
57.6322
57.6243
57.6265
57.6319
57.6326
57.6294
57.6196
55.0054
56.0288
56.8649
57.3715
57.5812
57.6225
57.6285
57.6376
57.6325
57.6379
57.6398
57.6382
57.64
57.638
57.6323
57.6411
57.6572
57.6487
57.6552
57.6594
57.6483
57.652
57.6696
57.6635
57.6716
57.6834
57.6737
57.6768
57.6775
57.6741
57.6644
57.666
57.667
57.6572
57.6539
57.6621
57.6646
57.6587
57.6598
57.6633
57.6624
57.6563
57.6546
57.6533
57.6514
57.654
57.6508
57.6517
57.6523
57.6492
57.6425
57.6277
57.6304
57.6364
57.6355
57.6352
57.6213
57.6253
57.6358
57.6362
57.636
57.6206
57.622
57.6312
57.6302
57.6254
57.621
57.6289
57.637
57.6359
57.6321
57.6299
57.6287
57.6185
57.6191
57.6353
57.6278
57.6341
57.6468
57.636
57.6423
57.6469
57.646
57.6456
57.6303
57.6303
57.6467
57.6495
57.6459
57.6304
55.0064
56.0321
56.8601
57.3566
57.5997
57.6879
57.6975
57.6955
57.6889
57.6946
57.701
57.6896
57.6944
57.6977
57.6908
57.6902
57.6901
57.681
57.685
57.6926
57.6874
57.689
57.6889
57.6918
57.6889
57.6868
57.6848
57.6855
57.6836
57.6839
57.681
57.676
57.6717
57.6675
57.6628
57.6593
57.6547
57.6454
57.6339
57.6306
57.6276
57.623
57.6307
57.6421
57.6411
57.6404
57.6324
57.6303
57.622
57.6282
57.6355
57.6225
57.6276
57.6395
57.64
57.6398
57.629
57.6209
57.6219
57.6211
57.6304
57.6471
57.6422
57.6422
57.6383
57.6426
57.6441
57.643
57.6426
57.6286
57.6308
57.633
57.6308
57.6296
57.6231
57.6364
57.6433
57.6397
57.6295
57.6252
57.637
57.6425
57.6388
57.639
57.6369
57.621
57.6215
57.6319
57.6312
57.6225
55.009
56.0303
56.8555
57.3688
57.5929
57.64
57.6544
57.6603
57.6455
57.6489
57.6594
57.6569
57.6567
57.6485
57.6549
57.6661
57.6634
57.6559
57.6529
57.6587
57.6604
57.6565
57.6606
57.6721
57.6629
57.6603
57.6691
57.6716
57.6618
57.6649
57.6716
57.6571
57.6609
57.6693
57.6654
57.6647
57.6583
57.6581
57.6554
57.6528
57.6489
57.6471
57.6448
57.6429
57.6392
57.6325
57.6139
57.6183
57.6335
57.6235
57.6295
57.6326
57.6303
57.6236
57.6263
57.6481
57.6434
57.649
57.6679
57.668
57.6653
57.6518
57.6542
57.6592
57.6576
57.6571
57.6577
57.6579
57.6534
57.6517
57.6407
57.6288
57.6355
57.6434
57.64
57.6277
57.6266
57.6325
57.6319
57.6251
57.6292
57.6415
57.6411
57.6408
57.6289
57.6295
57.6341
57.6341
57.6337
57.6207
55.0071
56.0329
56.8587
57.3555
57.5946
57.6922
57.7114
57.7108
57.7114
57.7072
57.7031
57.7064
57.7071
57.7041
57.691
57.6913
57.6945
57.6792
57.6834
57.693
57.6764
57.6747
57.6818
57.6795
57.6853
57.6877
57.6863
57.6858
57.6751
57.6726
57.6709
57.6719
57.671
57.6588
57.6567
57.6538
57.6531
57.6504
57.646
57.6439
57.6384
57.6205
57.6199
57.6302
57.6304
57.6278
57.6134
57.6165
57.6265
57.6151
57.6219
57.6304
57.6211
57.6149
57.6239
57.633
57.6409
57.6509
57.6369
57.6417
57.6524
57.6375
57.642
57.6495
57.6411
57.6424
57.6395
57.6302
57.6279
57.6299
57.6214
57.6276
57.6336
57.6339
57.6339
57.6223
57.6189
57.6331
57.6401
57.6394
57.6394
57.6351
57.6341
57.6217
57.6263
57.6388
57.6245
57.6283
57.6396
57.6234
55.0064
56.0322
56.8597
57.358
57.5948
57.6979
57.7092
57.7069
57.7057
57.7066
57.7076
57.705
57.7047
57.6937
57.6972
57.6993
57.6863
57.6918
57.6981
57.6827
57.6872
57.6976
57.6889
57.688
57.6934
57.6946
57.6926
57.6916
57.6819
57.6764
57.6736
57.6694
57.6661
57.6633
57.6616
57.659
57.6541
57.6433
57.6337
57.629
57.6264
57.6199
57.6214
57.6277
57.6229
57.6229
57.6192
57.6258
57.6318
57.6319
57.6318
57.6203
57.6164
57.6236
57.6242
57.6346
57.6502
57.6419
57.6482
57.6522
57.6486
57.6496
57.6504
57.6488
57.6329
57.6334
57.6407
57.6351
57.6298
57.6359
57.645
57.6453
57.6453
57.6421
57.6339
57.632
57.6388
57.6378
57.6378
57.6363
57.6261
57.6227
57.6365
57.6404
57.6374
57.6319
57.6239
57.6291
57.6324
57.6212
55.0071
56.0329
56.859
57.3544
57.5986
57.6837
57.6876
57.6962
57.7028
57.6923
57.6967
57.6983
57.6954
57.6864
57.6899
57.6948
57.6784
57.6824
57.6922
57.6786
57.6763
57.6811
57.6789
57.6834
57.6846
57.6826
57.6829
57.6794
57.6779
57.6748
57.6736
57.6693
57.6532
57.6557
57.6639
57.6542
57.6582
57.663
57.6615
57.6606
57.6507
57.6432
57.6387
57.6315
57.6243
57.6174
57.6145
57.6063
57.6093
57.6273
57.6279
57.6254
57.6208
57.6137
57.6222
57.6381
57.6474
57.6534
57.6438
57.6503
57.6543
57.6492
57.6516
57.6528
57.65
57.6376
57.6402
57.6467
57.6395
57.6349
57.6395
57.6426
57.6342
57.6391
57.641
57.6377
57.6274
57.6305
57.638
57.6373
57.6371
57.6293
57.6276
57.6161
57.6204
57.6328
57.6266
57.6237
57.6206
57.612
55.0064
56.0355
56.8525
57.364
57.5981
57.6678
57.6719
57.6689
57.6594
57.6619
57.6698
57.668
57.6679
57.6573
57.6631
57.6718
57.6638
57.6688
57.6711
57.6696
57.6656
57.671
57.6906
57.6855
57.6896
57.6911
57.6884
57.6849
57.6777
57.6738
57.6716
57.6683
57.6655
57.6624
57.6589
57.6554
57.65
57.6464
57.6423
57.635
57.6278
57.6248
57.6174
57.6183
57.623
57.6204
57.6212
57.6211
57.6184
57.6099
57.6158
57.6645
57.6761
57.675
57.6709
57.6741
57.6772
57.6771
57.677
57.66
57.6627
57.6682
57.6614
57.6632
57.6596
57.6595
57.6596
57.6518
57.656
57.6596
57.6576
57.6568
57.6508
57.648
57.6395
57.6424
57.6442
57.6382
57.6399
57.6368
57.6227
57.6241
57.6314
57.6259
57.624
57.6204
57.6188
57.6215
57.6205
57.6123
55.0068
56.0299
56.8613
57.3678
57.589
57.6334
57.6315
57.6292
57.6344
57.644
57.6423
57.6411
57.6304
57.6287
57.6507
57.659
57.6566
57.6483
57.6475
57.6707
57.6929
57.6941
57.6947
57.6929
57.6913
57.6827
57.6751
57.6773
57.6808
57.678
57.674
57.6674
57.6597
57.6558
57.649
57.6457
57.6527
57.6557
57.6518
57.644
57.6355
57.6361
57.6374
57.6339
57.6209
57.6246
57.6303
57.6294
57.6294
57.6243
57.6243
57.6209
57.61
57.6111
57.6204
57.6164
57.6186
57.6159
57.6134
57.6111
57.6086
57.607
57.6066
57.6084
57.6056
57.6146
57.6224
57.6082
57.6072
57.6264
57.6386
57.6376
57.6371
57.6366
57.6336
57.6276
57.6249
57.6374
57.6454
57.6403
57.6399
57.6386
57.6254
57.6223
57.6269
57.6274
57.6214
57.6247
57.6304
57.6179
55.0065
56.0319
56.8608
57.3542
57.6056
57.6786
57.6794
57.6799
57.6792
57.6805
57.6762
57.6835
57.6912
57.6885
57.6828
57.6799
57.6818
57.6786
57.6785
57.6767
57.6862
57.6977
57.6968
57.6964
57.6951
57.6955
57.6946
57.6925
57.6769
57.6734
57.671
57.6581
57.663
57.6662
57.6651
57.6641
57.6485
57.644
57.6406
57.635
57.6319
57.629
57.6256
57.623
57.6219
57.6075
57.6074
57.6204
57.6258
57.6235
57.6103
57.6098
57.6404
57.6723
57.6683
57.6682
57.6662
57.6734
57.679
57.6747
57.6751
57.675
57.6667
57.6695
57.6713
57.6538
57.6563
57.6624
57.6474
57.6523
57.6625
57.6511
57.6566
57.6653
57.6644
57.6637
57.6641
57.6651
57.6624
57.6621
57.6566
57.6444
57.6293
57.6342
57.6403
57.6366
57.6265
57.6232
57.6272
57.6159
55.0064
56.0321
56.86
57.3571
57.5983
57.6922
57.6998
57.6902
57.6973
57.7031
57.6938
57.6928
57.6926
57.6929
57.6859
57.692
57.6985
57.6828
57.6871
57.698
57.6974
57.6952
57.6969
57.7078
57.708
57.7053
57.7056
57.702
57.6901
57.6863
57.6823
57.6744
57.6692
57.6657
57.6615
57.6489
57.6495
57.6507
57.6367
57.6419
57.6527
57.6505
57.6477
57.6308
57.6327
57.6388
57.6297
57.6356
57.6387
57.6353
57.6288
57.6214
57.6406
57.6737
57.6682
57.6766
57.6834
57.6766
57.6764
57.6749
57.6757
57.6702
57.6746
57.677
57.6606
57.6636
57.6693
57.6551
57.6606
57.669
57.6686
57.6712
57.6675
57.6651
57.6666
57.6668
57.6618
57.6612
57.6534
57.6526
57.6525
57.6525
57.6509
57.6481
57.6431
57.6287
57.6326
57.6413
57.6381
57.626
55.0067
56.0281
56.8643
57.3693
57.5816
57.6463
57.6483
57.6458
57.6407
57.6398
57.6413
57.6415
57.6352
57.6386
57.6677
57.668
57.6698
57.6918
57.7046
57.7023
57.6959
57.6925
57.695
57.6906
57.689
57.6888
57.6849
57.6875
57.6885
57.6861
57.6841
57.6819
57.6786
57.6736
57.6626
57.6585
57.6522
57.6375
57.6296
57.6388
57.6446
57.6408
57.6431
57.6404
57.6374
57.6375
57.6343
57.6246
57.628
57.6337
57.6163
57.6189
57.6259
57.6212
57.6209
57.6156
57.6243
57.6309
57.6296
57.6301
57.6297
57.6223
57.6261
57.6475
57.6482
57.6442
57.6301
57.6296
57.64
57.6364
57.6407
57.6419
57.6395
57.6329
57.6363
57.64
57.6273
57.632
57.6445
57.6339
57.6298
57.63
57.621
57.6217
57.6375
57.6405
57.6364
57.6362
57.634
57.6173
55.006
56.0339
56.8559
57.3629
57.6017
57.665
57.6825
57.6805
57.6668
57.6708
57.6818
57.6791
57.679
57.6745
57.6747
57.6745
57.6672
57.6659
57.6709
57.6711
57.6715
57.6656
57.6747
57.6869
57.6731
57.6781
57.69
57.6876
57.6825
57.6785
57.6736
57.657
57.66
57.6626
57.6613
57.6608
57.6542
57.6529
57.6477
57.6371
57.6249
57.6215
57.6183
57.6083
57.6064
57.6123
57.6165
57.6138
57.6065
57.6012
57.6131
57.6231
57.623
57.6229
57.6081
57.6121
57.6194
57.6073
57.6136
57.6274
57.6235
57.6244
57.6287
57.628
57.6227
57.6226
57.6195
57.6128
57.6059
57.6175
57.63
57.6285
57.623
57.6258
57.6289
57.6159
57.6225
57.6297
57.6273
57.6194
57.6184
57.6346
57.6405
57.6383
57.635
57.6321
57.6252
57.6179
57.6153
57.6074
55.0064
56.0321
56.8604
57.3555
57.6033
57.6803
57.6815
57.6818
57.6805
57.69
57.6962
57.6855
57.6922
57.6983
57.6942
57.6933
57.6942
57.6945
57.6823
57.6823
57.6902
57.6859
57.6947
57.7008
57.6993
57.6992
57.696
57.6921
57.6832
57.6793
57.6732
57.6673
57.6638
57.6598
57.6511
57.6412
57.6443
57.646
57.6429
57.6385
57.6359
57.6311
57.6288
57.6258
57.6213
57.6175
57.6036
57.6054
57.6195
57.6196
57.6196
57.6145
57.616
57.6223
57.6221
57.6203
57.6099
57.6058
57.6178
57.6207
57.6118
57.6119
57.629
57.6361
57.6329
57.6332
57.6318
57.6249
57.6141
57.6177
57.6221
57.6119
57.6175
57.6369
57.6382
57.6359
57.633
57.6302
57.6257
57.6224
57.6194
57.61
57.614
57.6321
57.633
57.6323
57.6191
57.6246
57.6338
57.6194
55.0064
56.0322
56.8598
57.3581
57.5948
57.6981
57.7093
57.7059
57.7053
57.6956
57.7007
57.7037
57.6951
57.6998
57.7016
57.6895
57.6951
57.7018
57.6862
57.6904
57.7018
57.6873
57.6866
57.7007
57.7062
57.7057
57.7038
57.7021
57.7025
57.7023
57.6999
57.6971
57.6917
57.6837
57.6653
57.651
57.6523
57.6559
57.6535
57.6526
57.6454
57.6369
57.6366
57.6367
57.6339
57.6261
57.6276
57.6291
57.627
57.6265
57.615
57.619
57.6662
57.6828
57.6728
57.6793
57.6838
57.6809
57.6792
57.6785
57.6801
57.6749
57.6746
57.6737
57.6603
57.6607
57.6651
57.6514
57.6565
57.6651
57.6576
57.6593
57.6556
57.6537
57.6532
57.6427
57.6458
57.6505
57.6482
57.6459
57.6466
57.6476
57.6326
57.6366
57.6421
57.6415
57.6415
57.6356
57.6335
57.616
55.0064
56.0322
56.86
57.3571
57.5983
57.6923
57.6999
57.6903
57.6975
57.7033
57.6964
57.6979
57.695
57.6932
57.686
57.6921
57.6986
57.6829
57.6871
57.698
57.6907
57.6971
57.702
57.6967
57.6998
57.7007
57.699
57.6975
57.6915
57.6859
57.6813
57.6728
57.6589
57.6556
57.6549
57.6507
57.6516
57.6481
57.6367
57.6421
57.6529
57.6507
57.6479
57.631
57.6328
57.6388
57.6328
57.6355
57.6371
57.6341
57.6265
57.6221
57.6437
57.6658
57.6658
57.6647
57.6682
57.6713
57.6691
57.6686
57.654
57.6587
57.6659
57.6518
57.6571
57.6634
57.6557
57.6569
57.654
57.6429
57.6462
57.6585
57.6581
57.6556
57.6553
57.652
57.643
57.6378
57.6347
57.6249
57.631
57.6411
57.6269
57.6323
57.64
57.6398
57.6399
57.6362
57.6346
57.6172
55.0065
56.0319
56.8609
57.3542
57.6056
57.6786
57.6777
57.6846
57.6913
57.6871
57.6896
57.6869
57.6773
57.6824
57.6923
57.6901
57.6822
57.6831
57.6888
57.682
57.6873
57.6912
57.6878
57.6759
57.679
57.6858
57.6706
57.6748
57.6895
57.6881
57.6852
57.6798
57.6809
57.6808
57.6775
57.6713
57.6697
57.6622
57.6439
57.6309
57.6318
57.6328
57.6308
57.631
57.6264
57.6118
57.6078
57.6233
57.6293
57.6265
57.6214
57.616
57.642
57.6687
57.6674
57.6677
57.6657
57.6692
57.6746
57.6722
57.666
57.6585
57.662
57.6654
57.6622
57.656
57.6496
57.6479
57.6384
57.64
57.6549
57.6563
57.6539
57.6512
57.6418
57.6446
57.6525
57.6447
57.6497
57.6519
57.6497
57.649
57.6429
57.6393
57.6363
57.6273
57.6322
57.6405
57.6371
57.6248
55.0068
56.0296
56.8622
57.366
57.5891
57.6394
57.6401
57.6403
57.6337
57.6446
57.6576
57.6554
57.6506
57.6449
57.6478
57.6466
57.6556
57.6616
57.6514
57.6574
57.6721
57.6771
57.6859
57.6745
57.6784
57.6903
57.6867
57.6798
57.6826
57.6855
57.6832
57.6827
57.6768
57.6748
57.6706
57.6622
57.6501
57.6523
57.6535
57.6431
57.6483
57.6513
57.6421
57.6415
57.6436
57.6434
57.642
57.6418
57.637
57.635
57.6379
57.6396
57.6373
57.634
57.6184
57.6147
57.6144
57.6045
57.6047
57.625
57.6303
57.6274
57.6224
57.6167
57.6284
57.6392
57.6399
57.6381
57.6388
57.6312
57.6343
57.6483
57.6412
57.6482
57.6517
57.6424
57.6467
57.6485
57.6427
57.644
57.6447
57.6424
57.6282
57.6291
57.6413
57.6407
57.6439
57.6446
57.6405
57.6213
55.0093
56.0294
56.8565
57.3689
57.5914
57.6385
57.6533
57.6595
57.6545
57.6541
57.65
57.6487
57.6405
57.647
57.667
57.6683
57.6653
57.6553
57.6538
57.6491
57.654
57.6829
57.6864
57.683
57.6754
57.6689
57.6749
57.6804
57.6793
57.6793
57.6752
57.6583
57.6594
57.6656
57.6643
57.6631
57.6502
57.6505
57.6513
57.6491
57.6495
57.6476
57.6442
57.6418
57.6376
57.6354
57.6357
57.6352
57.6274
57.6229
57.6087
57.6086
57.6229
57.6227
57.6234
57.6197
57.6219
57.6221
57.6337
57.6487
57.6471
57.6412
57.6423
57.647
57.6418
57.6411
57.6337
57.6391
57.6419
57.6316
57.6382
57.6438
57.6426
57.6423
57.6297
57.6342
57.6429
57.6413
57.6411
57.637
57.6269
57.6213
57.6303
57.6361
57.6322
57.6206
57.617
57.6248
57.6261
57.6176
55.009
56.0303
56.8556
57.3688
57.5929
57.6399
57.6539
57.6598
57.6468
57.6511
57.6536
57.6512
57.6443
57.6447
57.6661
57.6695
57.6657
57.652
57.6511
57.6736
57.6811
57.6779
57.6779
57.6787
57.6784
57.6757
57.6709
57.6625
57.6625
57.6624
57.6501
57.6531
57.6662
57.6666
57.6668
57.6629
57.6575
57.6468
57.6405
57.6412
57.6413
57.6412
57.6391
57.6187
57.616
57.6235
57.6253
57.6229
57.6095
57.6129
57.6376
57.6337
57.6371
57.659
57.6618
57.658
57.6498
57.642
57.6514
57.6601
57.6552
57.6548
57.654
57.6402
57.6405
57.6473
57.6356
57.6414
57.6493
57.6486
57.6485
57.6424
57.6407
57.6281
57.6323
57.6398
57.6378
57.6376
57.6338
57.6341
57.6291
57.6288
57.629
57.6294
57.6247
57.6138
57.6225
57.6342
57.6312
57.6195
55.0064
56.0322
56.8599
57.3573
57.5973
57.6934
57.7027
57.6981
57.6986
57.6953
57.7
57.704
57.7005
57.7014
57.7023
57.7015
57.6883
57.6919
57.698
57.6826
57.6873
57.6976
57.6877
57.6909
57.6934
57.6915
57.6939
57.6909
57.6857
57.6695
57.6679
57.6689
57.6552
57.6596
57.6634
57.6456
57.6444
57.6521
57.6501
57.6501
57.6465
57.6345
57.6379
57.6499
57.6376
57.6437
57.6511
57.6389
57.6447
57.6492
57.6478
57.6471
57.6363
57.6346
57.6261
57.632
57.6482
57.6404
57.6402
57.6399
57.6414
57.641
57.6419
57.6389
57.6288
57.6331
57.6417
57.6348
57.6296
57.6359
57.645
57.6452
57.6453
57.6421
57.6339
57.6363
57.6419
57.6401
57.639
57.6299
57.6273
57.6217
57.6309
57.6406
57.6408
57.6408
57.627
57.6315
57.6353
57.6207
55.0071
56.033
56.8586
57.3559
57.593
57.6967
57.7086
57.7029
57.7018
57.7002
57.6979
57.7012
57.7037
57.7007
57.6991
57.7035
57.7065
57.7039
57.7032
57.7038
57.7047
57.7014
57.695
57.6907
57.696
57.6968
57.6941
57.6945
57.694
57.6943
57.6929
57.6895
57.6836
57.6713
57.657
57.6622
57.6664
57.6634
57.6598
57.6458
57.6479
57.6508
57.6477
57.6387
57.641
57.6436
57.6311
57.6286
57.6409
57.649
57.6462
57.6471
57.6455
57.6342
57.6314
57.6455
57.6492
57.6459
57.6375
57.634
57.6411
57.6366
57.6434
57.6572
57.6477
57.6529
57.6623
57.6599
57.6605
57.6589
57.6463
57.6417
57.6469
57.6539
57.6518
57.6478
57.6369
57.6353
57.64
57.6412
57.6413
57.6347
57.6325
57.6182
57.6161
57.6247
57.6252
57.6258
57.6248
57.6145
55.0065
56.0352
56.8536
57.361
57.6022
57.6661
57.6677
57.6651
57.6612
57.6588
57.6482
57.6533
57.6642
57.6485
57.6508
57.661
57.6594
57.6594
57.6539
57.6639
57.6768
57.6719
57.6715
57.6716
57.671
57.6661
57.663
57.6521
57.6525
57.6682
57.669
57.6675
57.6533
57.6557
57.6629
57.6626
57.6625
57.6579
57.6565
57.6486
57.6391
57.633
57.6152
57.613
57.6252
57.6265
57.624
57.6138
57.6183
57.6353
57.6353
57.6327
57.6237
57.6194
57.6262
57.6257
57.6314
57.6566
57.6586
57.6526
57.6525
57.6516
57.6407
57.6379
57.6445
57.6425
57.6477
57.6493
57.6459
57.6461
57.6452
57.6347
57.6382
57.6429
57.6297
57.6357
57.6429
57.6284
57.6251
57.6318
57.6336
57.6363
57.6407
57.6388
57.6372
57.6262
57.631
57.6414
57.6382
57.6256
55.0064
56.0321
56.86
57.3569
57.5991
57.6875
57.695
57.7025
57.7048
57.701
57.6999
57.7015
57.702
57.6901
57.6927
57.6969
57.6882
57.6956
57.7004
57.6868
57.6921
57.6981
57.6944
57.6937
57.6924
57.6917
57.6805
57.6711
57.6757
57.6825
57.6785
57.6781
57.6774
57.6732
57.6667
57.6612
57.65
57.6402
57.6358
57.6315
57.6255
57.6228
57.6174
57.6199
57.6289
57.6201
57.6217
57.6311
57.6229
57.6298
57.6401
57.6405
57.6405
57.629
57.6254
57.6352
57.6421
57.6396
57.6313
57.6356
57.6412
57.6276
57.6318
57.6411
57.6257
57.6272
57.637
57.6273
57.6253
57.634
57.6356
57.6411
57.6436
57.6406
57.6317
57.6339
57.6395
57.6366
57.6313
57.6251
57.6342
57.642
57.6388
57.6385
57.6367
57.6209
57.6213
57.6314
57.6309
57.6222
55.0052
56.0303
56.8639
57.3686
57.5853
57.6307
57.6309
57.6268
57.6305
57.649
57.6503
57.6463
57.6356
57.6313
57.6533
57.672
57.6709
57.6656
57.6716
57.6861
57.6724
57.6719
57.6907
57.6984
57.6953
57.6962
57.6965
57.6959
57.6891
57.6676
57.6674
57.6695
57.6679
57.6674
57.6574
57.662
57.6629
57.6554
57.6512
57.6543
57.6575
57.6535
57.6389
57.6386
57.6451
57.6403
57.6449
57.6468
57.6441
57.6402
57.6315
57.627
57.6137
57.6161
57.6323
57.6325
57.6312
57.6185
57.6208
57.6292
57.6276
57.6245
57.6189
57.6275
57.631
57.6281
57.6227
57.618
57.6248
57.6337
57.6297
57.6318
57.6316
57.6301
57.6278
57.6208
57.6261
57.6291
57.6161
57.6199
57.6374
57.6409
57.6383
57.631
57.6294
57.6281
57.6285
57.6258
57.6249
57.6132
55.0064
56.0321
56.8603
57.3554
57.603
57.6796
57.6789
57.6891
57.6983
57.6977
57.6976
57.6851
57.6897
57.6932
57.6857
57.6877
57.6899
57.6898
57.6894
57.6886
57.6772
57.6808
57.688
57.6866
57.6863
57.6839
57.6837
57.6822
57.6795
57.6629
57.6659
57.6756
57.6755
57.675
57.6584
57.6601
57.6661
57.6552
57.6588
57.6634
57.6626
57.6619
57.6452
57.646
57.6535
57.64
57.6436
57.6568
57.6556
57.6527
57.6354
57.6349
57.6388
57.6327
57.6334
57.6319
57.6215
57.6175
57.6244
57.6241
57.6252
57.6254
57.6173
57.6169
57.6284
57.6222
57.6285
57.6387
57.6233
57.6242
57.6406
57.6417
57.6382
57.6297
57.6248
57.6365
57.6428
57.6391
57.6292
57.6252
57.6374
57.6426
57.6389
57.6392
57.637
57.6211
57.6216
57.632
57.6313
57.6225
55.0049
56.0323
56.8598
57.3679
57.5917
57.6493
57.6583
57.6561
57.6557
57.649
57.6476
57.6616
57.6633
57.6737
57.6939
57.6943
57.6906
57.6756
57.6796
57.6888
57.6731
57.677
57.6867
57.6847
57.6844
57.6828
57.6795
57.6823
57.684
57.682
57.6815
57.6743
57.6728
57.6661
57.6634
57.6583
57.6419
57.6396
57.65
57.6411
57.6462
57.6548
57.6378
57.6373
57.6508
57.6527
57.6505
57.6504
57.6465
57.6331
57.636
57.6385
57.6318
57.6324
57.6311
57.6182
57.6182
57.6249
57.6187
57.6132
57.6211
57.6311
57.6287
57.6199
57.6227
57.6265
57.6205
57.6154
57.6234
57.6398
57.6384
57.6358
57.6228
57.6268
57.6334
57.6336
57.6336
57.6184
57.6226
57.6432
57.6438
57.6427
57.6284
57.6277
57.6344
57.6233
57.6264
57.6396
57.6391
57.6317
55.0054
56.0287
56.8655
57.3694
57.585
57.6269
57.6192
57.619
57.6474
57.669
57.6585
57.6656
57.6752
57.6639
57.6698
57.6732
57.6632
57.6695
57.6739
57.6613
57.6675
57.6739
57.6652
57.6674
57.6679
57.6649
57.656
57.6597
57.6673
57.6668
57.6667
57.6638
57.662
57.6589
57.6566
57.6533
57.6504
57.6488
57.6461
57.643
57.6413
57.6393
57.6344
57.6185
57.6194
57.6302
57.6254
57.6202
57.6248
57.6287
57.6177
57.6214
57.6379
57.6389
57.6365
57.6289
57.6238
57.6306
57.6368
57.6339
57.6338
57.6303
57.6154
57.6151
57.6248
57.6235
57.6181
57.6238
57.6365
57.6377
57.6348
57.6297
57.6287
57.6164
57.6186
57.6349
57.6273
57.634
57.6482
57.6498
57.647
57.6409
57.6393
57.6265
57.6243
57.6305
57.6273
57.628
57.6278
57.618
55.0064
56.0318
56.8596
57.3665
57.588
57.6342
57.6494
57.6506
57.6395
57.6357
57.6471
57.6652
57.6608
57.6614
57.6613
57.6525
57.65
57.6644
57.6697
57.6667
57.6604
57.6552
57.667
57.6761
57.6712
57.6711
57.6705
57.6645
57.6537
57.6588
57.6633
57.6598
57.6484
57.6505
57.6569
57.6419
57.6387
57.642
57.6406
57.641
57.6407
57.6379
57.6259
57.6263
57.627
57.6201
57.6292
57.6428
57.6431
57.6431
57.6381
57.638
57.6341
57.625
57.6203
57.6274
57.6342
57.6312
57.6187
57.6213
57.637
57.6373
57.6347
57.6238
57.6206
57.6321
57.6571
57.6563
57.6516
57.6509
57.6493
57.649
57.6427
57.6405
57.6371
57.6264
57.6298
57.6479
57.6498
57.6463
57.6342
57.6385
57.6437
57.6428
57.6423
57.6256
57.628
57.6351
57.6321
57.6202
55.0074
56.0293
56.8624
57.3643
57.5884
57.6521
57.6551
57.6535
57.653
57.6398
57.64
57.663
57.6639
57.6742
57.6879
57.6751
57.6812
57.689
57.678
57.6847
57.6904
57.6881
57.6851
57.6761
57.6775
57.6799
57.6763
57.6788