/*--------------------------------*- C++ -*----------------------------------*\
  =========                 |
  \\      /  F ield         | OpenFOAM: The Open Source CFD Toolbox
   \\    /   O peration     | Website:  https://openfoam.org
    \\  /    A nd           | Version:  11
     \\/     M anipulation  |
\*---------------------------------------------------------------------------*/
FoamFile
{
    format      ascii;
    class       volScalarField;
    location    "0.056";
    object      p;
}
// * * * * * * * * * * * * * * * * * * * * * * * * * * * * * * * * * * * * * //

dimensions      [0 2 -2 0 0 0 0];

internalField   nonuniform List<scalar> 
287084
(
1.72728
1.4427
1.38107
1.31367
1.2446
1.19265
1.14342
1.09802
1.0541
1.01037
0.967688
0.925719
0.883029
0.839098
0.794303
0.749082
0.703553
0.657762
0.611878
0.566146
0.520752
0.476039
0.432225
0.389644
0.348214
0.308673
0.273141
0.240912
0.212326
0.187688
0.165459
0.144882
0.125888
0.109978
0.0978052
0.0888052
0.0825993
0.0788613
0.0772784
0.0775639
0.0794391
0.0826164
0.0868214
0.0918232
0.097375
0.103277
0.109299
0.115291
0.120915
0.12545
0.129843
0.136406
0.143188
0.146761
0.151264
0.157368
0.161323
0.162003
0.1621
0.162458
0.162165
0.161603
0.160516
0.159016
0.15689
0.154437
0.15153
0.147932
0.143727
0.138785
0.133794
0.130166
0.125642
0.118473
0.112027
0.105832
0.099741
0.0938943
0.0874287
0.0805199
0.0736907
0.0665178
0.0586519
0.049798
0.0383317
0.0284723
0.0231314
0.0159928
0.00713581
0.00276182
1.5916
1.40087
1.35102
1.29364
1.23325
1.18506
1.13837
1.09432
1.05142
1.0084
0.966039
0.923868
0.880554
0.836414
0.79177
0.746557
0.700925
0.654953
0.608858
0.562889
0.517287
0.472309
0.428341
0.385711
0.343967
0.304869
0.270953
0.239467
0.208956
0.181993
0.157937
0.136927
0.119166
0.104558
0.0930236
0.0844504
0.0785664
0.0751346
0.0738413
0.0744122
0.0765605
0.0800007
0.0844556
0.0896982
0.0954779
0.101594
0.107856
0.114104
0.120154
0.1259
0.131516
0.137331
0.142628
0.146314
0.150368
0.155532
0.15862
0.159994
0.161117
0.161772
0.161719
0.161311
0.160331
0.158779
0.156994
0.154518
0.151334
0.147916
0.143936
0.139645
0.134803
0.13029
0.125683
0.119561
0.112919
0.106587
0.100582
0.0939024
0.0867799
0.0797172
0.0720364
0.0639014
0.0564747
0.0489891
0.0407392
0.032609
0.0238744
0.016086
0.00880404
0.00306883
1.56545
1.39413
1.34363
1.28787
1.22974
1.18175
1.13532
1.09123
1.04818
1.00538
0.962818
0.920031
0.876585
0.832359
0.787416
0.741864
0.695814
0.649401
0.602843
0.556374
0.510282
0.46488
0.420479
0.377528
0.336277
0.297197
0.261063
0.228074
0.198041
0.170977
0.147478
0.126964
0.109414
0.0951596
0.0840555
0.0759269
0.0705565
0.0676401
0.0668899
0.0680031
0.0706844
0.0746449
0.0796111
0.0853311
0.0915666
0.0981152
0.104787
0.111436
0.117872
0.124048
0.129844
0.13542
0.140857
0.145558
0.149817
0.15391
0.156847
0.158901
0.160235
0.160981
0.161211
0.16084
0.159895
0.158447
0.156458
0.154183
0.151327
0.14778
0.143892
0.139652
0.134822
0.130046
0.125225
0.119383
0.113159
0.107058
0.100723
0.0942356
0.0874713
0.0801847
0.0727684
0.0649435
0.05688
0.0491027
0.0412127
0.0331214
0.0249604
0.0163554
0.007798
0.00230457
1.51847
1.36016
1.31534
1.26522
1.2129
1.1686
1.12507
1.08293
1.04118
0.999272
0.95702
0.91418
0.87055
0.826044
0.780779
0.734751
0.688148
0.641108
0.593852
0.546663
0.499822
0.453668
0.408592
0.364951
0.323136
0.283713
0.247187
0.213551
0.183044
0.155839
0.131999
0.111526
0.0944702
0.0808596
0.0704638
0.0631203
0.058531
0.0564454
0.0565262
0.0584737
0.0619648
0.0667101
0.0724244
0.0788572
0.0857617
0.0929364
0.100196
0.107384
0.114369
0.121053
0.127391
0.133353
0.138907
0.143778
0.148077
0.151985
0.155143
0.157458
0.159061
0.160026
0.160335
0.160114
0.159353
0.157978
0.156196
0.153865
0.150873
0.147533
0.143764
0.1395
0.134878
0.129998
0.124866
0.119228
0.113263
0.107071
0.100668
0.0941052
0.0872483
0.0801574
0.072786
0.0650458
0.0573801
0.0496344
0.0415766
0.0334776
0.0251779
0.0165693
0.00812529
0.0026675
1.49559
1.34535
1.30316
1.25483
1.20454
1.16106
1.11816
1.07629
1.03463
0.992696
0.95028
0.907128
0.863092
0.81811
0.772232
0.725504
0.678113
0.63017
0.581991
0.533792
0.485936
0.438792
0.392716
0.348197
0.305581
0.265399
0.228039
0.193802
0.162885
0.135461
0.111763
0.0916988
0.075226
0.0623054
0.0527483
0.0463202
0.0427474
0.041709
0.0428666
0.0458894
0.0504462
0.056228
0.0629375
0.0703067
0.078092
0.0860868
0.0941108
0.102005
0.109634
0.116918
0.123762
0.130127
0.135981
0.141213
0.145837
0.149862
0.153119
0.155655
0.157496
0.158681
0.159246
0.159184
0.158511
0.157297
0.15551
0.153217
0.150485
0.147227
0.14352
0.139374
0.134831
0.129956
0.124776
0.119188
0.113262
0.107106
0.100727
0.0940964
0.0872408
0.0801057
0.0727468
0.0652212
0.0575493
0.0497725
0.0418274
0.0337648
0.0254156
0.0167188
0.00808032
0.00254941
1.47172
1.32343
1.28305
1.23709
1.18943
1.14801
1.10683
1.06621
1.02536
0.98389
0.941569
0.898228
0.853826
0.808263
0.76169
0.714097
0.665706
0.616697
0.567314
0.517889
0.468754
0.420312
0.373015
0.327286
0.28363
0.242469
0.204301
0.169392
0.13809
0.110542
0.086912
0.0672055
0.0513679
0.0393109
0.0307846
0.0255416
0.0232329
0.0235292
0.0260435
0.0304266
0.0363125
0.0433766
0.0513112
0.0598367
0.0687035
0.0777036
0.0866487
0.0953874
0.103797
0.111772
0.119243
0.126152
0.132463
0.138108
0.143068
0.147348
0.150914
0.153738
0.155829
0.157224
0.157959
0.158058
0.157557
0.156462
0.154819
0.152649
0.149935
0.146722
0.143078
0.138997
0.134532
0.129699
0.124531
0.119005
0.113149
0.107023
0.100642
0.0940336
0.0871756
0.0800841
0.0728031
0.0653174
0.057685
0.049946
0.0420241
0.0339694
0.0256557
0.0169643
0.00823559
0.00266071
1.45386
1.30796
1.26926
1.22455
1.17826
1.13767
1.09712
1.05684
1.01613
0.974578
0.932014
0.888254
0.843231
0.796915
0.7494
0.700726
0.651143
0.600769
0.549983
0.499038
0.448364
0.398395
0.34956
0.302432
0.257432
0.21514
0.17598
0.140351
0.10861
0.080918
0.0574895
0.0382876
0.0232545
0.0122231
0.00493137
0.00107637
0.000268975
0.00214152
0.00626134
0.0122406
0.0196973
0.0282791
0.0376607
0.0475503
0.0576889
0.0678622
0.0778896
0.0876186
0.0969184
0.105702
0.11389
0.121435
0.128291
0.134422
0.139814
0.144462
0.148338
0.151454
0.15383
0.155491
0.156458
0.156756
0.156425
0.155487
0.153968
0.151892
0.1493
0.146207
0.142649
0.138647
0.134236
0.12944
0.124297
0.118809
0.113003
0.106908
0.100552
0.0939474
0.0871108
0.0800513
0.0727967
0.0653534
0.0577522
0.0500263
0.0421171
0.0340629
0.0257224
0.0170031
0.00827279
0.0026945
1.43748
1.29204
1.25404
1.21045
1.16522
1.12558
1.08578
1.04603
1.00555
0.964018
0.921191
0.87693
0.831226
0.784
0.735419
0.685495
0.63449
0.582601
0.530126
0.477453
0.42498
0.373193
0.322614
0.273783
0.227287
0.183641
0.143397
0.10697
0.0747383
0.0469434
0.023737
0.00513012
-0.00898874
-0.018813
-0.0246578
-0.0268916
-0.0259402
-0.0222385
-0.016256
-0.00842117
0.000844534
0.0111674
0.0222044
0.0336451
0.0452303
0.0567415
0.0679909
0.0788314
0.0891438
0.0988357
0.107836
0.116096
0.123587
0.130276
0.136158
0.141228
0.145493
0.14896
0.151645
0.153574
0.154784
0.155298
0.155154
0.154382
0.153004
0.15106
0.148581
0.145584
0.142111
0.138186
0.133844
0.129111
0.124013
0.118574
0.112812
0.106757
0.100429
0.0938491
0.0870336
0.0800029
0.0727772
0.0653725
0.0578055
0.050096
0.0421948
0.0341313
0.0257518
0.0170212
0.00835111
0.00278544
1.42311
1.27829
1.241
1.19805
1.15348
1.11431
1.07486
1.03523
0.99471
0.952907
0.909633
0.864717
0.818125
0.769852
0.719989
0.66862
0.616006
0.56232
0.507971
0.453291
0.398771
0.344948
0.292343
0.241641
0.193384
0.148251
0.106779
0.0694568
0.0367429
0.00882983
-0.0140407
-0.0319484
-0.0449799
-0.053412
-0.0576111
-0.0579941
-0.0550649
-0.0492997
-0.0412262
-0.0313152
-0.0200192
-0.007753
0.00512415
0.0182991
0.0314895
0.0444778
0.057081
0.0691494
0.080571
0.0912583
0.101149
0.110207
0.118399
0.12571
0.132141
0.1377
0.142391
0.146233
0.149254
0.151486
0.152962
0.153709
0.153769
0.153171
0.151954
0.150148
0.147789
0.144902
0.141528
0.137688
0.133417
0.128744
0.123698
0.118308
0.112588
0.106572
0.100279
0.0937269
0.0869398
0.0799318
0.0727329
0.0653539
0.0578042
0.0501129
0.042246
0.0342053
0.0259214
0.0172236
0.00833733
0.00267925
1.40998
1.26536
1.22841
1.18587
1.1417
1.10288
1.06361
1.02403
0.983333
0.941176
0.897323
0.851603
0.804024
0.754523
0.703252
0.650264
0.595833
0.5402
0.483719
0.426846
0.370051
0.313934
0.259118
0.206275
0.156126
0.109312
0.0665074
0.0282526
-0.00501322
-0.0329719
-0.0554841
-0.0725595
-0.0843732
-0.0912396
-0.0935762
-0.0918984
-0.086749
-0.078697
-0.0683037
-0.0561037
-0.0425903
-0.028195
-0.0133072
0.00174344
0.0166811
0.0312759
0.045339
0.058738
0.0713581
0.0831231
0.0939785
0.103885
0.112834
0.120813
0.127835
0.133912
0.139064
0.143318
0.146706
0.149256
0.15101
0.152004
0.152281
0.15188
0.150828
0.149167
0.146938
0.144166
0.140887
0.137135
0.132942
0.128338
0.123353
0.118014
0.11234
0.106365
0.100108
0.0935889
0.0868306
0.0798535
0.072679
0.0653276
0.0578029
0.0501264
0.0422513
0.0342307
0.025856
0.0170904
0.00836746
0.00278377
1.39796
1.25348
1.21674
1.17447
1.1305
1.09179
1.05253
1.01277
0.971768
0.929098
0.884523
0.837901
0.789163
0.738319
0.685452
0.630684
0.574274
0.51646
0.457687
0.398371
0.33909
0.280492
0.223221
0.168114
0.115843
0.0672575
0.0230096
-0.0162642
-0.0500407
-0.0780584
-0.100075
-0.116216
-0.126642
-0.131759
-0.132057
-0.12811
-0.120555
-0.110014
-0.0971241
-0.0824574
-0.0665481
-0.0498705
-0.0328288
-0.0157655
0.00102714
0.0173234
0.0329446
0.0477447
0.0616306
0.0745289
0.086399
0.0972143
0.106963
0.115656
0.123305
0.129938
0.135576
0.140259
0.144028
0.146913
0.148963
0.150215
0.150722
0.150519
0.149645
0.148138
0.146042
0.143387
0.140216
0.136558
0.132443
0.12791
0.122986
0.117699
0.112073
0.106142
0.0999198
0.0934312
0.0867063
0.0797547
0.0726053
0.0652767
0.0577648
0.0501048
0.0422542
0.0342332
0.0258967
0.0171556
0.00837642
0.00277616
1.38684
1.24241
1.20578
1.16361
1.11969
1.08096
1.04155
1.00154
0.96008
0.916773
0.871386
0.823701
0.773718
0.721377
0.666811
0.610112
0.551561
0.491443
0.430168
0.368279
0.306315
0.245036
0.185178
0.127577
0.0731082
0.0225899
-0.0231613
-0.0634726
-0.0978006
-0.125777
-0.147272
-0.162342
-0.171256
-0.174469
-0.17254
-0.16615
-0.155993
-0.142794
-0.12723
-0.109946
-0.0915152
-0.0724297
-0.0531283
-0.0339649
-0.0152293
0.00284675
0.0200812
0.0363511
0.0515599
0.0656409
0.0785642
0.0903164
0.100899
0.110324
0.118621
0.125823
0.131972
0.137104
0.141262
0.144496
0.146852
0.148372
0.149112
0.149116
0.14842
0.147072
0.145113
0.142584
0.139519
0.135953
0.131922
0.127457
0.122597
0.117368
0.111792
0.105902
0.0997151
0.0932665
0.0865719
0.0796498
0.0725225
0.0652079
0.0577247
0.0500773
0.0422318
0.0342304
0.0259082
0.0171618
0.0083665
0.00276473
1.37655
1.23211
1.19549
1.15337
1.1094
1.07051
1.03086
0.990452
0.948444
0.904418
0.858074
0.809273
0.757912
0.703994
0.647593
0.588856
0.528036
0.465446
0.401564
0.336894
0.272136
0.208028
0.145411
0.0852526
0.0284232
-0.0240629
-0.0713852
-0.112757
-0.147574
-0.175508
-0.196339
-0.210248
-0.217501
-0.218657
-0.214366
-0.205382
-0.192504
-0.176515
-0.158172
-0.138161
-0.117104
-0.095532
-0.073895
-0.0525619
-0.0318266
-0.0119263
0.00696995
0.0247344
0.041287
0.056575
0.0705755
0.0832853
0.0947159
0.104898
0.113862
0.121653
0.128313
0.133898
0.138457
0.142042
0.144707
0.146498
0.147474
0.147685
0.147176
0.145988
0.144173
0.141765
0.138806
0.135336
0.131388
0.127002
0.122202
0.117027
0.111505
0.105657
0.0995116
0.0930901
0.0864233
0.0795316
0.0724315
0.0651418
0.057668
0.0500398
0.0422132
0.0342121
0.0258758
0.0171363
0.00837901
0.00280243
1.367
1.22253
1.18588
1.1437
1.09955
1.06047
1.02049
0.979617
0.93697
0.892124
0.844796
0.794756
0.741974
0.686373
0.628085
0.567208
0.504039
0.438901
0.372276
0.304782
0.237066
0.170056
0.10459
0.0417415
-0.0174701
-0.072008
-0.1209
-0.163318
-0.198618
-0.226403
-0.246533
-0.25916
-0.264663
-0.26366
-0.256886
-0.245208
-0.229499
-0.210633
-0.189425
-0.166628
-0.142898
-0.118793
-0.0947872
-0.0712566
-0.0485061
-0.0267617
-0.00619312
0.0130841
0.0309941
0.047496
0.0625772
0.0762505
0.0885373
0.0994718
0.109101
0.117475
0.124655
0.130697
0.135652
0.139588
0.142558
0.144623
0.145841
0.146259
0.145929
0.144903
0.143229
0.140945
0.138094
0.134717
0.130852
0.126538
0.121805
0.116684
0.111211
0.105405
0.0992952
0.0929153
0.0862778
0.0794083
0.0723318
0.0650568
0.0576011
0.0499827
0.0421588
0.0341803
0.0258364
0.0170993
0.0083752
0.00281051
1.35817
1.21367
1.17693
1.13465
1.09033
1.05094
1.01056
0.969144
0.925813
0.8801
0.831708
0.780418
0.726138
0.66883
0.608571
0.545517
0.479923
0.412172
0.342774
0.272335
0.201673
0.131654
0.0633126
-0.00223443
-0.0638807
-0.120439
-0.170898
-0.214325
-0.250036
-0.277631
-0.296952
-0.308234
-0.311888
-0.308643
-0.299328
-0.284898
-0.266324
-0.244554
-0.220466
-0.194867
-0.168459
-0.141823
-0.115451
-0.089738
-0.0649812
-0.0414106
-0.0191842
0.00158854
0.0208399
0.0385444
0.0546941
0.0693138
0.0824408
0.094122
0.104407
0.113362
0.121048
0.12754
0.132893
0.137176
0.140456
0.142785
0.144232
0.144853
0.144705
0.143836
0.142297
0.140133
0.137386
0.134105
0.130324
0.126082
0.121409
0.116343
0.110919
0.105155
0.0990869
0.0927332
0.0861253
0.079287
0.0722315
0.0649827
0.0575428
0.049946
0.042135
0.0341577
0.0258246
0.0170984
0.00838131
0.00281568
1.35005
1.2055
1.16866
1.12623
1.08164
1.04195
1.00112
0.95916
0.915097
0.868486
0.819012
0.766431
0.710647
0.651605
0.589392
0.524133
0.456133
0.385759
0.313558
0.240228
0.166546
0.093583
0.0223411
-0.0458924
-0.10993
-0.168485
-0.220447
-0.264833
-0.300893
-0.328218
-0.346684
-0.356551
-0.358328
-0.35282
-0.34095
-0.323772
-0.302343
-0.277689
-0.250756
-0.222402
-0.193359
-0.164244
-0.135561
-0.107708
-0.080993
-0.0556371
-0.0317938
-0.00956423
0.0109915
0.0298605
0.0470528
0.0625955
0.0765399
0.0889417
0.0998689
0.109386
0.117567
0.124489
0.130221
0.134837
0.138404
0.140993
0.142673
0.143494
0.143516
0.142802
0.141397
0.139349
0.136707
0.133513
0.129808
0.125638
0.121029
0.116014
0.11063
0.104907
0.0988753
0.0925562
0.0859754
0.0791582
0.0721254
0.064889
0.0574641
0.0498737
0.0420759
0.0341127
0.0258033
0.0170825
0.00836592
0.00281838
1.34264
1.19805
1.16109
1.11847
1.07365
1.0336
0.992321
0.949762
0.904955
0.857431
0.806895
0.753034
0.695768
0.635008
0.570851
0.503435
0.433036
0.36009
0.285148
0.208932
0.132356
0.0564494
-0.0175778
-0.0884326
-0.154773
-0.215233
-0.268626
-0.313865
-0.350208
-0.377196
-0.394757
-0.40319
-0.403081
-0.395323
-0.38094
-0.361075
-0.336871
-0.309424
-0.279744
-0.24873
-0.217156
-0.185656
-0.154751
-0.124852
-0.0962607
-0.0692
-0.0438145
-0.0201928
0.00160764
0.0215881
0.0397704
0.0561918
0.0709097
0.0840057
0.0955393
0.105593
0.114247
0.12158
0.127677
0.132615
0.136465
0.139299
0.141192
0.142199
0.142387
0.141815
0.140537
0.138601
0.136058
0.13295
0.129322
0.125215
0.12066
0.115697
0.110358
0.104674
0.0986795
0.0923896
0.0858358
0.0790411
0.0720249
0.0648143
0.057404
0.0498408
0.0420465
0.0340836
0.0257502
0.0170383
0.0083828
0.00283697
1.33597
1.19132
1.15422
1.11145
1.06631
1.02595
0.984141
0.941052
0.895554
0.847144
0.795536
0.740445
0.68172
0.619328
0.5533
0.483797
0.411123
0.33569
0.258109
0.179153
0.0997511
0.0210874
-0.0556521
-0.12896
-0.197493
-0.259731
-0.314423
-0.36044
-0.396966
-0.423584
-0.440209
-0.447225
-0.445282
-0.435362
-0.418576
-0.396148
-0.369309
-0.339215
-0.306933
-0.273411
-0.239448
-0.205704
-0.172716
-0.140893
-0.110542
-0.0818806
-0.0550455
-0.0301252
-0.00715787
0.0138641
0.0329721
0.0502172
0.0656707
0.0794031
0.0915027
0.102057
0.111148
0.118868
0.125303
0.130537
0.134647
0.137711
0.139804
0.140988
0.141331
0.140899
0.139738
0.137905
0.135454
0.132428
0.128867
0.124818
0.120318
0.115399
0.110103
0.104454
0.0984867
0.0922228
0.0856917
0.0789179
0.0719208
0.064726
0.0573287
0.0497706
0.0419886
0.0340557
0.0257538
0.0170798
0.00836283
0.00277802
1.33007
1.18534
1.1481
1.10516
1.05977
1.01903
0.976825
0.933181
0.886942
0.837722
0.78513
0.728861
0.668799
0.604837
0.537059
0.465597
0.390756
0.313013
0.232954
0.151418
0.0694205
-0.0118704
-0.0910639
-0.166688
-0.237201
-0.301055
-0.356915
-0.403562
-0.440224
-0.466405
-0.482126
-0.487773
-0.484092
-0.472131
-0.453098
-0.428293
-0.399015
-0.366484
-0.331815
-0.29599
-0.259839
-0.224042
-0.189142
-0.155559
-0.123596
-0.0934678
-0.0653133
-0.039201
-0.0151656
0.00680703
0.0267589
0.0447556
0.0608673
0.075195
0.0878157
0.0988256
0.10832
0.11639
0.123138
0.128644
0.132995
0.136269
0.138544
0.139889
0.140372
0.140059
0.139008
0.137268
0.1349
0.131946
0.128451
0.124457
0.120004
0.11513
0.109868
0.104253
0.0983153
0.09208
0.0855738
0.0788178
0.0718365
0.0646599
0.0572765
0.0497416
0.0419749
0.0340381
0.0257579
0.0170335
0.00833142
0.00279768
1.32491
1.18015
1.14281
1.09967
1.05402
1.01296
0.970339
0.926175
0.879341
0.829343
0.775833
0.718503
0.657192
0.591829
0.522451
0.449206
0.37243
0.292545
0.210257
0.126379
0.041991
-0.0416166
-0.12309
-0.20073
-0.273048
-0.338306
-0.395158
-0.442355
-0.479048
-0.504814
-0.519654
-0.524034
-0.518764
-0.504962
-0.483907
-0.456967
-0.425507
-0.390789
-0.353981
-0.316095
-0.277988
-0.240356
-0.203753
-0.168599
-0.135201
-0.103772
-0.0744358
-0.0472682
-0.0222855
0.000537626
0.0212533
0.0399199
0.0566227
0.0714608
0.0845374
0.0959517
0.105803
0.11419
0.12121
0.126957
0.131521
0.134981
0.137419
0.138907
0.139516
0.139314
0.138356
0.136705
0.13441
0.131519
0.128077
0.12413
0.119722
0.114885
0.10966
0.104072
0.0981565
0.0919405
0.085451
0.0787138
0.0717481
0.0645811
0.0572097
0.0496745
0.0419173
0.0339938
0.0257132
0.0170149
0.00832514
0.00280685
1.32061
1.17576
1.13827
1.09504
1.04915
1.00781
0.964762
0.920214
0.872825
0.822141
0.767823
0.709552
0.647162
0.580542
0.509764
0.434955
0.356442
0.274721
0.190465
0.104548
0.0181044
-0.0675775
-0.150967
-0.230394
-0.30423
-0.370685
-0.428364
-0.475955
-0.512669
-0.538001
-0.552052
-0.555309
-0.548631
-0.533218
-0.510402
-0.48161
-0.448261
-0.411668
-0.373022
-0.33337
-0.293581
-0.254377
-0.216308
-0.179808
-0.145178
-0.112624
-0.0822809
-0.0542028
-0.0284059
-0.00485749
0.0164962
0.0357377
0.0529539
0.0682489
0.0817203
0.0934836
0.103642
0.1123
0.119559
0.125512
0.13026
0.133878
0.136459
0.13807
0.138786
0.138677
0.137801
0.136218
0.133991
0.131157
0.127763
0.123858
0.119484
0.11468
0.109478
0.103918
0.0980289
0.0918341
0.0853626
0.0786373
0.0716862
0.064531
0.0571692
0.0496569
0.0419003
0.0339812
0.0257084
0.017009
0.00832881
0.00280411
1.3171
1.17223
1.13465
1.09128
1.04521
1.00361
0.960281
0.915328
0.86745
0.816186
0.761223
0.702169
0.638868
0.571224
0.499272
0.42316
0.343239
0.25995
0.174064
0.0864349
-0.00173788
-0.0890889
-0.174119
-0.254956
-0.330077
-0.397465
-0.455774
-0.503697
-0.540364
-0.565332
-0.578701
-0.580998
-0.57316
-0.556413
-0.532149
-0.501839
-0.466943
-0.428799
-0.388643
-0.347534
-0.306369
-0.265871
-0.226603
-0.188995
-0.153353
-0.119885
-0.0887041
-0.0598811
-0.0334158
-0.00927152
0.0126163
0.0323325
0.0499686
0.065622
0.0794169
0.0914643
0.101876
0.110755
0.118207
0.124331
0.129223
0.132974
0.135667
0.13738
0.13818
0.138147
0.137341
0.135819
0.133638
0.13085
0.127496
0.123626
0.119288
0.114508
0.109332
0.103789
0.0979126
0.0917331
0.0852724
0.0785622
0.0716197
0.0644701
0.0571207
0.0496046
0.041858
0.0339348
0.0256631
0.0169792
0.00832317
0.00281933
1.31446
1.16956
1.1319
1.08844
1.0422
1.00044
0.956808
0.911606
0.86338
0.811678
0.756167
0.69651
0.632505
0.56404
0.491181
0.414063
0.333014
0.248549
0.161398
0.0724602
-0.0170299
-0.105691
-0.191958
-0.273894
-0.35004
-0.418054
-0.476818
-0.524962
-0.561612
-0.586262
-0.599092
-0.600661
-0.59191
-0.574136
-0.548755
-0.517281
-0.481197
-0.441879
-0.400569
-0.358353
-0.316136
-0.274654
-0.234471
-0.196019
-0.159602
-0.125432
-0.0936232
-0.0642275
-0.0372513
-0.0126495
0.00964205
0.0297193
0.0476741
0.0636121
0.0776533
0.0899214
0.100521
0.109567
0.11717
0.123423
0.128433
0.132283
0.135066
0.136851
0.137722
0.137749
0.136994
0.135514
0.133375
0.130621
0.127297
0.123456
0.119134
0.114376
0.109216
0.10369
0.0978278
0.0916595
0.0852148
0.0785131
0.0715838
0.064444
0.0570986
0.049595
0.0418484
0.0339379
0.0256556
0.0169534
0.00832235
0.00282962
1.3127
1.16776
1.13005
1.08652
1.04019
0.998286
0.954504
0.909084
0.860603
0.808594
0.752745
0.692669
0.628181
0.559192
0.485708
0.407897
0.32611
0.240818
0.152795
0.0629605
-0.0274535
-0.116976
-0.204129
-0.286778
-0.363687
-0.432151
-0.490968
-0.539277
-0.575966
-0.600413
-0.612882
-0.613935
-0.604579
-0.586107
-0.559974
-0.527711
-0.490829
-0.450712
-0.408623
-0.365658
-0.322733
-0.280583
-0.239779
-0.200759
-0.163822
-0.129177
-0.0969391
-0.0671599
-0.0398361
-0.0149308
0.00763418
0.0279519
0.0461193
0.0622464
0.0764597
0.0888739
0.0996092
0.108771
0.116474
0.122815
0.1279
0.131821
0.134663
0.136502
0.137414
0.137476
0.136752
0.135309
0.133193
0.130459
0.127159
0.123334
0.119032
0.114288
0.10914
0.103621
0.097767
0.0916123
0.0851683
0.0784723
0.0715478
0.0644112
0.0570732
0.0495675
0.0418377
0.0339274
0.0257006
0.0170383
0.00828896
0.00275763
1.31181
1.16687
1.12912
1.08557
1.03919
0.997215
0.953366
0.907824
0.859193
0.807067
0.751019
0.69073
0.626003
0.556713
0.48292
0.404763
0.322579
0.23689
0.148434
0.0581554
-0.0327039
-0.122693
-0.210237
-0.293332
-0.370566
-0.439339
-0.498079
-0.546468
-0.583217
-0.607529
-0.619815
-0.620621
-0.610947
-0.592125
-0.565612
-0.532954
-0.495669
-0.455155
-0.412678
-0.369341
-0.326055
-0.283569
-0.242455
-0.203145
-0.165945
-0.131062
-0.0986104
-0.0686377
-0.0411423
-0.0160745
0.00663168
0.0270708
0.0453443
0.061566
0.0758615
0.0883497
0.0991454
0.108365
0.116121
0.122507
0.127631
0.131581
0.134451
0.136314
0.137253
0.137337
0.136634
0.135201
0.133103
0.130383
0.127089
0.123275
0.118977
0.11424
0.109096
0.103586
0.0977392
0.0915823
0.0851464
0.0784543
0.0715364
0.0644065
0.0570682
0.0495684
0.041831
0.033924
0.0256737
0.0169659
0.00829218
0.00279634
1.31181
1.16686
1.12912
1.08557
1.03919
0.997209
0.953361
0.907818
0.859197
0.807067
0.751018
0.690738
0.626002
0.556732
0.482933
0.404777
0.322603
0.236898
0.148445
0.0581639
-0.0326996
-0.122683
-0.210236
-0.293319
-0.370551
-0.439325
-0.498057
-0.546452
-0.583195
-0.607514
-0.619796
-0.6206
-0.610929
-0.592107
-0.565596
-0.532935
-0.49565
-0.455136
-0.412662
-0.369326
-0.326042
-0.283558
-0.242444
-0.203138
-0.165939
-0.131058
-0.0986059
-0.0686303
-0.0411352
-0.0160745
0.00662638
0.0270627
0.0453396
0.0615615
0.075859
0.0883459
0.0991448
0.108367
0.116121
0.122505
0.127631
0.131587
0.134457
0.136321
0.137257
0.13734
0.13663
0.135198
0.133097
0.130377
0.127086
0.123271
0.118978
0.114239
0.109097
0.103584
0.0977339
0.0915793
0.0851408
0.0784504
0.0715284
0.064396
0.0570644
0.0495586
0.0418237
0.0339145
0.0256471
0.0169651
0.00831174
0.00280957
1.3127
1.16777
1.13005
1.08653
1.04021
0.99829
0.954538
0.909087
0.860593
0.808613
0.752762
0.692672
0.628195
0.559187
0.485705
0.407907
0.326105
0.240832
0.152809
0.0629951
-0.0274149
-0.116941
-0.204073
-0.286732
-0.363644
-0.432102
-0.490889
-0.539216
-0.575902
-0.600347
-0.612816
-0.613877
-0.604523
-0.586056
-0.559925
-0.527663
-0.490781
-0.45067
-0.408587
-0.365629
-0.322707
-0.280556
-0.239756
-0.200736
-0.163803
-0.129163
-0.0969252
-0.0671469
-0.0398269
-0.0149187
0.00764848
0.0279703
0.0461377
0.0622576
0.0764661
0.0888777
0.0996073
0.108767
0.11647
0.122813
0.127897
0.131816
0.134654
0.136489
0.137406
0.13747
0.136749
0.1353
0.133187
0.130455
0.127151
0.123328
0.119021
0.114277
0.109128
0.103611
0.0977616
0.0915991
0.0851592
0.0784642
0.0715417
0.0644085
0.0570686
0.0495708
0.0418323
0.0339257
0.0256684
0.0169632
0.00828909
0.00279668
1.31446
1.16956
1.13191
1.08843
1.04222
1.00042
0.956854
0.911606
0.86335
0.81169
0.756178
0.696527
0.632514
0.564068
0.491209
0.414091
0.33306
0.248585
0.161439
0.0725071
-0.0169875
-0.105627
-0.191906
-0.273817
-0.349964
-0.417956
-0.476711
-0.52487
-0.561503
-0.586166
-0.598988
-0.600561
-0.591813
-0.574043
-0.548669
-0.517199
-0.481122
-0.44181
-0.400507
-0.358297
-0.316085
-0.274608
-0.234429
-0.195982
-0.15957
-0.125404
-0.0935992
-0.0642079
-0.037235
-0.012637
0.00965147
0.0297246
0.0476764
0.063609
0.0776509
0.0899164
0.100519
0.109567
0.117171
0.123423
0.128432
0.132285
0.135062
0.136849
0.137722
0.137745
0.136984
0.135507
0.133363
0.130607
0.127287
0.123443
0.119123
0.114362
0.109201
0.103672
0.0978081
0.0916419
0.0851944
0.0784952
0.0715691
0.0644256
0.0570859
0.049576
0.041846
0.0339351
0.0256982
0.0170239
0.00829524
0.0027794
1.3171
1.17224
1.13465
1.09128
1.04521
1.00361
0.960292
0.915329
0.867461
0.816223
0.761253
0.702188
0.638895
0.571251
0.499295
0.4232
0.343258
0.260005
0.174112
0.0865018
-0.00165772
-0.0890126
-0.174013
-0.25487
-0.32995
-0.397356
-0.45564
-0.503555
-0.54022
-0.56519
-0.578562
-0.580864
-0.573033
-0.556291
-0.532032
-0.50173
-0.466837
-0.428708
-0.388561
-0.347457
-0.3063
-0.265806
-0.226547
-0.188945
-0.153311
-0.11985
-0.088674
-0.0598557
-0.0333947
-0.00925245
0.0126298
0.0323455
0.0499796
0.0656295
0.0794209
0.0914651
0.101873
0.110752
0.118206
0.124328
0.129219
0.13297
0.135662
0.137371
0.138175
0.138138
0.137333
0.135808
0.133625
0.130837
0.127482
0.123612
0.119265
0.114486
0.10931
0.103769
0.0978924
0.0917092
0.0852527
0.0785418
0.0716035
0.064458
0.0571082
0.0496001
0.04185
0.0339433
0.0256723
0.0169732
0.00830374
0.00280401
1.3206
1.17577
1.1383
1.09503
1.04916
1.00779
0.964808
0.92022
0.872808
0.822164
0.767846
0.70958
0.647188
0.580581
0.509807
0.435001
0.356514
0.274781
0.190538
0.104629
0.0181858
-0.0674627
-0.150866
-0.23026
-0.304091
-0.370535
-0.428191
-0.475798
-0.512481
-0.537835
-0.551872
-0.555137
-0.548464
-0.533061
-0.510256
-0.481477
-0.448139
-0.411554
-0.372917
-0.333273
-0.293491
-0.254296
-0.216237
-0.179743
-0.145121
-0.112577
-0.0822403
-0.0541703
-0.0283785
-0.00483299
0.0165179
0.0357535
0.0529637
0.0682476
0.0817167
0.0934798
0.103637
0.112297
0.119561
0.125516
0.130259
0.133877
0.136452
0.138065
0.138783
0.13867
0.13779
0.136207
0.133971
0.131134
0.127743
0.123838
0.119463
0.114656
0.109453
0.103887
0.0979918
0.091795
0.0853241
0.0786042
0.0716549
0.0644969
0.0571406
0.0496209
0.0418773
0.0339577
0.0257048
0.0170279
0.00830946
0.00277944
1.32492
1.18016
1.1428
1.09968
1.05402
1.01296
0.970349
0.926193
0.879347
0.829366
0.775867
0.718533
0.657236
0.59188
0.522499
0.449271
0.37248
0.292622
0.210338
0.126472
0.0421167
-0.0415124
-0.122934
-0.200605
-0.272869
-0.338143
-0.394969
-0.442156
-0.47885
-0.50461
-0.51946
-0.523836
-0.518575
-0.504779
-0.483733
-0.456807
-0.425352
-0.390649
-0.353852
-0.315974
-0.27788
-0.240258
-0.203668
-0.168524
-0.135136
-0.103715
-0.0743891
-0.0472326
-0.0222571
0.000558359
0.02126
0.0399262
0.0566304
0.0714669
0.0845392
0.0959517
0.105803
0.114191
0.121215
0.12696
0.131518
0.134975
0.137415
0.1389
0.139509
0.139302
0.138347
0.136691
0.134391
0.131499
0.128056
0.124109
0.119693
0.114854
0.109625
0.10404
0.0981227
0.0919046
0.0854151
0.0786772
0.0717134
0.0645513
0.0571819
0.049653
0.0418839
0.0339569
0.0256515
0.0169545
0.00833937
0.00283318
1.33006
1.18535
1.1481
1.10516
1.05977
1.01902
0.976823
0.933171
0.886981
0.837765
0.785162
0.728906
0.66884
0.604894
0.537127
0.465662
0.390847
0.313095
0.233062
0.151543
0.0695387
-0.011716
-0.0909213
-0.166512
-0.237021
-0.300866
-0.356698
-0.403358
-0.43999
-0.466188
-0.481898
-0.487547
-0.483872
-0.471925
-0.452905
-0.428115
-0.398851
-0.366333
-0.331672
-0.29586
-0.259717
-0.223935
-0.189047
-0.155473
-0.123518
-0.0933987
-0.0652548
-0.0391563
-0.0151292
0.00684258
0.0267904
0.0447798
0.06089
0.0752028
0.0878125
0.098818
0.108308
0.116386
0.123135
0.12864
0.132988
0.136262
0.138534
0.139879
0.140367
0.140052
0.138995
0.137257
0.134882
0.131922
0.128422
0.124425
0.119969
0.115092
0.10983
0.104208
0.0982655
0.0920253
0.0855175
0.0787635
0.0717844
0.0646057
0.0572268
0.0496875
0.0419121
0.0339745
0.0256568
0.0169567
0.00834547
0.00284454
1.336
1.19132
1.15419
1.11147
1.06633
1.02594
0.984186
0.94107
0.895546
0.847168
0.795577
0.740481
0.681781
0.619387
0.553368
0.483875
0.411203
0.335779
0.258223
0.179259
0.0999071
0.0212135
-0.0554645
-0.1288
-0.197283
-0.259529
-0.314197
-0.360201
-0.396731
-0.423335
-0.439973
-0.446984
-0.445056
-0.435137
-0.418361
-0.395948
-0.369116
-0.339036
-0.306772
-0.273262
-0.239315
-0.205583
-0.172608
-0.140795
-0.110456
-0.0818017
-0.0549809
-0.0300745
-0.00711281
0.0139003
0.0329975
0.0502344
0.0656788
0.079407
0.0915029
0.102056
0.111147
0.118865
0.125301
0.13053
0.134641
0.137704
0.139797
0.140979
0.141324
0.140887
0.139726
0.137888
0.135433
0.132404
0.128838
0.124785
0.120277
0.115356
0.110055
0.104406
0.0984312
0.0921658
0.0856329
0.0788619
0.0718655
0.0646727
0.0572804
0.0497284
0.0419518
0.0340086
0.0257357
0.0170568
0.00833761
0.00278885
1.34264
1.19806
1.16109
1.11849
1.07364
1.03361
0.992309
0.949776
0.904987
0.85749
0.806928
0.753091
0.695815
0.635072
0.570932
0.503513
0.433142
0.360201
0.285268
0.20908
0.1325
0.0566195
-0.0173977
-0.0882407
-0.154556
-0.215019
-0.268382
-0.313627
-0.349951
-0.37694
-0.394503
-0.402933
-0.402837
-0.395089
-0.380718
-0.360863
-0.336673
-0.309242
-0.279575
-0.248577
-0.217011
-0.185531
-0.154641
-0.124751
-0.0961677
-0.0691157
-0.0437419
-0.0201319
0.00166194
0.0216344
0.0398052
0.05622
0.0709297
0.0840124
0.0955412
0.105592
0.11424
0.121572
0.127668
0.132607
0.136456
0.13929
0.141185
0.142191
0.142379
0.14181
0.140527
0.138587
0.136038
0.132922
0.129287
0.125176
0.120616
0.115647
0.1103
0.10461
0.0986069
0.0923141
0.0857591
0.0789625
0.0719474
0.0647376
0.0573291
0.0497659
0.0419788
0.0340259
0.0257337
0.0169983
0.00832962
0.00282002
1.35007
1.20551
1.16865
1.12625
1.08166
1.04197
1.00113
0.959179
0.91512
0.868514
0.819055
0.766486
0.710708
0.651681
0.589471
0.524228
0.456232
0.385858
0.313698
0.24034
0.166725
0.0937254
0.0225402
-0.0457031
-0.109705
-0.168262
-0.220204
-0.264574
-0.300632
-0.327945
-0.346422
-0.356286
-0.35808
-0.352569
-0.340713
-0.323547
-0.302132
-0.277495
-0.250579
-0.222239
-0.193211
-0.16411
-0.135441
-0.107593
-0.0808892
-0.0555429
-0.031713
-0.00949878
0.0110512
0.0299074
0.0470862
0.0626181
0.0765526
0.0889516
0.0998727
0.109385
0.117568
0.124484
0.130213
0.134827
0.138396
0.140984
0.142661
0.143483