/*--------------------------------*- C++ -*----------------------------------*\
  =========                 |
  \\      /  F ield         | OpenFOAM: The Open Source CFD Toolbox
   \\    /   O peration     | Website:  https://openfoam.org
    \\  /    A nd           | Version:  11
     \\/     M anipulation  |
\*---------------------------------------------------------------------------*/
FoamFile
{
    format      ascii;
    class       volScalarField;
    location    "0.034";
    object      k;
}
// * * * * * * * * * * * * * * * * * * * * * * * * * * * * * * * * * * * * * //

dimensions      [0 2 -2 0 0 0 0];

internalField   nonuniform List<scalar> 
287084
(
0.382692
0.395099
0.401462
0.403585
0.403808
0.403775
0.403716
0.403611
0.403747
0.403904
0.403889
0.403871
0.403718
0.403646
0.40375
0.403716
0.403855
0.404034
0.403876
0.403979
0.404045
0.403932
0.403947
0.403942
0.403884
0.403766
0.403851
0.403977
0.403921
0.403704
0.403701
0.403805
0.403574
0.403609
0.403756
0.403762
0.403779
0.403684
0.403668
0.403533
0.403636
0.403752
0.403499
0.403552
0.403705
0.403461
0.403452
0.403709
0.403748
0.40368
0.403694
0.403693
0.403638
0.403615
0.40347
0.40357
0.403688
0.403665
0.403597
0.403588
0.403705
0.40353
0.403607
0.403764
0.403727
0.403719
0.40353
0.403631
0.403748
0.403728
0.403743
0.403632
0.403701
0.403774
0.403824
0.403801
0.403751
0.40361
0.403682
0.403764
0.403766
0.403766
0.403572
0.403515
0.403533
0.40342
0.40353
0.403684
0.403658
0.403573
0.382722
0.394966
0.401404
0.403608
0.403859
0.403857
0.403879
0.403824
0.403834
0.403845
0.403834
0.403659
0.403699
0.403811
0.403553
0.403584
0.403752
0.403749
0.403665
0.403728
0.404012
0.403951
0.403964
0.404029
0.404022
0.403849
0.403941
0.404022
0.403787
0.403858
0.403917
0.403654
0.403704
0.403856
0.403617
0.403596
0.403734
0.40368
0.403797
0.403857
0.403807
0.403721
0.403623
0.403764
0.403819
0.403756
0.40353
0.403523
0.403622
0.403445
0.403412
0.403599
0.403713
0.403666
0.403501
0.403586
0.403736
0.403529
0.403625
0.403746
0.403721
0.403644
0.403633
0.403712
0.403572
0.40366
0.403775
0.403737
0.40361
0.403649
0.403816
0.403836
0.403837
0.403603
0.403668
0.403829
0.403677
0.403745
0.403768
0.40371
0.403711
0.403701
0.403563
0.403589
0.403626
0.403586
0.403469
0.403506
0.403673
0.403444
0.382722
0.394957
0.401396
0.403573
0.403788
0.403923
0.403994
0.403794
0.403863
0.404044
0.404031
0.404039
0.403985
0.403802
0.403772
0.403905
0.403981
0.403942
0.403712
0.403699
0.403851
0.403833
0.403953
0.404055
0.404045
0.404042
0.403858
0.403921
0.404002
0.403764
0.403846
0.404005
0.403768
0.403843
0.40401
0.403786
0.403874
0.404032
0.403901
0.403867
0.40383
0.403795
0.403837
0.403874
0.403842
0.403749
0.4038
0.403853
0.403835
0.403829
0.403609
0.403655
0.403716
0.403546
0.403651
0.403767
0.403515
0.403579
0.403719
0.403711
0.403714
0.403623
0.403675
0.40361
0.403738
0.403818
0.403782
0.403673
0.403709
0.403791
0.403673
0.403657
0.403514
0.40361
0.403707
0.403488
0.403562
0.403784
0.403676
0.403677
0.403639
0.403737
0.403774
0.403569
0.403649
0.40375
0.403508
0.403582
0.403673
0.403426
0.382715
0.39498
0.401324
0.403623
0.403972
0.404136
0.404129
0.404052
0.404025
0.40404
0.404053
0.404018
0.404012
0.403896
0.403987
0.404035
0.403977
0.403779
0.403787
0.403941
0.403885
0.403891
0.403801
0.403783
0.40377
0.40377
0.403642
0.403691
0.403969
0.403983
0.403935
0.403695
0.403711
0.403843
0.403631
0.403646
0.403801
0.403663
0.403757
0.403911
0.403813
0.403817
0.4038
0.403743
0.403717
0.403712
0.403591
0.403556
0.403633
0.403705
0.403664
0.403609
0.403601
0.40346
0.403579
0.40375
0.40354
0.40363
0.403751
0.403699
0.403693
0.403559
0.403711
0.403855
0.403846
0.403869
0.403814
0.403794
0.403818
0.403821
0.403626
0.403698
0.403787
0.403606
0.403688
0.403895
0.403868
0.403871
0.403879
0.403852
0.403593
0.403643
0.403759
0.403761
0.40376
0.403521
0.403599
0.403695
0.403658
0.403546
0.382716
0.394975
0.401319
0.403646
0.404005
0.403985
0.403883
0.403947
0.404042
0.40385
0.403934
0.403981
0.40393
0.403927
0.403829
0.403845
0.403846
0.403801
0.403707
0.403705
0.403703
0.403889
0.404064
0.403943
0.403974
0.403928
0.403767
0.403845
0.403983
0.403775
0.403721
0.403794
0.403742
0.403873
0.404032
0.403853
0.403944
0.403995
0.403985
0.40398
0.403722
0.403765
0.403838
0.403832
0.403829
0.403597
0.403673
0.403756
0.403552
0.403649
0.403773
0.403515
0.403522
0.403668
0.403527
0.403617
0.403786
0.403688
0.403712
0.403669
0.403526
0.403611
0.403779
0.403547
0.403621
0.403757
0.403521
0.403556
0.403719
0.40355
0.403635
0.403804
0.403788
0.403785
0.403598
0.403695
0.403802
0.403657
0.403657
0.403649
0.403523
0.40361
0.403772
0.403578
0.40368
0.403777
0.403572
0.403673
0.403776
0.403504
0.382701
0.395016
0.401318
0.403412
0.403635
0.403472
0.403566
0.403817
0.40384
0.403795
0.403555
0.403604
0.403849
0.403719
0.403837
0.403977
0.403843
0.403854
0.403845
0.403862
0.403816
0.403667
0.403753
0.403899
0.403649
0.403633
0.403859
0.403895
0.403855
0.40372
0.403812
0.404011
0.403941
0.403942
0.403885
0.403701
0.403741
0.403844
0.403581
0.403616
0.403776
0.403568
0.40364
0.40382
0.403599
0.403679
0.403857
0.403738
0.403765
0.403719
0.403566
0.403631
0.403823
0.403797
0.403755
0.403616
0.403529
0.403645
0.403721
0.403672
0.403581
0.403473
0.403636
0.403785
0.403781
0.403781
0.403718
0.403621
0.403597
0.403588
0.403758
0.403878
0.403689
0.403781
0.403843
0.403612
0.403692
0.403815
0.403588
0.40366
0.403795
0.403628
0.403733
0.403813
0.403802
0.403782
0.403759
0.403782
0.403746
0.403546
0.382674
0.395061
0.401308
0.403471
0.403728
0.403539
0.40364
0.403747
0.403669
0.403599
0.403649
0.404246
0.404363
0.404235
0.40425
0.404308
0.404316
0.404344
0.404316
0.40426
0.404279
0.404232
0.404064
0.40411
0.40415
0.404097
0.403987
0.403935
0.403959
0.403962
0.403901
0.403953
0.404031
0.40378
0.403848
0.404005
0.403778
0.403852
0.403996
0.403971
0.403964
0.403763
0.403856
0.403958
0.403848
0.403846
0.40383
0.403848
0.403806
0.403765
0.403642
0.403726
0.403773
0.403512
0.403504
0.403727
0.403758
0.403701
0.403525
0.40348
0.403551
0.403442
0.40356
0.403688
0.403641
0.403638
0.403569
0.403565
0.403445
0.403562
0.403679
0.403452
0.403482
0.403681
0.403714
0.403716
0.403502
0.403569
0.403766
0.403626
0.403725
0.403779
0.403583
0.403664
0.40378
0.403734
0.40373
0.403727
0.403718
0.403483
0.382711
0.394996
0.401261
0.403647
0.404385
0.404583
0.404585
0.404554
0.404514
0.404477
0.404481
0.404454
0.404415
0.404425
0.404446
0.404406
0.404374
0.404361
0.404333
0.404278
0.404256
0.404208
0.404052
0.404105
0.404153
0.404109
0.40404
0.403943
0.403912
0.403758
0.403858
0.404025
0.403788
0.403861
0.404021
0.403875
0.403815
0.404009
0.404127
0.404108
0.404103
0.403914
0.404001
0.404083
0.403999
0.403946
0.403979
0.404065
0.404021
0.404035
0.404051
0.404075
0.404033
0.403985
0.403887
0.403809
0.403774
0.403731
0.403691
0.403588
0.403716
0.403846
0.40375
0.403755
0.403754
0.40359
0.403664
0.403772
0.403618
0.403625
0.403621
0.403615
0.403442
0.403416
0.403721
0.403809
0.403773
0.403751
0.403545
0.40365
0.403826
0.403717
0.403754
0.403763
0.403724
0.40357
0.403627
0.40375
0.403706
0.403535
0.382689
0.39504
0.401311
0.403467
0.403774
0.403716
0.403709
0.403707
0.403601
0.403641
0.404188
0.404344
0.404298
0.404283
0.404295
0.404326
0.404302
0.404334
0.404315
0.404282
0.404231
0.404196
0.404185
0.404142
0.404119
0.404106
0.4039
0.403889
0.403962
0.403779
0.403871
0.404032
0.403792
0.403865
0.404023
0.403874
0.403809
0.403988
0.404141
0.404107
0.404137
0.404061
0.40402
0.404043
0.404047
0.404016
0.403971
0.403676
0.403681
0.40374
0.40349
0.403557
0.403663
0.403459
0.40342
0.403647
0.403736
0.403684
0.40358
0.403474
0.403626
0.403726
0.403697
0.403685
0.403517
0.403631
0.403804
0.403689
0.403767
0.403802
0.403747
0.403567
0.403541
0.403719
0.403732
0.403749
0.403841
0.403857
0.403783
0.403776
0.403645
0.403721
0.403853
0.403763
0.403782
0.403765
0.40362
0.403574
0.403594
0.403427
0.382664
0.395073
0.401355
0.403283
0.40373
0.403707
0.403602
0.403534
0.403756
0.403901
0.403868
0.403821
0.403669
0.40383
0.403956
0.40391
0.403815
0.403716
0.403748
0.403693
0.403831
0.403927
0.403759
0.403722
0.403911
0.403978
0.403825
0.403936
0.404052
0.403792
0.403841
0.404004
0.404
0.404016
0.403957
0.403915
0.403864
0.403723
0.403764
0.403802
0.403523
0.403554
0.403696
0.403472
0.403539
0.403677
0.403431
0.403444
0.403604
0.403543
0.403577
0.403575
0.403528
0.403368
0.403457
0.403629
0.40339
0.403403
0.40363
0.4037
0.403646
0.403408
0.403412
0.403581
0.403584
0.403538
0.403613
0.403703
0.403549
0.403538
0.403536
0.403418
0.403499
0.403658
0.403416
0.403409
0.403659
0.403705
0.40365
0.403446
0.403453
0.403681
0.403737
0.403704
0.403679
0.403535
0.403584
0.403763
0.403728
0.403583
0.38269
0.395015
0.401348
0.403507
0.403832
0.4038
0.403719
0.403613
0.403786
0.403899
0.403886
0.403838
0.403933
0.404056
0.403863
0.403931
0.404154
0.404148
0.404112
0.404088
0.403913
0.403889
0.403992
0.40398
0.403895
0.403814
0.403876
0.40396
0.40392
0.403745
0.403851
0.40404
0.40398
0.40398
0.40392
0.403727
0.403752
0.40383
0.403564
0.403594
0.403747
0.403539
0.403611
0.403788
0.403568
0.403623
0.403822
0.403836
0.403828
0.403575
0.403627
0.403726
0.403481
0.403518
0.403672
0.403629
0.403625
0.403515
0.403589
0.403638
0.403587
0.403427
0.403443
0.403653
0.403653
0.403613
0.403413
0.403413
0.403633
0.403627
0.403629
0.403613
0.40376
0.403845
0.403638
0.403729
0.403858
0.403698
0.403787
0.403846
0.403691
0.403794
0.40385
0.403585
0.403638
0.403765
0.403602
0.403584
0.403579
0.40345
0.382683
0.39504
0.401302
0.403552
0.403871
0.40386
0.403905
0.40386
0.403765
0.403734
0.404114
0.404364
0.404264
0.404349
0.404384
0.404322
0.404327
0.404318
0.404177
0.404217
0.40425
0.404086
0.404187
0.404263
0.404218
0.404144
0.404036
0.403971
0.403769
0.403844
0.403958
0.403694
0.403742
0.403885
0.403636
0.403677
0.403831
0.403611
0.403676
0.403844
0.403617
0.403691
0.403859
0.403736
0.40376
0.403714
0.403557
0.403634
0.403775
0.40379
0.403745
0.403695
0.403566
0.403546
0.403634
0.40351
0.403592
0.403624
0.40344
0.403464
0.403727
0.403752
0.403728
0.403754
0.403736
0.403678
0.403492
0.403548
0.40377
0.403771
0.403752
0.403495
0.403533
0.403678
0.40368
0.403678
0.40344
0.403512
0.403742
0.403717
0.403712
0.403546
0.403645
0.403722
0.403676
0.40367
0.403522
0.40364
0.403737
0.403478
0.382711
0.394996
0.40126
0.403644
0.40439
0.4045
0.404457
0.404468
0.404421
0.404411
0.404394
0.404343
0.404379
0.404414
0.404387
0.404366
0.404336
0.404316
0.404328
0.404363
0.40432
0.404228
0.404162
0.404205
0.404221
0.404174
0.403969
0.403968
0.404042
0.403829
0.40391
0.404056
0.403957
0.403869
0.403986
0.404102
0.404098
0.404094
0.40387
0.403934
0.404035
0.403985
0.403976
0.403817
0.403906
0.403971
0.403919
0.403913
0.40385
0.40387
0.403845
0.403791
0.403589
0.403634
0.403769
0.40377
0.403768
0.403544
0.403638
0.403816
0.403809
0.403807
0.403588
0.403683
0.403818
0.403584
0.403662
0.403776
0.403621
0.403626
0.40362
0.403613
0.40344
0.403412
0.403717
0.403807
0.403762
0.403688
0.403545
0.403663
0.403741
0.403711
0.403705
0.403536
0.403648
0.403832
0.403725
0.40373
0.403721
0.40352
0.382671
0.395052
0.401367
0.403372
0.40357
0.403459
0.403593
0.403826
0.403698
0.4037
0.4037
0.403585
0.403631
0.403801
0.403752
0.403836
0.403867
0.403772
0.40376
0.403885
0.403845
0.403979
0.40416
0.404019
0.404097
0.40413
0.404068
0.404071
0.404023
0.403856
0.403915
0.404056
0.403961
0.403866
0.403975
0.4041
0.404051
0.404022
0.404015
0.404041
0.404004
0.403952
0.403937
0.403963
0.403915
0.40392
0.403908
0.403829
0.403693
0.403654
0.403545
0.403653
0.403758
0.403752
0.403749
0.403526
0.403581
0.403715
0.403711
0.403709
0.403495
0.403557
0.403737
0.40364
0.403632
0.403519
0.403628
0.403717
0.40368
0.403673
0.403481
0.403531
0.403744
0.403608
0.403705
0.403882
0.403737
0.403837
0.403895
0.403844
0.403853
0.403836
0.403811
0.403607
0.403651
0.403807
0.403823
0.403825
0.403764
0.403575
0.382711
0.394995
0.40126
0.403645
0.404383
0.40458
0.404583
0.404552
0.40452
0.404489
0.404487
0.404459
0.404422
0.404421
0.404397
0.404327
0.40429
0.404232
0.404286
0.404317
0.404263
0.404224
0.40426
0.404289
0.404228
0.404094
0.404003
0.403978
0.403902
0.403901
0.403896
0.403756
0.403817
0.403918
0.403646
0.403674
0.403817
0.403597
0.403661
0.403823
0.403593
0.403668
0.403832
0.403787
0.403777
0.403582
0.403657
0.4038
0.403739
0.403724
0.403707
0.403703
0.403747
0.403783
0.403753
0.403735
0.403537
0.403683
0.403906
0.403787
0.403872
0.403977
0.403892
0.403887
0.403874
0.403656
0.403685
0.403767
0.403616
0.403622
0.403617
0.403611
0.403438
0.403411
0.403716
0.403806
0.403761
0.403688
0.403544
0.403662
0.40374
0.403684
0.403545
0.403497
0.403574
0.403528
0.403638
0.4037
0.403645
0.403461
0.38274
0.394936
0.401303
0.403602
0.403899
0.403768
0.403884
0.403986
0.403845
0.403898
0.403968
0.403922
0.40376
0.40383
0.403959
0.40392
0.403849
0.403743
0.403805
0.403868
0.403849
0.403801
0.403949
0.404028
0.403835
0.403919
0.404055
0.403839
0.403802
0.403994
0.404039
0.403908
0.403998
0.404054
0.403875
0.403862
0.40383
0.403835
0.403778
0.403568
0.4036
0.403702
0.403448
0.403429
0.403572
0.403452
0.403509
0.403758
0.403771
0.403738
0.403735
0.403718
0.403552
0.403601
0.404069
0.40416
0.404117
0.404141
0.404157
0.404167
0.404114
0.404012
0.404048
0.404072
0.404012
0.404008
0.403956
0.403744
0.403764
0.403826
0.403579
0.403648
0.403765
0.403743
0.40374
0.403591
0.403667
0.403698
0.403519
0.403584
0.403827
0.40382
0.403779
0.403577
0.403654
0.403771
0.40365
0.403647
0.403642
0.40349
0.38273
0.394976
0.40122
0.403617
0.404371
0.404574
0.404627
0.404595
0.404557
0.404519
0.404494
0.404497
0.404476
0.404401
0.404358
0.40437
0.404373
0.404232
0.404281
0.404311
0.404079
0.404147
0.404226
0.404206
0.4042
0.404158
0.404124
0.403878
0.403922
0.40403
0.404016
0.404008
0.403729
0.403768
0.403834
0.403832
0.403826
0.403531
0.403546
0.403676
0.403454
0.403495
0.403704
0.403692
0.40365
0.403428
0.403461
0.403642
0.403666
0.403665
0.403671
0.403675
0.403492
0.403653
0.403972
0.403862
0.40397
0.404031
0.403887
0.403977
0.404017
0.403873
0.403919
0.403932
0.403866
0.40386
0.403838
0.403653
0.403696
0.403764
0.403649
0.403652
0.403663
0.403646
0.403435
0.403408
0.403634
0.403744
0.403711
0.403667
0.403546
0.403594
0.403757
0.403635
0.403725
0.403767
0.403621
0.403729
0.40379
0.403512
0.382711
0.394995
0.40126
0.403646
0.404386
0.404581
0.404627
0.404641
0.404597
0.404566
0.404536
0.40451
0.404514
0.404494
0.40442
0.404378
0.404381
0.404365
0.404354
0.404251
0.404293
0.40433
0.404245
0.404258
0.404207
0.404049
0.404017
0.404041
0.403863
0.403951
0.404026
0.403758
0.403812
0.403916
0.403642
0.403669
0.403804
0.403578
0.40364
0.403797
0.403567
0.403621
0.403799
0.403713
0.403738
0.403682
0.403662
0.403693
0.403698
0.403625
0.403623
0.403571
0.403722
0.403991
0.403868
0.403971
0.404032
0.403996
0.403972
0.403981
0.403992
0.403878
0.403894
0.403883
0.403732
0.403783
0.403826
0.403644
0.403718
0.40382
0.403817
0.403815
0.40367
0.403551
0.403664
0.403786
0.403735
0.403619
0.403535
0.403563
0.403531
0.403676
0.40375
0.403718
0.403702
0.403507
0.403614
0.403759
0.403712
0.403539
0.38273
0.394976
0.40122
0.403617
0.404371
0.404578
0.404583
0.404555
0.404517
0.404488
0.404491
0.40447
0.404391
0.404348
0.404361
0.404364
0.404222
0.404271
0.404304
0.404074
0.404147
0.404238
0.404086
0.404086
0.404072
0.403915
0.403975
0.404089
0.403822
0.403856
0.404008
0.403785
0.403833
0.403946
0.403952
0.403951
0.403906
0.403892
0.403818
0.403741
0.403504
0.403567
0.403682
0.403419
0.403472
0.403602
0.40336
0.403411
0.403583
0.403598
0.403599
0.403446
0.40338
0.403613
0.403991
0.403892
0.403977
0.404075
0.404031
0.40403
0.404044
0.404074
0.404055
0.404039
0.403983
0.40379
0.403847
0.403883
0.40381
0.403829
0.403803
0.403754
0.403731
0.403743
0.403696
0.403539
0.403578
0.403758
0.403758
0.40375
0.403525
0.403583
0.403711
0.403518
0.403611
0.403683
0.403465
0.403544
0.403701
0.403449
0.38273
0.394977
0.401206
0.4037
0.40409
0.404088
0.404096
0.404068
0.404016
0.404061
0.404084
0.40393
0.403866
0.403951
0.404071
0.40405
0.404054
0.403961
0.403919
0.403812
0.40389
0.404234
0.404259
0.404243
0.40399
0.403976
0.404054
0.403838
0.403903
0.404021
0.403755
0.403805
0.403934
0.40367
0.4037
0.403836
0.403698
0.403684
0.403675
0.403524
0.40358
0.403683
0.403585
0.403595
0.403525
0.403522
0.403531
0.40354
0.40346
0.403607
0.404175
0.404386
0.404445
0.404418
0.404378
0.404388
0.40435
0.404314
0.404266
0.404157
0.404204
0.404229
0.404108
0.4041
0.404103
0.404076
0.404061
0.40402
0.403996
0.403985
0.403934
0.403782
0.403844
0.403893
0.403851
0.403723
0.403726
0.403781
0.40371
0.403699
0.40355
0.40361
0.403657
0.403476
0.403554
0.403715
0.403581
0.403566
0.403563
0.403443
0.382702
0.395006
0.401324
0.403454
0.403687
0.403658
0.403544
0.403612
0.403769
0.403527
0.403525
0.403697
0.403586
0.403701
0.40386
0.403834
0.403833
0.403751
0.403908
0.403948
0.4041
0.404268
0.404135
0.404139
0.404127
0.403971
0.404037
0.404153
0.403888
0.403913
0.40405
0.403833
0.403899
0.404039
0.403799
0.403873
0.403972
0.403934
0.403921
0.403706
0.403784
0.403851
0.403752
0.403771
0.403685
0.403689
0.403697
0.403645
0.40349
0.403533
0.403581
0.40337
0.40343
0.403601
0.403558
0.403559
0.403537
0.403523
0.403333
0.403419
0.403605
0.403372
0.403433
0.4036
0.403512
0.403485
0.403446
0.403394
0.403564
0.403755
0.403663
0.403628
0.40365
0.403661
0.403491
0.403462
0.403712
0.403805
0.403749
0.40363
0.403537
0.403562
0.403489
0.403607
0.403671
0.403456
0.403514
0.403681
0.403665
0.403591
0.382711
0.394995
0.40126
0.403645
0.404403
0.404468
0.404419
0.404423
0.404397
0.404354
0.404358
0.404382
0.40435
0.404347
0.404197
0.404215
0.404247
0.404207
0.404171
0.404203
0.40425
0.404217
0.404206
0.404021
0.404037
0.404143
0.404095
0.403893
0.403944
0.404074
0.404039
0.403931
0.403944
0.403958
0.403927
0.403914
0.403662
0.403714
0.403747
0.403602
0.403604
0.403587
0.403414
0.403381
0.403505
0.403457
0.403587
0.403661
0.403637
0.403623
0.403584
0.403903
0.404323
0.404428
0.404456
0.404422
0.404388
0.404345
0.404309
0.40432
0.404336
0.404273
0.404247
0.40419
0.404152
0.404046
0.404086
0.404125
0.404035
0.404107
0.404138
0.404097
0.404035
0.404001
0.403973
0.403869
0.403853
0.403834
0.403657
0.403638
0.403708
0.403544
0.40364
0.403781
0.403702
0.403688
0.403516
0.403606
0.403683
0.403441
0.382711
0.394995
0.40126
0.403646
0.404387
0.404582
0.404629
0.404596
0.404564
0.404526
0.4045
0.404504
0.404486
0.404413
0.404371
0.404387
0.404391
0.404255
0.40431
0.404345
0.404322
0.404262
0.404288
0.404323
0.404274
0.404195
0.404095
0.404065
0.403904
0.403997
0.404078
0.403831
0.403905
0.404044
0.403801
0.403835
0.403973
0.40386
0.403835
0.403949
0.403974
0.403919
0.40391
0.40377
0.403833
0.403857
0.403841
0.40384
0.403776
0.403597
0.40355
0.403943
0.404336
0.404429
0.404452
0.404464
0.404426
0.40439
0.404351
0.404315
0.40431
0.404324
0.404273
0.404259
0.404183
0.404199
0.404227
0.404193
0.404207
0.404222
0.404219
0.404186
0.404069
0.404024
0.403997
0.404025
0.403964
0.403946
0.403932
0.40396
0.403907
0.40369
0.403732
0.403817
0.403573
0.403641
0.403798
0.403789
0.403777
0.403508
0.38269
0.395019
0.401364
0.403398
0.40359
0.403744
0.403845
0.403591
0.403652
0.403788
0.403741
0.403692
0.403642
0.404097
0.40435
0.404226
0.404281
0.404402
0.404397
0.404393
0.404231
0.404283
0.404333
0.404078
0.404142
0.404238
0.404133
0.404146
0.404116
0.404058
0.403828
0.403877
0.403965
0.403682
0.403703
0.403827
0.403746
0.403639
0.403759
0.403904
0.403817
0.403814
0.403795
0.403827
0.40377
0.403739
0.403753
0.403723
0.403746
0.403755
0.403555
0.403609
0.403637
0.403535
0.403476
0.403671
0.403904
0.403823
0.403853
0.403788
0.403749
0.403692
0.403794
0.403886
0.40379
0.403781
0.403729
0.403811
0.40387
0.403867
0.403865
0.403719
0.403601
0.403695
0.403807
0.403778
0.403692
0.403788
0.403878
0.403633
0.403702
0.403792
0.403554
0.403625
0.403695
0.403657
0.403546
0.403524
0.403627
0.403436
0.382711
0.394997
0.401251
0.403693
0.40421
0.404138
0.404212
0.404263
0.404203
0.404234
0.404245
0.404259
0.404222
0.404088
0.404089
0.404097
0.403941
0.404019
0.404086
0.404044
0.403909
0.403906
0.404079
0.404084
0.404023
0.404098
0.404166
0.403878
0.403906
0.404017
0.40399
0.403875
0.403889
0.403904
0.403865
0.403845
0.403573
0.403528
0.403596
0.403422
0.403498
0.403624
0.403371
0.403431
0.403573
0.403325
0.403313
0.403463
0.403348
0.403438
0.403571
0.403574
0.403575
0.403351
0.403401
0.403584
0.40358
0.403547
0.403603
0.40367
0.403641
0.403638
0.403522
0.403491
0.403349
0.403425
0.403619
0.403402
0.403468
0.403629
0.403609
0.403535
0.403533
0.403647
0.403545
0.403539
0.403575
0.403579
0.403395
0.403422
0.403705
0.403745
0.403683
0.403455
0.403497
0.403648
0.403413
0.40347
0.403637
0.403406
0.382711
0.394995
0.40126
0.403647
0.40439
0.404545
0.404535
0.404501
0.404479
0.404483
0.404461
0.404383
0.40434
0.404351
0.404384
0.404365
0.404359
0.404318
0.404216
0.404271
0.404372
0.404324
0.404335
0.404304
0.404084
0.404015
0.40404
0.403851
0.403922
0.404041
0.403766
0.40381
0.403908
0.403709
0.403612
0.403761
0.40384
0.403776
0.403554
0.403532
0.403619
0.403637
0.403634
0.403385
0.403415
0.403612
0.403473
0.403584
0.403698
0.403655
0.403513
0.403495
0.403554
0.403338
0.403325
0.403475
0.403384
0.403504
0.403619
0.40339
0.40337
0.403639
0.403709
0.403655
0.403471
0.40347
0.403596
0.403404
0.403469
0.403631
0.403399
0.403409
0.403671
0.4037
0.403646
0.40345
0.403495
0.403642
0.403424
0.403478
0.403655
0.403471
0.403567
0.403674
0.403639
0.403579
0.403542
0.403641
0.403654
0.403571
0.382711
0.394995
0.40126
0.403646
0.404386
0.404582
0.404626
0.40464
0.404604
0.404573
0.404539
0.404515
0.404519
0.404502
0.404433
0.404392
0.404411
0.404416
0.404282
0.404338
0.404382
0.404202
0.404295
0.404367
0.404369
0.404369
0.404237
0.404133
0.404152
0.404169
0.404107
0.403922
0.403964
0.404064
0.40381
0.403877
0.40397
0.403918
0.403904
0.403693
0.403667
0.403828
0.403847
0.403793
0.403615
0.403657
0.403695
0.403639
0.403632
0.403496
0.403655
0.404192
0.404391
0.40444
0.404453
0.404463
0.404425
0.404389
0.404358
0.404323
0.404323
0.404327
0.404333
0.404289
0.404131
0.404156
0.404189
0.404104
0.40415
0.404166
0.404136
0.404137
0.404099
0.404069
0.404043
0.403851
0.403872
0.4039
0.403856
0.403729
0.403736
0.403788
0.403767
0.403785
0.403758
0.403722
0.403477
0.40351
0.403659
0.403438
0.382711
0.394995
0.40126
0.403647
0.404387
0.404583
0.404629
0.404598
0.404565
0.404527
0.404501
0.404506
0.404488
0.404414
0.404372
0.404389
0.404394
0.404257
0.404312
0.404349
0.404293
0.404232
0.404259
0.404299
0.404243
0.404063
0.404077
0.404163
0.403911
0.40396
0.404096
0.403852
0.403914
0.404046
0.403802
0.403835
0.403973
0.40386
0.403838
0.403955
0.403976
0.40392
0.403911
0.40377
0.403833
0.403856
0.403841
0.40384
0.403774
0.403644
0.403591
0.403946
0.404345
0.404353
0.404331
0.404341
0.404261
0.404221
0.404222
0.404234
0.404175
0.404182
0.404193
0.404149
0.404171
0.404133
0.40407
0.404016
0.403986
0.403876
0.403952
0.403983
0.403927
0.403749
0.403727
0.403788
0.403599
0.403676
0.403841
0.403705
0.403752
0.403775
0.4037
0.403731
0.403737
0.403692
0.403533
0.403595
0.403694
0.403437
0.382711
0.394995
0.40126
0.403644
0.404402
0.404468
0.40442
0.404425
0.404399
0.404355
0.404359
0.404381
0.404347
0.404369
0.404334
0.404308
0.404195
0.404212
0.404237
0.404158
0.404157
0.404146
0.403984
0.403922
0.40403
0.404056
0.403999
0.404102
0.404172
0.404137
0.40413
0.404046
0.404013
0.403972
0.403948
0.403679
0.40367
0.40374
0.403596
0.403671
0.403704
0.403641
0.403494
0.403423
0.403507
0.403443
0.403571
0.403661
0.40364
0.403645
0.403595
0.403901
0.404331
0.40435
0.404332
0.40434
0.404309
0.404264
0.404226
0.404223
0.404104
0.404139
0.404179
0.404174
0.404173
0.403956
0.404001
0.404054
0.403874
0.403962
0.404011
0.403996
0.403992
0.403759
0.403815
0.40392
0.40389
0.403886
0.403777
0.403768
0.403725
0.403591
0.403671
0.403781
0.403538
0.403611
0.403792
0.403762
0.40372
0.403473
0.382702
0.395006
0.401324
0.403445
0.403727
0.403715
0.403717
0.403578
0.40369
0.403873
0.403837
0.403769
0.403672
0.403789
0.403911
0.403859
0.403872
0.403821
0.403806
0.403967
0.40392
0.404072
0.404232
0.404027
0.404128
0.40422
0.403979
0.404042
0.404165
0.404137
0.404125
0.403877
0.403941
0.404058
0.403809
0.403789
0.403959
0.404055
0.404013
0.403934
0.403954
0.403968
0.403934
0.403943
0.403911
0.403904
0.403856
0.403741
0.40372
0.403637
0.403587
0.403539
0.403488
0.40332
0.403404
0.403587
0.403432
0.403376
0.40355
0.403694
0.403648
0.403552
0.403445
0.403649
0.403768
0.403764
0.403764
0.403686
0.403591
0.40368
0.403875
0.403968
0.403935
0.403828
0.403837
0.40383
0.403855
0.403808
0.403676
0.403644
0.403688
0.40358
0.403592
0.403837
0.403878
0.40382
0.403629
0.403661
0.403712
0.403444
0.382741
0.394934
0.401316
0.403571
0.403866
0.403755
0.403873
0.403976
0.403861
0.403889
0.403843
0.403672
0.40371
0.403933
0.403948
0.403891
0.403662
0.403707
0.403938
0.403855
0.403978
0.404061
0.404009
0.404004
0.403868
0.403962
0.404099
0.403838
0.403864
0.404015
0.403803
0.403808
0.403987
0.403995
0.403978
0.403798
0.403862
0.403916
0.40386
0.403757
0.403627
0.403639
0.403694
0.403661
0.403565
0.403544
0.403536
0.403417
0.403462
0.403672
0.403504
0.403604
0.403747
0.403664
0.403592
0.40373
0.403968
0.403861
0.403949
0.403984
0.403946
0.403841
0.403889
0.403921
0.403856
0.403844
0.403848
0.403873
0.403789
0.403741
0.403712
0.403707
0.403649
0.403551
0.403667
0.403787
0.403735
0.403619
0.403531
0.403559
0.403459
0.40357
0.403643
0.403586
0.40358
0.403452
0.403544
0.403649
0.403603
0.403446
0.38274
0.394937
0.401304
0.4036
0.403899
0.403763
0.403872
0.40398
0.403826
0.403821
0.403817
0.403672
0.403693
0.403935
0.403959
0.403897
0.403674
0.403648
0.403975
0.40407
0.404021
0.403844
0.403885
0.40403
0.403793
0.403842
0.404024
0.403808
0.403854
0.404019
0.403805
0.40388
0.403988
0.403975
0.403965
0.403696
0.403734
0.403838
0.403808
0.403785
0.403684
0.403617
0.403407
0.403472
0.403612
0.403615
0.403615
0.403406
0.403439
0.403953
0.404099
0.403948
0.404021
0.404115
0.404071
0.404065
0.403913
0.403978
0.404044
0.404026
0.404025
0.403931
0.403919
0.40384
0.403915
0.403946
0.40389
0.4039
0.403915
0.403899
0.403672
0.403713
0.403785
0.403754
0.403772
0.403747
0.403711
0.403467
0.40345
0.403582
0.40352
0.403524
0.403517
0.403519
0.403393
0.403481
0.403707
0.403678
0.403636
0.403401
0.382711
0.394995
0.401259
0.403646
0.404385
0.40458
0.404629
0.404594
0.404559
0.404567
0.404532
0.404509
0.404513
0.404495
0.40442
0.404378
0.404381
0.404365
0.404354
0.404253
0.404294
0.404331
0.404245
0.404254
0.404205
0.404012
0.404045
0.404134
0.403876
0.40393
0.404083
0.403929
0.40386
0.403935
0.403958
0.403835
0.403937
0.404038
0.403811
0.403882
0.404016
0.403874
0.403949
0.404039
0.403987
0.404001
0.404008
0.403979
0.403938
0.403882
0.403783
0.40357
0.403668
0.403969
0.403838
0.403947
0.404015
0.403927
0.403958
0.403901
0.403865
0.403848
0.403877
0.403835
0.403704
0.403776
0.403817
0.403638
0.403715
0.40382
0.403818
0.403815
0.403671
0.403551
0.403665
0.403787
0.403757
0.403739
0.403541
0.403647
0.403822
0.403714
0.403746
0.403754
0.403715
0.403563
0.403625
0.403751
0.403706
0.403535
0.382731
0.394976
0.401219
0.403618
0.404373
0.404576
0.404625
0.404638
0.404602
0.404571
0.404534
0.404508
0.404512
0.404492
0.404417
0.404375
0.404388
0.404422
0.404403
0.404386
0.404347
0.404245
0.404287
0.404379
0.404328
0.404327
0.40432
0.404332
0.404246
0.403949
0.403952
0.40406
0.403973
0.403862
0.403957
0.404077
0.404077
0.404072
0.403836
0.403899
0.404008
0.403879
0.403846
0.403863
0.403904
0.403868
0.403772
0.403823
0.403865
0.403859
0.403858
0.403747
0.403639
0.403704
0.403826
0.403944
0.403935
0.403796
0.403744
0.40393
0.404073
0.403952
0.404022
0.404111
0.404098
0.404097
0.40404
0.403967
0.403895
0.403867
0.403801
0.403877
0.403912
0.403891
0.403885
0.403645
0.403689
0.403811
0.403774
0.403733
0.403513
0.40359
0.40374
0.403512
0.403593
0.403731
0.403489
0.403551
0.403702
0.403451
0.38273
0.394977
0.401206
0.403699
0.404093
0.40411
0.404111
0.403893
0.403978
0.404073
0.403877
0.403954
0.403999
0.403802
0.403887
0.403947
0.40382
0.40375
0.403898
0.404056
0.404012
0.403844
0.403827
0.40393
0.403742
0.403801
0.40399
0.403779
0.403853
0.403991
0.403939
0.403943
0.403855
0.40394
0.403976
0.403908
0.403665
0.403643
0.403719
0.403496
0.40353
0.403685
0.403495
0.403583
0.403676
0.403652
0.403584
0.403575
0.403668
0.403693
0.403695
0.403556
0.4035
0.403757
0.403995
0.403851
0.403938
0.404047
0.404004
0.403862
0.403832
0.403905
0.403838
0.403935
0.40405
0.403974
0.403974
0.403969
0.403779
0.40381
0.403901
0.403768
0.403763
0.403772
0.403751
0.403782
0.403788
0.403596
0.403684
0.403789
0.40376
0.403675
0.403679
0.403719
0.403494
0.403576
0.40378
0.403768
0.403746
0.403479
0.382711
0.394995
0.40126
0.403645
0.404383
0.404578
0.404626
0.404591
0.404552
0.404559
0.40453
0.404503
0.404507
0.404487
0.404411
0.404369
0.404343
0.404337
0.404321
0.404319
0.404336
0.404345
0.404315
0.404053
0.404062
0.404139
0.403915
0.403995
0.404092
0.404053
0.403994
0.4039
0.403858
0.403658
0.403704
0.403851
0.403625
0.403689
0.403847
0.403615
0.403689
0.403848
0.403624
0.403706
0.403845
0.403656
0.403736
0.403859
0.403738
0.403812
0.403836
0.40379
0.403717
0.403619
0.403738
0.403863
0.40382
0.403668
0.403732
0.403888
0.403856
0.403749
0.403786
0.403868
0.403655
0.403744
0.403827
0.403645
0.40375
0.40385
0.403844
0.403842
0.403703
0.403579
0.403648
0.403774
0.403725
0.40362
0.403499
0.403649
0.403741
0.403686
0.403546
0.403497
0.403573
0.403527
0.403636
0.403699
0.403643
0.40346
0.38268
0.395053
0.401334
0.403394
0.403591
0.403565
0.403477
0.403523
0.403678
0.403683
0.403683
0.403498
0.403483
0.403859
0.404213
0.404193
0.404204
0.40414
0.404232
0.404265
0.40413
0.404207
0.404253
0.404247
0.404244
0.404007
0.403973
0.404003
0.403817
0.40389
0.404058
0.403943
0.403861
0.403907
0.403921
0.404023
0.404104
0.403874
0.403956
0.404044
0.403937
0.403925
0.403805
0.403886
0.403937
0.403877
0.403679
0.40365
0.403688
0.403484
0.403541
0.403694
0.403549
0.403631
0.403668
0.403627
0.403506
0.403539