/*--------------------------------*- C++ -*----------------------------------*\
  =========                 |
  \\      /  F ield         | OpenFOAM: The Open Source CFD Toolbox
   \\    /   O peration     | Website:  https://openfoam.org
    \\  /    A nd           | Version:  11
     \\/     M anipulation  |
\*---------------------------------------------------------------------------*/
FoamFile
{
    format      ascii;
    class       volScalarField;
    location    "0.034";
    object      nut;
}
// * * * * * * * * * * * * * * * * * * * * * * * * * * * * * * * * * * * * * //

dimensions      [0 2 -1 0 0 0 0];

internalField   nonuniform List<scalar> 
287084
(
0.00083909
0.000867219
0.000882321
0.000887798
0.000888662
0.00088881
0.000888785
0.000888593
0.000888889
0.000889221
0.000889167
0.000889091
0.000888704
0.000888488
0.000888659
0.000888517
0.000888759
0.000889088
0.00088868
0.000888847
0.00088894
0.000888644
0.000888639
0.000888606
0.000888459
0.000888193
0.000888382
0.000888649
0.000888531
0.000888099
0.000888198
0.000888544
0.000888137
0.000888318
0.000888749
0.000888877
0.000889026
0.000888933
0.00088901
0.000888822
0.000889154
0.00088951
0.000889044
0.000889247
0.000889665
0.000889198
0.00088924
0.000889862
0.000889994
0.000889884
0.00088995
0.000889974
0.000889861
0.000889813
0.000889486
0.000889676
0.000889909
0.000889858
0.000889712
0.00088969
0.000889933
0.000889533
0.000889699
0.000890026
0.000889931
0.000889911
0.00088947
0.000889697
0.000889964
0.000889906
0.000889938
0.000889685
0.000889833
0.000889993
0.000890093
0.00089002
0.000889899
0.000889591
0.000889736
0.000889922
0.000889942
0.000889918
0.000889497
0.000889385
0.000889403
0.000889155
0.000889402
0.000889742
0.000889682
0.000889467
0.00118593
0.00122426
0.00124458
0.00125173
0.00125263
0.00125269
0.00125279
0.00125262
0.00125263
0.00125263
0.00125255
0.00125193
0.00125198
0.00125224
0.00125135
0.00125136
0.00125179
0.00125168
0.00125134
0.00125145
0.00125226
0.001252
0.00125199
0.00125216
0.00125211
0.00125158
0.00125187
0.00125215
0.00125147
0.00125178
0.00125206
0.00125136
0.00125164
0.00125225
0.00125166
0.00125175
0.00125235
0.00125234
0.00125286
0.0012532
0.0012532
0.00125307
0.0012529
0.00125346
0.00125374
0.00125364
0.00125303
0.00125309
0.00125346
0.00125297
0.00125291
0.00125353
0.00125392
0.0012538
0.0012533
0.00125356
0.00125402
0.00125337
0.00125367
0.00125405
0.00125396
0.00125371
0.00125366
0.0012539
0.00125344
0.00125371
0.00125407
0.00125393
0.00125352
0.00125364
0.00125416
0.00125421
0.0012542
0.00125346
0.00125365
0.00125414
0.00125365
0.00125386
0.00125393
0.00125373
0.00125373
0.0012537
0.00125326
0.00125334
0.00125345
0.00125332
0.00125295
0.00125308
0.00125359
0.00125287
0.001186
0.00122441
0.00124474
0.00125176
0.00125251
0.00125296
0.00125319
0.00125256
0.00125275
0.00125326
0.00125316
0.00125311
0.00125286
0.00125221
0.00125202
0.00125234
0.00125248
0.00125226
0.00125146
0.00125133
0.00125173
0.0012516
0.00125192
0.0012522
0.00125215
0.00125213
0.00125158
0.00125182
0.00125214
0.00125148
0.00125183
0.00125243
0.00125183
0.0012522
0.00125287
0.00125234
0.00125278
0.00125344
0.00125319
0.00125324
0.00125328
0.00125332
0.00125358
0.00125382
0.00125383
0.00125364
0.00125388
0.00125413
0.00125414
0.00125417
0.00125354
0.00125372
0.00125394
0.00125343
0.00125378
0.00125416
0.00125338
0.00125357
0.00125401
0.00125399
0.00125399
0.0012537
0.00125385
0.00125364
0.00125403
0.00125427
0.00125415
0.0012538
0.0012539
0.00125414
0.00125376
0.0012537
0.00125324
0.00125353
0.00125382
0.00125313
0.00125335
0.00125403
0.00125368
0.00125368
0.00125355
0.00125384
0.00125395
0.00125331
0.00125355
0.00125386
0.0012531
0.00125332
0.0012536
0.00125281
0.001186
0.00122463
0.00124474
0.00125211
0.00125324
0.00125374
0.0012537
0.00125342
0.00125328
0.00125327
0.00125324
0.00125305
0.00125295
0.00125249
0.00125268
0.00125273
0.00125245
0.00125174
0.00125166
0.00125205
0.0012518
0.00125175
0.00125142
0.00125131
0.00125125
0.00125125
0.00125087
0.00125107
0.001252
0.00125212
0.00125207
0.00125145
0.00125163
0.00125219
0.0012517
0.00125191
0.00125256
0.0012523
0.00125277
0.00125341
0.00125326
0.00125342
0.0012535
0.00125345
0.00125347
0.00125356
0.00125327
0.00125324
0.00125354
0.00125382
0.00125374
0.0012536
0.00125361
0.00125319
0.00125358
0.00125413
0.00125348
0.00125377
0.00125414
0.00125398
0.00125395
0.00125353
0.00125399
0.00125443
0.00125439
0.00125444
0.00125426
0.00125418
0.00125424
0.00125424
0.00125362
0.00125383
0.00125409
0.00125352
0.00125376
0.00125439
0.0012543
0.0012543
0.00125431
0.00125422
0.00125341
0.00125355
0.00125391
0.00125391
0.0012539
0.00125315
0.00125338
0.00125368
0.00125356
0.00125319
0.00118601
0.00122468
0.00124482
0.00125228
0.00125343
0.00125335
0.00125299
0.00125313
0.00125337
0.0012527
0.00125288
0.00125294
0.00125269
0.00125258
0.00125218
0.00125212
0.00125202
0.00125177
0.00125138
0.00125128
0.00125119
0.00125169
0.00125218
0.00125176
0.00125183
0.00125168
0.0012512
0.00125149
0.00125199
0.00125143
0.00125137
0.00125173
0.00125171
0.00125228
0.00125295
0.00125257
0.00125303
0.00125336
0.00125351
0.00125366
0.00125301
0.0012533
0.00125366
0.00125377
0.00125387
0.00125325
0.00125357
0.0012539
0.00125333
0.00125368
0.00125411
0.00125335
0.00125339
0.00125387
0.00125345
0.00125374
0.00125427
0.00125397
0.00125404
0.0012539
0.00125344
0.0012537
0.00125421
0.00125348
0.0012537
0.0012541
0.00125335
0.00125345
0.00125394
0.0012534
0.00125365
0.00125416
0.0012541
0.00125408
0.00125348
0.00125377
0.0012541
0.00125363
0.00125362
0.00125359
0.00125319
0.00125345
0.00125395
0.00125334
0.00125365
0.00125394
0.0012533
0.00125361
0.00125392
0.00125306
0.00118597
0.00122483
0.00124488
0.00125162
0.00125235
0.00125181
0.00125205
0.00125277
0.00125276
0.00125255
0.00125171
0.00125177
0.00125243
0.00125192
0.00125218
0.0012525
0.00125197
0.0012519
0.00125176
0.00125172
0.00125149
0.00125094
0.00125115
0.00125155
0.00125076
0.0012507
0.00125143
0.00125159
0.00125153
0.00125121
0.00125161
0.00125237
0.00125231
0.00125248
0.00125249
0.0012521
0.00125242
0.00125293
0.00125229
0.00125257
0.00125323
0.00125274
0.0012531
0.00125378
0.00125321
0.00125356
0.00125419
0.0012539
0.00125404
0.00125395
0.00125351
0.00125375
0.00125437
0.0012543
0.00125419
0.00125376
0.00125349
0.00125385
0.00125409
0.00125393
0.00125363
0.00125328
0.00125378
0.00125423
0.0012542
0.00125419
0.00125398
0.00125366
0.00125357
0.00125353
0.00125404
0.0012544
0.0012538
0.00125407
0.00125425
0.00125352
0.00125376
0.00125413
0.00125341
0.00125362
0.00125404
0.00125351
0.00125383
0.00125407
0.00125403
0.00125396
0.00125388
0.00125395
0.00125383
0.00125319
0.00118589
0.00122499
0.00124488
0.00125185
0.00125268
0.00125206
0.00125231
0.00125257
0.00125225
0.00125195
0.00125201
0.00125376
0.00125401
0.0012535
0.00125343
0.0012535
0.0012534
0.00125337
0.00125317
0.00125289
0.00125285
0.00125263
0.00125204
0.00125213
0.00125223
0.00125206
0.00125174
0.00125163
0.00125178
0.0012519
0.00125184
0.00125215
0.00125257
0.00125197
0.00125237
0.00125307
0.00125256
0.00125299
0.00125363
0.00125373
0.00125388
0.00125341
0.00125384
0.00125428
0.00125405
0.00125414
0.00125417
0.0012543
0.00125423
0.00125415
0.0012538
0.00125409
0.00125426
0.00125346
0.00125344
0.00125414
0.00125424
0.00125406
0.0012535
0.00125335
0.00125356
0.00125321
0.00125356
0.00125394
0.00125378
0.00125375
0.00125352
0.00125349
0.0012531
0.00125345
0.0012538
0.00125308
0.00125316
0.00125376
0.00125385
0.00125384
0.00125317
0.00125337
0.00125397
0.00125352
0.00125382
0.00125398
0.00125336
0.00125361
0.00125396
0.00125381
0.00125379
0.00125378
0.00125375
0.00125299
0.00118601
0.0012248
0.00124475
0.00125242
0.00125475
0.00125533
0.00125527
0.00125509
0.00125489
0.00125467
0.00125459
0.00125439
0.00125416
0.00125407
0.00125401
0.00125376
0.00125353
0.00125336
0.00125316
0.00125288
0.0012527
0.00125246
0.0012519
0.00125202
0.00125214
0.001252
0.00125181
0.00125157
0.00125156
0.0012512
0.00125165
0.00125233
0.00125179
0.00125221
0.00125292
0.00125268
0.00125271
0.00125352
0.00125409
0.00125422
0.00125438
0.00125395
0.00125437
0.00125475
0.0012546
0.00125453
0.00125471
0.00125504
0.00125496
0.00125505
0.00125513
0.00125523
0.00125512
0.00125498
0.00125468
0.00125443
0.00125432
0.00125418
0.00125405
0.00125371
0.0012541
0.00125448
0.00125417
0.00125417
0.00125415
0.00125362
0.00125383
0.00125415
0.00125365
0.00125366
0.00125363
0.00125359
0.00125304
0.00125294
0.00125388
0.00125414
0.00125401
0.00125393
0.00125328
0.0012536
0.00125414
0.00125379
0.0012539
0.00125392
0.00125379
0.00125331
0.00125348
0.00125386
0.00125371
0.00125316
0.00118594
0.00122494
0.00124493
0.00125188
0.00125288
0.00125266
0.00125257
0.00125248
0.00125206
0.00125208
0.00125367
0.00125404
0.00125377
0.0012536
0.0012535
0.00125346
0.00125325
0.00125322
0.00125303
0.00125281
0.00125254
0.00125233
0.00125222
0.00125203
0.00125193
0.00125188
0.00125127
0.0012513
0.00125162
0.00125118
0.00125163
0.00125231
0.00125177
0.00125221
0.00125293
0.0012527
0.00125273
0.00125351
0.0012542
0.00125429
0.00125456
0.00125449
0.00125451
0.00125471
0.00125483
0.00125483
0.00125477
0.00125391
0.00125398
0.0012542
0.00125345
0.00125368
0.00125402
0.00125339
0.00125327
0.00125397
0.00125424
0.00125407
0.00125373
0.00125339
0.00125384
0.00125413
0.00125402
0.00125397
0.00125342
0.00125376
0.00125428
0.0012539
0.00125412
0.00125422
0.00125403
0.00125345
0.00125335
0.00125389
0.00125392
0.00125396
0.00125423
0.00125427
0.00125403
0.00125399
0.00125358
0.00125381
0.0012542
0.00125391
0.00125397
0.00125391
0.00125344
0.0012533
0.00125335
0.00125281
0.00118586
0.00122505
0.00124507
0.00125133
0.00125275
0.00125265
0.00125225
0.00125195
0.00125254
0.00125289
0.00125267
0.0012524
0.0012518
0.00125216
0.00125241
0.00125212
0.00125168
0.00125123
0.00125119
0.00125089
0.0012512
0.00125139
0.00125079
0.00125061
0.00125116
0.00125136
0.00125092
0.00125134
0.00125181
0.00125114
0.00125146
0.00125217
0.00125238
0.00125267
0.00125273
0.00125285
0.00125294
0.00125274
0.0012531
0.00125342
0.00125275
0.00125301
0.0012536
0.00125303
0.00125335
0.00125387
0.00125318
0.00125328
0.00125382
0.00125367
0.0012538
0.0012538
0.00125366
0.00125317
0.00125344
0.00125396
0.00125321
0.00125323
0.00125392
0.00125412
0.00125393
0.00125317
0.00125316
0.00125366
0.00125365
0.00125348
0.0012537
0.00125396
0.00125346
0.0012534
0.00125338
0.00125299
0.00125323
0.00125371
0.00125294
0.0012529
0.00125367
0.0012538
0.00125362
0.00125297
0.00125298
0.00125368
0.00125385
0.00125374
0.00125365
0.0012532
0.00125335
0.0012539
0.00125379
0.00125331
0.00118594
0.00122487
0.00124505
0.00125202
0.00125308
0.00125294
0.00125262
0.0012522
0.00125263
0.00125287
0.00125271
0.00125243
0.00125259
0.00125283
0.00125208
0.00125213
0.00125267
0.0012525
0.00125223
0.00125202
0.00125134
0.00125116
0.00125138
0.00125128
0.00125098
0.00125073
0.00125096
0.00125129
0.00125129
0.0012509
0.00125142
0.00125223
0.00125229
0.00125255
0.00125263
0.0012523
0.00125265
0.00125315
0.00125255
0.00125287
0.00125354
0.00125307
0.00125344
0.00125412
0.00125354
0.0012538
0.00125449
0.00125459
0.00125461
0.00125385
0.00125403
0.00125434
0.00125358
0.00125369
0.00125416
0.00125401
0.00125398
0.00125362
0.00125383
0.00125396
0.00125378
0.00125325
0.00125328
0.00125391
0.00125388
0.00125373
0.00125309
0.00125307
0.00125373
0.00125369
0.00125368
0.00125361
0.00125405
0.0012543
0.00125364
0.0012539
0.00125429
0.00125378
0.00125405
0.00125422
0.00125373
0.00125404
0.0012542
0.00125337
0.00125353
0.00125392
0.0012534
0.00125335
0.00125332
0.0012529
0.00118592
0.00122495
0.00124491
0.00125217
0.0012532
0.00125313
0.00125319
0.00125296
0.00125257
0.00125235
0.0012534
0.00125404
0.00125358
0.00125369
0.00125364
0.00125328
0.00125313
0.00125294
0.00125234
0.00125231
0.00125227
0.00125164
0.00125186
0.00125202
0.00125184
0.00125161
0.00125132
0.00125121
0.00125071
0.00125111
0.00125168
0.0012511
0.00125152
0.00125225
0.00125177
0.00125219
0.00125295
0.00125254
0.00125299
0.00125374
0.00125324
0.00125365
0.00125432
0.00125407
0.00125425
0.00125419
0.00125377
0.00125406
0.00125453
0.0012546
0.00125447
0.00125432
0.00125391
0.00125384
0.0012541
0.00125369
0.00125392
0.001254
0.0012534
0.00125345
0.00125424
0.00125429
0.00125419
0.00125424
0.00125416
0.00125395
0.00125335
0.0012535
0.00125417
0.00125415
0.00125407
0.00125325
0.00125335
0.00125378
0.00125377
0.00125375
0.00125299
0.00125321
0.00125391
0.00125382
0.00125379
0.00125327
0.00125357
0.0012538
0.00125365
0.00125362
0.00125315
0.00125351
0.00125381
0.00125298
0.00118601
0.00122481
0.00124478
0.00125246
0.00125482
0.00125512
0.00125491
0.00125484
0.00125459
0.00125444
0.00125425
0.00125394
0.0012539
0.00125384
0.00125359
0.00125335
0.00125308
0.00125284
0.00125271
0.00125265
0.00125237
0.00125195
0.00125164
0.0012517
0.00125171
0.00125156
0.00125097
0.00125106
0.00125144
0.00125097
0.00125145
0.00125217
0.00125216
0.0012522
0.00125288
0.00125356
0.00125385
0.00125412
0.00125369
0.00125413
0.00125465
0.00125468
0.00125481
0.00125444
0.00125482
0.00125511
0.001255
0.00125503
0.00125486
0.00125494
0.00125487
0.0012547
0.00125405
0.00125418
0.00125458
0.00125455
0.00125452
0.00125379
0.00125406
0.00125458
0.00125453
0.00125449
0.00125378
0.00125404
0.00125443
0.00125368
0.00125389
0.00125422
0.00125372
0.00125371
0.00125367
0.00125363
0.00125307
0.00125296
0.00125389
0.00125416
0.001254
0.00125376
0.0012533
0.00125365
0.00125389
0.00125378
0.00125375
0.00125322
0.00125356
0.00125413
0.00125379
0.0012538
0.00125377
0.00125311
0.00118588
0.00122499
0.00124512
0.00125162
0.00125227
0.00125189
0.00125222
0.00125284
0.00125233
0.00125221
0.00125207
0.00125156
0.00125154
0.0012519
0.00125156
0.00125164
0.00125155
0.00125107
0.00125084
0.00125106
0.00125077
0.00125104
0.00125149
0.00125097
0.00125117
0.00125127
0.00125113
0.00125125
0.00125126
0.00125096
0.00125139
0.00125212
0.00125215
0.00125219
0.00125287
0.0012536
0.00125377
0.00125398
0.00125424
0.00125457
0.00125467
0.0012547
0.00125481
0.00125502
0.00125497
0.00125506
0.00125508
0.00125487
0.00125447
0.00125436
0.00125402
0.00125434
0.00125465
0.00125461
0.00125457
0.00125385
0.00125398
0.00125437
0.00125432
0.00125428
0.00125358
0.00125374
0.00125427
0.00125393
0.00125387
0.00125349
0.0012538
0.00125405
0.00125391
0.00125387
0.00125324
0.00125338
0.00125402
0.00125358
0.00125386
0.00125439
0.00125393
0.00125423
0.00125439
0.00125422
0.00125424
0.00125418
0.00125409
0.00125344
0.00125357
0.00125405
0.00125409
0.0012541
0.0012539
0.00125329
0.00118601
0.00122481
0.00124478
0.00125246
0.00125479
0.00125536
0.00125529
0.00125508
0.00125487
0.00125464
0.00125448
0.00125424
0.00125395
0.00125377
0.0012535
0.00125309
0.00125278
0.0012524
0.00125237
0.00125227
0.00125193
0.00125166
0.00125165
0.00125165
0.00125142
0.00125101
0.00125079
0.00125083
0.00125076
0.001251
0.00125126
0.00125114
0.00125168
0.00125236
0.00125188
0.00125233
0.00125312
0.00125275
0.00125324
0.001254
0.00125352
0.00125394
0.0012546
0.00125459
0.00125465
0.00125412
0.00125441
0.00125488
0.00125471
0.00125466
0.0012546
0.00125457
0.00125469
0.00125477
0.00125464
0.00125455
0.0012539
0.00125431
0.00125497
0.00125456
0.00125478
0.00125507
0.00125477
0.00125472
0.00125465
0.00125394
0.00125399
0.00125422
0.00125372
0.00125372
0.00125368
0.00125364
0.00125308
0.00125297
0.0012539
0.00125416
0.00125401
0.00125376
0.0012533
0.00125366
0.00125389
0.00125371
0.00125326
0.0012531
0.00125333
0.00125319
0.00125352
0.00125371
0.00125353
0.00125293
0.0011861
0.00122463
0.00124491
0.00125232
0.00125328
0.00125283
0.00125311
0.00125332
0.00125276
0.00125279
0.00125285
0.00125254
0.00125186
0.00125188
0.00125209
0.00125176
0.00125132
0.00125079
0.00125077
0.00125077
0.00125052
0.00125021
0.00125054
0.00125069
0.00125004
0.00125031
0.0012508
0.00125026
0.00125034
0.00125119
0.00125163
0.00125157
0.00125223
0.00125279
0.00125262
0.00125297
0.00125323
0.00125359
0.00125371
0.00125332
0.00125365
0.00125416
0.00125353
0.0012536
0.00125413
0.00125383
0.00125405
0.00125485
0.0012549
0.0012548
0.00125477
0.00125469
0.00125415
0.00125426
0.00125568
0.00125592
0.00125574
0.00125578
0.00125578
0.00125577
0.00125556
0.00125521
0.00125528
0.00125532
0.00125509
0.00125505
0.00125485
0.00125416
0.0012542
0.00125436
0.00125357
0.00125376
0.0012541
0.00125401
0.00125398
0.0012535
0.00125372
0.0012538
0.00125323
0.00125342
0.00125416
0.00125413
0.00125399
0.00125336
0.00125359
0.00125395
0.00125356
0.00125355
0.00125353
0.00125302
0.00118607
0.00122475
0.00124465
0.00125236
0.00125474
0.00125533
0.0012554
0.0012552
0.00125496
0.00125469
0.00125445
0.00125429
0.00125404
0.00125361
0.00125326
0.00125308
0.00125287
0.00125221
0.00125214
0.00125202
0.00125111
0.00125115
0.00125125
0.00125109
0.00125102
0.00125091
0.00125088
0.00125026
0.0012506
0.00125121
0.00125149
0.00125184
0.00125138
0.00125191
0.00125253
0.00125293
0.0012533
0.00125273
0.00125309
0.00125377
0.00125332
0.00125364
0.00125445
0.00125453
0.00125449
0.00125386
0.00125401
0.00125459
0.00125467
0.00125465
0.00125465
0.00125463
0.00125402
0.00125448
0.00125543
0.00125504
0.00125533
0.00125547
0.00125498
0.00125521
0.00125529
0.0012548
0.0012549
0.0012549
0.00125466
0.0012546
0.0012545
0.00125389
0.00125399
0.00125418
0.00125379
0.00125378
0.00125379
0.00125371
0.00125304
0.00125294
0.00125362
0.00125395
0.00125383
0.00125368
0.00125329
0.00125343
0.00125393
0.00125354
0.00125381
0.00125393
0.00125347
0.00125381
0.00125399
0.0012531
0.00118601
0.00122481
0.00124477
0.00125246
0.00125479
0.00125534
0.00125539
0.00125533
0.00125506
0.00125481
0.00125455
0.0012543
0.00125411
0.00125385
0.0012534
0.00125304
0.00125282
0.00125253
0.00125226
0.00125172
0.00125164
0.00125158
0.00125117
0.0012511
0.0012509
0.00125042
0.00125041
0.00125064
0.00125032
0.00125088
0.00125147
0.00125103
0.00125162
0.00125239
0.00125198
0.00125249
0.0012533
0.00125297
0.00125348
0.00125426
0.00125378
0.00125414
0.00125485
0.00125471
0.00125487
0.00125476
0.00125473
0.00125484
0.00125485
0.00125461
0.00125457
0.00125437
0.0012548
0.00125559
0.00125516
0.00125543
0.00125556
0.0012554
0.00125527
0.00125525
0.00125524
0.00125484
0.00125484
0.00125477
0.00125426
0.00125438
0.00125448
0.00125387
0.00125407
0.00125436
0.00125433
0.00125429
0.00125382
0.00125342
0.00125376
0.00125412
0.00125394
0.00125356
0.00125328
0.00125336
0.00125325
0.00125369
0.00125391
0.0012538
0.00125373
0.00125312
0.00125344
0.00125389
0.00125374
0.00125317
0.00118607
0.00122475
0.00124465
0.00125236
0.00125474
0.00125533
0.00125525
0.00125504
0.00125479
0.00125455
0.00125439
0.00125414
0.00125369
0.00125335
0.00125316
0.00125293
0.00125224
0.00125215
0.00125201
0.00125106
0.00125107
0.00125116
0.00125054
0.00125043
0.00125035
0.00124988
0.00125016
0.00125068
0.0012501
0.00125051
0.00125136
0.00125109
0.00125168
0.0012525
0.00125298
0.00125342
0.00125369
0.00125402
0.00125413
0.00125418
0.00125368
0.00125408
0.00125459
0.00125389
0.00125414
0.0012546
0.00125388
0.00125404
0.00125457
0.00125459
0.00125456
0.00125405
0.00125379
0.00125447
0.00125559
0.00125522
0.00125543
0.00125568
0.00125549
0.00125543
0.00125543
0.00125547
0.00125536
0.00125527
0.00125505
0.00125441
0.00125455
0.00125463
0.00125437
0.0012544
0.00125429
0.00125411
0.00125401
0.00125403
0.00125386
0.00125335
0.00125345
0.001254
0.00125398
0.00125394
0.00125323
0.0012534
0.00125379
0.00125318
0.00125346
0.00125367
0.00125299
0.00125323
0.00125371
0.0012529
0.00118607
0.00122475
0.00124461
0.00125262
0.00125386
0.0012538
0.00125373
0.00125352
0.00125323
0.00125321
0.00125311
0.00125244
0.00125203
0.00125207
0.00125221
0.0012519
0.00125165
0.00125111
0.00125073
0.00125016
0.00125017
0.00125104
0.00125096
0.00125081
0.00124997
0.00124995
0.00125029
0.0012498
0.00125027
0.00125096
0.00125053
0.00125112
0.001252
0.00125166
0.00125223
0.00125311
0.00125311
0.00125345
0.00125377
0.00125359
0.00125401
0.00125454
0.00125439
0.00125453
0.0012544
0.00125444
0.00125449
0.00125452
0.00125426
0.00125469
0.00125642
0.00125703
0.00125715
0.00125701
0.00125683
0.0012568
0.00125662
0.00125645
0.00125625
0.00125585
0.00125594
0.00125597
0.00125554
0.00125547
0.00125544
0.00125531
0.00125523
0.00125506
0.00125496
0.00125489
0.0012547
0.0012542
0.00125437
0.0012545
0.00125434
0.00125393
0.00125392
0.00125407
0.00125383
0.00125379
0.00125331
0.00125348
0.00125362
0.00125305
0.00125328
0.00125378
0.00125335
0.0012533
0.00125329
0.00125288
0.00118598
0.00122485
0.00124497
0.00125185
0.00125261
0.00125246
0.001252
0.0012521
0.00125245
0.00125154
0.00125135
0.00125169
0.00125113
0.00125126
0.00125151
0.00125118
0.00125091
0.00125039
0.00125062
0.0012505
0.00125073
0.00125105
0.00125047
0.00125038
0.00125029
0.00124983
0.00125014
0.0012507
0.00125014
0.00125057
0.00125141
0.00125119
0.00125188
0.00125282
0.00125257
0.00125327
0.00125402
0.0012543
0.00125461
0.00125424
0.00125473
0.00125514
0.00125499
0.00125516
0.00125497
0.00125503
0.00125507
0.00125491
0.00125441
0.00125451
0.00125462
0.00125391
0.00125404
0.00125451
0.00125432
0.00125425
0.00125413
0.00125402
0.00125337
0.00125358
0.0012541
0.00125332
0.00125346
0.00125393
0.00125361
0.00125349
0.00125332
0.00125313
0.00125362
0.00125418
0.00125387
0.00125373
0.00125377
0.00125378
0.00125323
0.00125312
0.00125388
0.00125415
0.00125396
0.00125357
0.00125327
0.00125334
0.0012531
0.00125346
0.00125365
0.00125297
0.00125314
0.00125366
0.0012536
0.00125334
0.00118601
0.00122481
0.00124477
0.00125244
0.00125482
0.00125497
0.00125472
0.0012546
0.00125438
0.00125409
0.00125392
0.00125379
0.00125347
0.00125323
0.00125252
0.00125231
0.00125215
0.00125175
0.00125137
0.00125121
0.00125112
0.0012508
0.0012506
0.00124992
0.00124992
0.00125028
0.00125025
0.00124982
0.00125027
0.00125103
0.00125134
0.00125148
0.00125202
0.00125258
0.00125299
0.00125343
0.0012531
0.00125367
0.00125413
0.00125398
0.00125424
0.00125438
0.001254
0.00125401
0.00125447
0.00125437
0.00125479
0.00125502
0.00125492
0.00125484
0.00125467
0.00125561
0.00125685
0.00125712
0.00125714
0.00125697
0.0012568
0.0012566
0.00125642
0.0012564
0.00125639
0.00125614
0.001256
0.00125578
0.00125561
0.00125524
0.00125532
0.0012554
0.00125509
0.00125528
0.00125535
0.00125519
0.00125497
0.00125484
0.00125473
0.00125439
0.00125432
0.00125424
0.00125367
0.0012536
0.00125381
0.00125328
0.00125357
0.001254
0.00125374
0.0012537
0.00125315
0.00125343
0.00125366
0.00125288
0.00118601
0.00122481
0.00124477
0.00125244
0.00125477
0.00125532
0.00125536
0.00125514
0.00125489
0.00125461
0.00125434
0.00125416
0.00125388
0.00125341
0.00125303
0.00125282
0.00125255
0.00125186
0.00125175
0.00125159
0.00125128
0.00125088
0.00125079
0.00125079
0.0012506
0.00125039
0.00125019
0.0012503
0.0012501
0.00125076
0.00125145
0.00125116
0.0012519
0.00125286
0.00125262
0.00125322
0.0012541
0.00125416
0.00125445
0.00125511
0.00125544
0.00125547
0.00125559
0.00125527
0.00125554
0.00125566
0.00125562
0.00125561
0.00125539
0.00125479
0.0012546
0.00125576
0.00125692
0.00125714
0.00125715
0.00125712
0.00125693
0.00125675
0.00125657
0.00125639
0.00125632
0.0012563
0.00125609
0.001256
0.00125572
0.00125572
0.00125577
0.00125562
0.00125563
0.00125564
0.0012556
0.00125547
0.00125508
0.00125491
0.00125481
0.00125487
0.00125466
0.00125459
0.00125453
0.0012546
0.00125443
0.00125374
0.00125386
0.00125411
0.00125335
0.00125355
0.00125403
0.001254
0.00125395
0.00125309
0.00118594
0.00122489
0.00124509
0.00125167
0.0012523
0.00125272
0.00125293
0.00125202
0.00125206
0.00125231
0.00125198
0.00125162
0.00125124
0.00125241
0.00125295
0.00125229
0.00125219
0.00125228
0.00125199
0.00125171
0.00125096
0.0012509
0.00125088
0.00124998
0.00125013
0.00125047
0.00125026
0.00125051
0.00125072
0.00125092
0.00125065
0.0012513
0.00125209
0.00125175
0.00125234
0.00125322
0.00125342
0.0012535
0.00125424
0.001255
0.00125498
0.00125517
0.00125527
0.00125548
0.00125538
0.00125532
0.00125538
0.00125527
0.00125532
0.00125531
0.00125463
0.00125474
0.00125477
0.00125438
0.00125413
0.00125466
0.00125532
0.001255
0.00125503
0.00125476
0.00125458
0.00125435
0.00125461
0.00125485
0.0012545
0.00125443
0.00125422
0.00125444
0.00125458
0.00125454
0.0012545
0.00125402
0.00125363
0.00125389
0.00125422
0.00125411
0.00125382
0.0012541
0.00125436
0.00125359
0.00125379
0.00125406
0.00125331
0.00125352
0.00125372
0.0012536
0.00125324
0.00125317
0.00125348
0.00125286
0.00118601
0.00122481
0.00124474
0.00125258
0.00125422
0.00125394
0.00125407
0.0012541
0.00125377
0.00125369
0.00125354
0.00125337
0.00125304
0.00125238
0.00125213
0.00125188
0.00125112
0.00125108
0.001251
0.0012506
0.00124994
0.00124971
0.00125008
0.00124998
0.00124974
0.00125002
0.00125034
0.00124967
0.00125006
0.00125079
0.00125115
0.00125129
0.00125186
0.00125244
0.00125284
0.00125328
0.0012529
0.00125317
0.00125375
0.00125352
0.00125401
0.0012546
0.00125397
0.00125426
0.00125478
0.00125405
0.00125402
0.00125448
0.0012541
0.00125434
0.0012547
0.00125465
0.00125458
0.00125382
0.0012539
0.0012544
0.00125432
0.00125415
0.00125425
0.0012544
0.00125425
0.00125418
0.00125377
0.00125362
0.00125313
0.00125332
0.00125388
0.00125317
0.00125334
0.0012538
0.00125371
0.00125345
0.00125342
0.00125374
0.0012534
0.00125337
0.00125346
0.00125345
0.00125286
0.00125293
0.0012538
0.00125391
0.00125371
0.00125299
0.00125311
0.00125357
0.00125283
0.00125301
0.00125352
0.00125277
0.00118601
0.00122481
0.00124477
0.00125244
0.00125478
0.0012552
0.00125507
0.00125483
0.00125462
0.00125446
0.00125421
0.00125376
0.0012534
0.0012532
0.00125304
0.00125271
0.00125242
0.001252
0.00125141
0.00125131
0.00125137
0.001251
0.00125087
0.00125066
0.00124993
0.00124976
0.00124995
0.00124959
0.00125011
0.00125086
0.00125046
0.00125109
0.00125192
0.00125183
0.00125206
0.00125302
0.00125373
0.00125395
0.00125362
0.00125386
0.00125438
0.00125464
0.00125479
0.00125412
0.00125429
0.00125494
0.00125452
0.00125486
0.00125518
0.00125501
0.00125452
0.0012544
0.00125452
0.00125377
0.00125366
0.00125406
0.00125371
0.00125402
0.0012543
0.00125353
0.00125341
0.00125419
0.00125435
0.00125413
0.00125351
0.00125346
0.00125381
0.00125318
0.00125334
0.00125381
0.00125305
0.00125306
0.00125384
0.00125391
0.00125372
0.00125309
0.00125321
0.00125365
0.00125295
0.00125311
0.00125364
0.00125306
0.00125334
0.00125367
0.00125355
0.00125336
0.00125324
0.00125354
0.00125357
0.00125329
0.00118601
0.00122481
0.00124477
0.00125244
0.00125477
0.00125532
0.00125535
0.00125527
0.00125501
0.00125475
0.00125446
0.00125417
0.00125396
0.00125367
0.0012532
0.00125281
0.00125259
0.00125232
0.00125163
0.00125154
0.00125142
0.00125065
0.00125077
0.00125087
0.00125084
0.00125088
0.00125059
0.00125047
0.00125083
0.00125127
0.00125152
0.00125144
0.00125209
0.00125293
0.00125267
0.00125337
0.00125412
0.00125437
0.00125469
0.00125434
0.00125451
0.00125522
0.00125543
0.00125538
0.0012549
0.00125507
0.0012552
0.00125502
0.00125496
0.0012545
0.00125495
0.00125656
0.00125711
0.00125719
0.00125717
0.00125713
0.00125694
0.00125676
0.0012566
0.00125643
0.00125637
0.00125632
0.00125629
0.0012561
0.00125556
0.00125559
0.00125565
0.00125535
0.00125545
0.00125547
0.00125535
0.00125532
0.00125517
0.00125506
0.00125495
0.00125433
0.00125438
0.00125445
0.0012543
0.00125388
0.0012539
0.00125404
0.00125397
0.00125401
0.00125392
0.0012538
0.00125303
0.00125313
0.00125359
0.00125287
0.00118601
0.00122481
0.00124477
0.00125244
0.00125477
0.00125533
0.00125536
0.00125514
0.0012549
0.00125462
0.00125435
0.00125416
0.00125389
0.00125342
0.00125304
0.00125282
0.00125256
0.00125186
0.00125175
0.00125161
0.00125119
0.00125079
0.0012507
0.00125071
0.00125049
0.00124997
0.00125013
0.00125061
0.00125012
0.00125064
0.0012515
0.00125123
0.00125193
0.00125287
0.00125262
0.00125322
0.0012541
0.00125416
0.00125445
0.00125512
0.00125544
0.00125547
0.0012556
0.00125527
0.00125554
0.00125566
0.00125562
0.00125561
0.00125538
0.00125494
0.00125472
0.00125577
0.00125695
0.00125691
0.00125677
0.00125673
0.00125642
0.00125623
0.00125616
0.00125614
0.0012559
0.00125586
0.00125584
0.00125566
0.00125568
0.00125552
0.00125528
0.00125507
0.00125494
0.00125456
0.00125477
0.00125484
0.00125464
0.00125406
0.00125397
0.00125414
0.00125353
0.00125375
0.00125425
0.00125381
0.00125394
0.001254
0.00125376
0.00125385
0.00125385
0.00125371
0.0012532
0.00125339
0.00125369
0.00125287
0.00118601
0.00122481
0.00124477
0.00125244
0.00125482
0.00125497
0.00125472
0.00125461
0.00125439
0.00125409
0.00125392
0.00125379
0.00125347
0.0012533
0.00125294
0.00125261
0.00125199
0.00125177
0.00125158
0.00125107
0.00125083
0.00125059
0.00124992
0.00124961
0.0012499
0.00125002
0.00124995
0.00125047
0.00125097
0.00125122
0.00125163
0.00125184
0.00125224
0.00125263
0.00125306
0.00125271
0.00125313
0.00125375
0.00125366
0.00125419
0.00125455
0.00125455
0.00125425
0.00125414
0.00125448
0.00125433
0.00125474
0.00125501
0.00125493
0.00125491
0.0012547
0.0012556
0.00125688
0.00125687
0.00125675
0.00125671
0.00125655
0.00125634
0.00125617
0.00125609
0.00125567
0.00125572
0.00125579
0.00125573
0.00125568
0.00125496
0.00125506
0.00125518
0.00125459
0.00125483
0.00125495
0.00125488
0.00125484
0.00125409
0.00125424
0.00125454
0.00125443
0.0012544
0.00125405
0.00125401
0.00125386
0.00125343
0.00125367
0.001254
0.00125324
0.00125345
0.001254
0.00125391
0.00125377
0.00125297
0.00118598
0.00122484
0.00124497
0.00125182
0.00125273
0.00125264
0.00125254
0.00125199
0.0012522
0.00125261
0.00125232
0.00125191
0.0012514
0.00125153
0.00125167
0.00125126
0.00125104
0.00125061
0.0012503
0.00125055
0.00125017
0.00125044
0.00125077
0.00125003
0.00125029
0.0012506
0.00124996
0.00125035
0.00125101
0.00125127
0.00125164
0.00125133
0.00125201
0.00125288
0.0012526
0.00125301
0.00125398
0.00125467
0.00125489
0.00125494
0.00125526
0.0012555
0.00125555
0.00125569
0.00125567
0.0012557
0.00125557
0.00125521
0.00125513
0.00125483
0.00125464
0.00125444
0.00125422
0.00125364
0.00125384
0.00125434
0.0012538
0.00125356
0.00125404
0.00125443
0.00125423
0.00125388
0.0012535
0.00125408
0.00125441
0.00125435
0.00125431
0.00125403
0.0012537
0.00125395
0.00125453
0.00125479
0.00125466
0.0012543
0.00125431
0.00125426