/*--------------------------------*- C++ -*----------------------------------*\
  =========                 |
  \\      /  F ield         | OpenFOAM: The Open Source CFD Toolbox
   \\    /   O peration     | Website:  https://openfoam.org
    \\  /    A nd           | Version:  11
     \\/     M anipulation  |
\*---------------------------------------------------------------------------*/
FoamFile
{
    format      ascii;
    class       volScalarField;
    location    "0.034";
    object      omega;
}
// * * * * * * * * * * * * * * * * * * * * * * * * * * * * * * * * * * * * * //

dimensions      [0 0 -1 0 0 0 0];

internalField   nonuniform List<scalar> 
287084
(
55.1036
55.9507
56.3533
56.4743
56.4834
56.4799
56.4723
56.4683
56.4804
56.4902
56.4882
56.4844
56.4727
56.4708
56.4826
56.4788
56.488
56.4993
56.4889
56.4957
56.4994
56.4931
56.4953
56.4921
56.484
56.4787
56.4867
56.4948
56.4907
56.4749
56.4767
56.4847
56.4669
56.4704
56.481
56.4796
56.477
56.4737
56.476
56.4655
56.4724
56.4797
56.4621
56.4667
56.4773
56.4598
56.461
56.4784
56.4794
56.4769
56.4788
56.4769
56.4695
56.4666
56.4595
56.4682
56.4755
56.4739
56.4691
56.4703
56.4795
56.4653
56.4707
56.481
56.4773
56.4767
56.4649
56.4724
56.4797
56.4776
56.4751
56.4704
56.4768
56.4783
56.4813
56.4828
56.4795
56.4695
56.4755
56.4807
56.4804
56.4803
56.4646
56.4624
56.4672
56.458
56.4655
56.4754
56.4734
56.4674
55.1055
55.9415
56.3503
56.4764
56.4869
56.4858
56.4838
56.4832
56.4875
56.4863
56.4827
56.4718
56.4755
56.4831
56.465
56.4685
56.4807
56.4783
56.4722
56.479
56.4993
56.4947
56.4955
56.5004
56.5
56.4863
56.4926
56.4975
56.4815
56.4864
56.49
56.472
56.4764
56.487
56.4697
56.4702
56.4814
56.4761
56.4832
56.4864
56.4823
56.4728
56.4693
56.4814
56.484
56.4797
56.4634
56.4649
56.4726
56.4557
56.455
56.4708
56.477
56.4737
56.4618
56.4691
56.4788
56.4647
56.4717
56.4794
56.4776
56.4722
56.473
56.4793
56.4683
56.474
56.4814
56.4786
56.4695
56.4737
56.4856
56.4853
56.4851
56.4695
56.4747
56.4855
56.4755
56.4793
56.4804
56.4787
56.4794
56.4762
56.4661
56.468
56.4704
56.4675
56.4593
56.4635
56.4755
56.4583
55.1054
55.9409
56.3498
56.4737
56.4791
56.4881
56.4958
56.4827
56.4881
56.5005
56.498
56.4951
56.4915
56.4817
56.4823
56.4901
56.4913
56.4914
56.4764
56.4771
56.4892
56.4867
56.4938
56.4999
56.4985
56.4983
56.4869
56.4909
56.4961
56.4798
56.4863
56.4968
56.4803
56.4862
56.4973
56.4819
56.4887
56.4991
56.4877
56.4866
56.4871
56.4847
56.4858
56.4881
56.4867
56.48
56.4832
56.4865
56.4848
56.4843
56.4701
56.4731
56.4771
56.4662
56.4737
56.4809
56.4634
56.4683
56.4776
56.4763
56.476
56.472
56.4774
56.4717
56.4798
56.4843
56.4816
56.474
56.4769
56.4823
56.4725
56.4714
56.4635
56.4705
56.4765
56.4616
56.4679
56.4833
56.476
56.477
56.4739
56.4792
56.4809
56.4674
56.4731
56.4795
56.4627
56.4682
56.474
56.4569
55.105
55.9423
56.3449
56.4786
56.493
56.503
56.505
56.4988
56.4976
56.499
56.4998
56.4968
56.4929
56.488
56.496
56.4985
56.4943
56.4801
56.4827
56.4943
56.487
56.4862
56.4826
56.4831
56.4823
56.4824
56.4722
56.4764
56.4938
56.4945
56.4931
56.4748
56.4773
56.4872
56.471
56.4732
56.4851
56.4741
56.4806
56.4907
56.4822
56.4801
56.4798
56.4791
56.4794
56.4793
56.4664
56.4651
56.4719
56.4727
56.4729
56.4686
56.468
56.4601
56.469
56.48
56.4655
56.4721
56.4798
56.4751
56.4746
56.4673
56.4785
56.4872
56.4859
56.4841
56.4834
56.4851
56.4842
56.4839
56.4716
56.4765
56.4821
56.4703
56.4766
56.4907
56.4902
56.4908
56.4881
56.4835
56.4675
56.4724
56.4802
56.4798
56.4796
56.4637
56.4695
56.4755
56.4729
56.4649
55.1051
55.9419
56.3447
56.4805
56.4979
56.496
56.4886
56.4933
56.4994
56.4868
56.4923
56.4948
56.4905
56.4902
56.4857
56.4882
56.485
56.4779
56.4745
56.4779
56.4777
56.4903
56.5009
56.4905
56.4902
56.49
56.4806
56.4859
56.495
56.4774
56.4756
56.4849
56.4801
56.4888
56.4989
56.487
56.4931
56.496
56.495
56.4946
56.4773
56.4805
56.4853
56.4846
56.4843
56.4691
56.4747
56.4798
56.4663
56.4734
56.4813
56.4633
56.4653
56.4765
56.4652
56.4715
56.4825
56.474
56.474
56.4738
56.4651
56.4709
56.482
56.4658
56.4714
56.4803
56.4639
56.4674
56.4793
56.4665
56.4726
56.4837
56.4816
56.4812
56.4695
56.4766
56.4832
56.4743
56.4756
56.4724
56.4631
56.4707
56.4813
56.4681
56.4755
56.4814
56.4677
56.475
56.4813
56.4622
55.1042
55.9449
56.3434
56.4621
56.4711
56.4603
56.4674
56.4811
56.4813
56.4813
56.4654
56.4704
56.4883
56.478
56.4861
56.4949
56.4865
56.4886
56.4847
56.4824
56.482
56.4736
56.4795
56.489
56.4715
56.4723
56.4873
56.4882
56.4876
56.4774
56.4841
56.4973
56.4908
56.4901
56.4868
56.4749
56.4786
56.4856
56.4672
56.471
56.4827
56.4671
56.4727
56.485
56.4694
56.4756
56.4874
56.4772
56.4767
56.4765
56.4677
56.4724
56.482
56.4824
56.4821
56.4679
56.4631
56.4732
56.4775
56.4735
56.4636
56.459
56.4733
56.4823
56.4813
56.4812
56.4757
56.4696
56.4712
56.4707
56.4818
56.4887
56.4762
56.4824
56.486
56.4703
56.4763
56.4842
56.4686
56.4739
56.4828
56.4719
56.4792
56.4838
56.4824
56.4811
56.4815
56.4834
56.4792
56.4646
55.1023
55.9482
56.3427
56.4668
56.4779
56.4648
56.472
56.4787
56.4715
56.4674
56.4747
56.5175
56.5221
56.5145
56.5154
56.5197
56.5192
56.5177
56.5176
56.5134
56.5118
56.5111
56.5012
56.5038
56.5062
56.5025
56.4913
56.4905
56.4959
56.4956
56.4908
56.4932
56.4984
56.481
56.4864
56.497
56.4813
56.487
56.4966
56.4939
56.4933
56.4807
56.4876
56.494
56.488
56.4889
56.4846
56.4833
56.48
56.48
56.4735
56.4785
56.4811
56.4631
56.4645
56.479
56.4799
56.4769
56.4605
56.4599
56.4689
56.4595
56.4675
56.4754
56.4742
56.4743
56.4657
56.4646
56.4586
56.4674
56.4746
56.4591
56.4625
56.4773
56.4771
56.4766
56.4625
56.4682
56.4818
56.4721
56.4785
56.4813
56.4685
56.4743
56.4817
56.4806
56.4807
56.4773
56.4759
56.4607
55.1048
55.9432
56.3406
56.4828
56.5244
56.5348
56.5374
56.5347
56.5321
56.5325
56.5299
56.5279
56.528
56.5261
56.5239
56.5208
56.5185
56.5176
56.5159
56.512
56.5099
56.5096
56.5006
56.5035
56.5064
56.5025
56.4942
56.4908
56.492
56.4801
56.4872
56.4981
56.4816
56.4873
56.4981
56.4854
56.4826
56.4991
56.5057
56.5037
56.5033
56.4916
56.4978
56.5028
56.4955
56.4926
56.496
56.5017
56.501
56.5026
56.5007
56.4992
56.4958
56.4918
56.4847
56.4795
56.4772
56.4768
56.4735
56.4672
56.4786
56.4866
56.4814
56.4827
56.4824
56.4694
56.4742
56.4812
56.4715
56.4735
56.4699
56.467
56.4574
56.4582
56.48
56.4836
56.4802
56.4749
56.4637
56.4738
56.4852
56.4788
56.4797
56.4799
56.4798
56.468
56.4717
56.4799
56.4764
56.464
55.1033
55.9466
56.3431
56.4668
56.4814
56.4785
56.4786
56.4781
56.4698
56.474
56.514
56.521
56.5164
56.5157
56.5169
56.5189
56.5169
56.5159
56.5142
56.5117
56.508
56.5056
56.5048
56.5047
56.5031
56.5018
56.489
56.4898
56.4955
56.4812
56.4879
56.4985
56.4818
56.4876
56.4981
56.4853
56.4822
56.4977
56.5069
56.5037
56.5027
56.5006
56.5008
56.4999
56.4998
56.4971
56.4918
56.4733
56.475
56.4792
56.4616
56.4667
56.4736
56.4565
56.4557
56.4745
56.4786
56.4745
56.4636
56.4592
56.4724
56.478
56.4751
56.4704
56.4619
56.4726
56.4837
56.4769
56.4812
56.483
56.4792
56.4663
56.467
56.4812
56.4811
56.4816
56.4854
56.4867
56.4838
56.4839
56.4735
56.4783
56.4869
56.4822
56.4846
56.4813
56.467
56.4663
56.4712
56.4577
55.1015
55.9493
56.3451
56.4534
56.479
56.4769
56.4656
56.4628
56.4816
56.4897
56.4863
56.4791
56.4718
56.486
56.4933
56.4893
56.479
56.4751
56.4811
56.4764
56.4852
56.4906
56.4765
56.4754
56.491
56.4939
56.4846
56.4922
56.4995
56.4813
56.4859
56.4974
56.4956
56.4933
56.4889
56.4861
56.4856
56.478
56.4801
56.4825
56.4633
56.4668
56.477
56.4604
56.4654
56.4746
56.4574
56.4598
56.472
56.4642
56.4638
56.4633
56.4633
56.4539
56.4602
56.4715
56.4548
56.4573
56.4718
56.476
56.4731
56.4553
56.4576
56.4705
56.4705
56.4668
56.4706
56.4762
56.4666
56.4672
56.4666
56.4574
56.4628
56.4733
56.4563
56.4577
56.4745
56.4761
56.4729
56.4579
56.4605
56.475
56.4783
56.4753
56.4699
56.4631
56.4688
56.4811
56.4783
56.4676
55.1033
55.9451
56.346
56.4697
56.4856
56.4824
56.4729
56.4682
56.4831
56.4894
56.4879
56.4845
56.4926
56.5004
56.4875
56.4928
56.5047
56.506
56.5029
56.4973
56.4883
56.4896
56.4977
56.4947
56.4847
56.4816
56.4873
56.4891
56.4893
56.4787
56.4867
56.4992
56.4936
56.4929
56.4894
56.4767
56.4793
56.4847
56.4661
56.4696
56.4808
56.4652
56.4708
56.4829
56.4673
56.4723
56.4865
56.4859
56.4846
56.4673
56.4715
56.4781
56.4612
56.4648
56.4758
56.4735
56.4735
56.4647
56.4688
56.4716
56.4679
56.4565
56.4597
56.4722
56.4723
56.4721
56.4566
56.4581
56.4753
56.4735
56.4737
56.4724
56.4816
56.4862
56.4724
56.479
56.4873
56.477
56.4828
56.4861
56.4766
56.4834
56.4863
56.468
56.4722
56.4808
56.4701
56.4702
56.4694
56.4593
55.1028
55.9466
56.3428
56.4733
56.4883
56.4862
56.486
56.4858
56.4783
56.4771
56.5088
56.5229
56.5167
56.5214
56.5231
56.521
56.5219
56.5187
56.5083
56.5112
56.5131
56.5029
56.5097
56.514
56.5099
56.5011
56.4933
56.491
56.4792
56.4854
56.4929
56.4745
56.4788
56.4888
56.471
56.4749
56.486
56.4698
56.4751
56.4865
56.4705
56.4763
56.4875
56.4771
56.4765
56.4762
56.4671
56.4725
56.4785
56.4787
56.4787
56.4745
56.4658
56.467
56.4738
56.4643
56.469
56.4705
56.4587
56.4617
56.4786
56.4795
56.4776
56.4762
56.4745
56.4711
56.4608
56.4669
56.4825
56.4805
56.4776
56.4611
56.4652
56.4754
56.4741
56.4737
56.4579
56.4644
56.4804
56.4764
56.4759
56.4659
56.4729
56.4774
56.4733
56.4728
56.4644
56.4728
56.4785
56.4605
55.1048
55.9431
56.3405
56.4826
56.5244
56.5319
56.531
56.5323
56.5253
56.525
56.5268
56.5229
56.5231
56.5234
56.5243
56.5212
56.5191
56.5208
56.5188
56.5176
56.516
56.5088
56.5062
56.51
56.5107
56.5091
56.4936
56.4947
56.5005
56.4843
56.4904
56.5
56.4911
56.486
56.4965
56.5037
56.5036
56.5034
56.4882
56.4929
56.4996
56.4951
56.4945
56.4852
56.4914
56.4952
56.4907
56.4905
56.4857
56.4846
56.4825
56.481
56.4687
56.4726
56.4819
56.4807
56.4804
56.4657
56.4731
56.4848
56.4834
56.483
56.4688
56.476
56.4846
56.4684
56.4742
56.4815
56.4717
56.4735
56.4698
56.4669
56.4573
56.458
56.4797
56.4835
56.4793
56.4705
56.4639
56.4743
56.4788
56.476
56.4719
56.4633
56.4737
56.4856
56.4794
56.4807
56.4793
56.4635
55.102
55.9479
56.3465
56.4588
56.4665
56.4599
56.4696
56.4849
56.4766
56.478
56.4776
56.4685
56.472
56.4842
56.4809
56.485
56.4863
56.4784
56.4783
56.4915
56.487
56.4957
56.5072
56.4981
56.5026
56.5041
56.4991
56.4989
56.4977
56.4861
56.4906
56.5002
56.4914
56.4857
56.4957
56.5037
56.4991
56.4977
56.4984
56.5005
56.4963
56.4931
56.4937
56.4959
56.4936
56.4945
56.4908
56.4813
56.4712
56.4686
56.4644
56.474
56.4804
56.4794
56.4792
56.4645
56.4687
56.4777
56.4765
56.4762
56.4623
56.4675
56.4799
56.4705
56.4696
56.4641
56.472
56.4772
56.4738
56.4733
56.4612
56.4659
56.4813
56.4709
56.4776
56.4892
56.4799
56.4864
56.4895
56.4852
56.4849
56.4834
56.4828
56.4699
56.4738
56.485
56.4843
56.4842
56.4799
56.4665
55.1048
55.9431
56.3405
56.4826
56.5242
56.5347
56.5372
56.5346
56.5326
56.5334
56.5302
56.5282
56.5284
56.5269
56.5214
56.5184
56.5188
56.5145
56.5162
56.5178
56.513
56.5107
56.5137
56.5154
56.511
56.4979
56.4946
56.4963
56.4904
56.4912
56.4903
56.4795
56.4836
56.4904
56.4715
56.4748
56.4853
56.469
56.4741
56.4851
56.469
56.4749
56.4858
56.4814
56.4806
56.4685
56.4742
56.4836
56.478
56.4775
56.4793
56.4791
56.4801
56.4823
56.4792
56.4755
56.4642
56.477
56.4914
56.4839
56.4892
56.4958
56.4916
56.492
56.4901
56.4732
56.4756
56.4813
56.4714
56.4733
56.4697
56.4668
56.4572
56.4579
56.4797
56.4834
56.4792
56.4704
56.4638
56.4743
56.4787
56.4748
56.4615
56.4609
56.4704
56.466
56.4724
56.4758
56.4718
56.4586
55.1068
55.939
56.3437
56.477
56.4902
56.4815
56.4894
56.4955
56.4869
56.4896
56.494
56.4916
56.4796
56.485
56.4934
56.4899
56.4812
56.4767
56.4824
56.483
56.4846
56.4836
56.493
56.4971
56.4844
56.4904
56.4992
56.4812
56.4807
56.4966
56.4981
56.4908
56.4965
56.4997
56.4885
56.4893
56.4839
56.4812
56.4794
56.4667
56.4697
56.4768
56.4587
56.4593
56.4708
56.4604
56.465
56.4833
56.4827
56.4802
56.4815
56.478
56.4657
56.4721
56.5047
56.5088
56.508
56.5103
56.5083
56.5052
56.501
56.4973
56.5008
56.5021
56.4971
56.497
56.495
56.4794
56.4812
56.4855
56.4679
56.4731
56.4807
56.4784
56.4782
56.4695
56.4741
56.4755
56.4642
56.4695
56.4833
56.4839
56.4836
56.468
56.4735
56.481
56.474
56.4749
56.4738
56.4619
55.1062
55.9414
56.3376
56.4807
56.5235
56.5345
56.5371
56.5379
56.5349
56.5324
56.5338
56.5318
56.5265
56.5237
56.5237
56.5218
56.521
56.513
56.5156
56.5172
56.5016
56.5062
56.5111
56.5095
56.5057
56.5056
56.5063
56.487
56.4904
56.4978
56.4977
56.4973
56.4769
56.4799
56.4845
56.4843
56.4838
56.4636
56.4664
56.4761
56.4593
56.4633
56.4752
56.4752
56.475
56.4577
56.4613
56.4746
56.4738
56.4735
56.4739
56.4742
56.4626
56.4756
56.4967
56.4894
56.4962
56.4995
56.4908
56.4964
56.4984
56.4898
56.4917
56.4922
56.4899
56.49
56.486
56.4724
56.4761
56.4805
56.4741
56.4753
56.4743
56.4708
56.4569
56.4576
56.4731
56.4757
56.4761
56.4747
56.4658
56.4699
56.4814
56.4729
56.4783
56.4804
56.4717
56.4788
56.4821
56.4627
55.1048
55.9431
56.3405
56.4827
56.5244
56.5349
56.5372
56.5378
56.538
56.5355
56.5337
56.5348
56.5329
56.5277
56.5249
56.5249
56.5235
56.5188
56.5162
56.5123
56.5161
56.5182
56.5112
56.5108
56.5094
56.4958
56.4957
56.5009
56.4867
56.4926
56.4973
56.4789
56.4832
56.4902
56.4712
56.4745
56.4844
56.4677
56.4727
56.4835
56.4673
56.4721
56.4846
56.4761
56.4752
56.4745
56.4762
56.4758
56.4758
56.473
56.4737
56.4695
56.4802
56.4978
56.4897
56.4963
56.4996
56.4963
56.4949
56.4958
56.4965
56.4904
56.4927
56.4895
56.4783
56.4822
56.4848
56.4731
56.4781
56.4846
56.4839
56.4834
56.4713
56.4645
56.4747
56.4822
56.4781
56.4664
56.4634
56.4692
56.4664
56.4755
56.4794
56.4764
56.4729
56.4617
56.4711
56.4803
56.4769
56.4643
55.1062
55.9414
56.3376
56.4808
56.5235
56.5345
56.5372
56.5348
56.5323
56.5333
56.5312
56.5258
56.523
56.523
56.5212
56.5203
56.5123
56.515
56.5167
56.5013
56.5063
56.5119
56.5024
56.5037
56.5004
56.4888
56.4939
56.5014
56.4829
56.4866
56.4976
56.4812
56.4848
56.4927
56.4925
56.4924
56.489
56.4851
56.4797
56.4753
56.4615
56.4676
56.4751
56.4568
56.4611
56.4699
56.4529
56.4575
56.4696
56.469
56.4687
56.4562
56.453
56.4738
56.4983
56.4916
56.4967
56.5028
56.5019
56.5022
56.5004
56.4989
56.4973
56.4963
56.4941
56.4825
56.4867
56.4887
56.4828
56.4814
56.4792
56.4792
56.4776
56.4751
56.4744
56.4655
56.4692
56.4823
56.4821
56.4809
56.4639
56.4684
56.4769
56.4639
56.4704
56.4746
56.46
56.466
56.4763
56.4585
55.1062
55.9415
56.3371
56.4853
56.5041
56.5022
56.5019
56.4994
56.4969
56.5008
56.502
56.4891
56.486
56.4936
56.5011
56.4988
56.4955
56.4885
56.4875
56.4827
56.49
56.5147
56.5133
56.51
56.4938
56.4948
56.501
56.4843
56.489
56.4969
56.4784
56.4827
56.4916
56.4731
56.4765
56.4864
56.4769
56.4772
56.476
56.4644
56.4683
56.4752
56.4669
56.465
56.4634
56.4666
56.4659
56.4629
56.4587
56.4737
56.5114
56.5226
56.5255
56.5266
56.5236
56.5211
56.5182
56.5156
56.5155
56.5102
56.512
56.5133
56.5066
56.507
56.5053
56.4999
56.4976
56.4974
56.4957
56.4956
56.4924
56.4817
56.4865
56.4895
56.4864
56.4774
56.4787
56.4827
56.4755
56.4745
56.4661
56.4699
56.4726
56.4611
56.4666
56.4773
56.469
56.469
56.4688
56.4592
55.1041
55.9442
56.344
56.4654
56.4749
56.4724
56.4643
56.47
56.4805
56.4635
56.4649
56.4783
56.4687
56.4764
56.4864
56.4834
56.4834
56.4799
56.4902
56.491
56.5034
56.5143
56.5059
56.5074
56.5041
56.4927
56.4982
56.5059
56.4875
56.4906
56.5007
56.4846
56.4896
56.4991
56.4827
56.4884
56.4949
56.4915
56.4906
56.477
56.4828
56.4869
56.4788
56.4774
56.4746
56.4754
56.4759
56.4726
56.4615
56.4649
56.4679
56.4539
56.4587
56.4705
56.4655
56.4654
56.4636
56.4627
56.4509
56.4577
56.47
56.4535
56.4585
56.47
56.4615
56.4569
56.4568
56.4561
56.4685
56.4804
56.4719
56.4703
56.4723
56.4729
56.459
56.4586
56.4792
56.4834
56.4788
56.4669
56.4635
56.4691
56.463
56.4703
56.4737
56.4594
56.4641
56.4757
56.4742
56.4687
55.1048
55.9431
56.3405
56.4827
56.5251
56.5293
56.5283
56.5291
56.5236
56.5207
56.5215
56.5231
56.5201
56.5179
56.5099
56.5109
56.5129
56.5092
56.5068
56.5097
56.5125
56.5094
56.5046
56.495
56.4981
56.5056
56.5017
56.487
56.4918
56.5006
56.4982
56.4908
56.4917
56.4928
56.4904
56.4895
56.4731
56.4771
56.479
56.4705
56.4722
56.4688
56.4561
56.4562
56.4665
56.4616
56.4697
56.4737
56.4721
56.4679
56.4677
56.4954
56.5193
56.5248
56.5261
56.5268
56.524
56.5213
56.5217
56.5198
56.5178
56.513
56.5107
56.5101
56.5104
56.5023
56.5035
56.5059
56.5016
56.5052
56.5067
56.504
56.4964
56.4933
56.4909
56.487
56.4893
56.486
56.4728
56.4734
56.4791
56.466
56.4729
56.4819
56.4748
56.4738
56.4635
56.4701
56.4746
56.458
55.1048
55.9431
56.3405
56.4827
56.5245
56.5349
56.5372
56.538
56.5354
56.533
56.5341
56.5322
56.5271
56.5244
56.5245
56.5229
56.5223
56.5147
56.5175
56.5193
56.5177
56.5134
56.5151
56.5173
56.5132
56.5041
56.5006
56.502
56.4895
56.4959
56.5009
56.4841
56.4901
56.4995
56.4828
56.4863
56.4963
56.4856
56.485
56.4945
56.4954
56.4909
56.4906
56.4827
56.4862
56.4873
56.486
56.4858
56.4802
56.4681
56.4681
56.4988
56.5201
56.5248
56.526
56.5265
56.527
56.5241
56.5217
56.522
56.5189
56.5164
56.516
56.5182
56.5123
56.5128
56.5148
56.5133
56.5147
56.5127
56.5088
56.5059
56.5011
56.5011
56.4964
56.495
56.4939
56.4959
56.4919
56.4905
56.4889
56.4755
56.4786
56.4841
56.4674
56.4727
56.4832
56.4816
56.4801
56.4622
55.1033
55.9454
56.3466
56.4608
56.4655
56.4762
56.4855
56.4679
56.4726
56.4816
56.4769
56.4702
56.4701
56.508
56.5214
56.5133
56.5166
56.5247
56.5233
56.5202
56.5109
56.5152
56.5181
56.5007
56.5053
56.5115
56.5028
56.5013
56.499
56.498
56.4836
56.4874
56.4934
56.4738
56.4767
56.4859
56.4772
56.4706
56.4816
56.4908
56.4865
56.4871
56.4827
56.4816
56.4808
56.4817
56.4809
56.4785
56.4797
56.4801
56.4672
56.4703
56.4718
56.4631
56.4599
56.4768
56.4914
56.484
56.4832
56.4817
56.4821
56.4778
56.4838
56.4894
56.4843
56.4845
56.4803
56.4846
56.4879
56.4874
56.487
56.4748
56.4681
56.4767
56.4836
56.4817
56.4756
56.4831
56.4885
56.4716
56.4767
56.4824
56.4661
56.4712
56.4754
56.4728
56.4649
56.4655
56.4738
56.4582
55.1048
55.9432
56.3401
56.4852
56.5132
56.5082
56.5119
56.5148
56.513
56.5159
56.5134
56.5106
56.5072
56.5012
56.5018
56.5023
56.4928
56.4974
56.5013
56.4982
56.4885
56.4901
56.5002
56.5002
56.4985
56.5022
56.5064
56.4863
56.4894
56.4974
56.495
56.4869
56.4878
56.489
56.486
56.4846
56.4631
56.463
56.472
56.4577
56.4629
56.4712
56.4536
56.4583
56.4679
56.4505
56.4514
56.4633
56.4534
56.4591
56.4676
56.4672
56.4671
56.4524
56.4569
56.4698
56.4694
56.4668
56.4698
56.474
56.4714
56.4675
56.4627
56.4638
56.4527
56.4583
56.4716
56.4557
56.4608
56.4716
56.4699
56.4645
56.466
56.4747
56.4668
56.4673
56.4671
56.4668
56.4553
56.4586
56.4771
56.4789
56.4748
56.4582
56.4626
56.4731
56.4561
56.4609
56.4725
56.4556
55.1048
55.9431
56.3405
56.4828
56.5245
56.5352
56.5343
56.5319
56.5328
56.5307
56.5253
56.5225
56.5225
56.5207
56.5193
56.5177
56.517
56.5164
56.5117
56.5149
56.5214
56.52
56.5213
56.5168
56.4967
56.495
56.5006
56.4854
56.4903
56.4982
56.4791
56.4827
56.4895
56.4728
56.468
56.4811
56.4855
56.481
56.4651
56.4661
56.4732
56.4717
56.4711
56.4545
56.4583
56.4729
56.462
56.4695
56.4765
56.4734
56.4632
56.4638
56.4685
56.4515
56.4522
56.4641
56.4558
56.4638
56.4707
56.455
56.4553
56.4742
56.4767
56.473
56.4597
56.4616
56.4712
56.4561
56.461
56.4719
56.4553
56.4577
56.4749
56.4757
56.4728
56.4583
56.4626
56.4727
56.4571
56.4618
56.4741
56.4607
56.4675
56.4742
56.4717
56.4642
56.4642
56.4723
56.4723
56.4687
55.1048
55.9431
56.3405
56.4827
56.5244
56.5349
56.5372
56.5378
56.5385
56.536
56.5338
56.5351
56.5334
56.5284
56.5257
56.5258
56.5244
56.5239
56.5165
56.5194
56.5218
56.5102
56.5163
56.5206
56.5204
56.5202
56.5093
56.5034
56.5056
56.5068
56.5025
56.4896
56.4938
56.5007
56.4833
56.4886
56.4947
56.4903
56.4893
56.4761
56.4763
56.4865
56.4866
56.4834
56.4705
56.4737
56.476
56.4713
56.4712
56.4635
56.4771
56.5125
56.5228
56.5253
56.5261
56.5264
56.527
56.5241
56.5223
56.5226
56.5224
56.5196
56.517
56.5136
56.5057
56.5083
56.5104
56.5066
56.508
56.5087
56.508
56.505
56.5036
56.5045
56.5004
56.4863
56.488
56.4898
56.4867
56.4777
56.4791
56.4828
56.4801
56.4793
56.477
56.4766
56.4605
56.4639
56.4746
56.458
55.1048
55.9431
56.3405
56.4827
56.5245
56.535
56.5372
56.5381
56.5355
56.533
56.5342
56.5323
56.5273
56.5245
56.5246
56.523
56.5223
56.5147
56.5176
56.5196
56.5145
56.5106
56.5131
56.5156
56.5116
56.4988
56.5011
56.5073
56.4892
56.4934
56.5029
56.4857
56.4906
56.4996
56.4828
56.4863
56.4964
56.4855
56.4852
56.495
56.4955
56.4909
56.4907
56.4827
56.4862
56.4873
56.486
56.4858
56.4802
56.4682
56.4681
56.4987
56.5203
56.5222
56.5204
56.5176
56.5152
56.5155
56.5152
56.5127
56.5091
56.5099
56.5107
56.5071
56.5056
56.5045
56.4996
56.4978
56.4987
56.4901
56.4943
56.4958
56.4917
56.479
56.4797
56.4846
56.4698
56.4753
56.4862
56.4778
56.4797
56.4809
56.4779
56.478
56.4781
56.4769
56.4648
56.4691
56.4755
56.4576
55.1048
55.9431
56.3405
56.4826
56.525
56.5294
56.5283
56.5292
56.5237
56.5208
56.5215
56.523
56.5201
56.5183
56.5155
56.5131
56.5085
56.5104
56.5119
56.5084
56.5089
56.507
56.4908
56.4885
56.4976
56.4984
56.497
56.503
56.5071
56.5041
56.5039
56.4973
56.4962
56.4965
56.4942
56.4737
56.4749
56.4805
56.47
56.4746
56.4763
56.472
56.4581
56.4562
56.4663
56.4605
56.4687
56.4738
56.4728
56.4699
56.4684
56.4952
56.5196
56.522
56.5205
56.5178
56.5153
56.5151
56.5123
56.5109
56.5051
56.5073
56.5098
56.5092
56.5091
56.4949
56.4976
56.5009
56.4894
56.4952
56.4978
56.4964
56.496
56.4806
56.4847
56.4916
56.4887
56.4884
56.4797
56.4796
56.4789
56.4693
56.4747
56.4817
56.4649
56.4707
56.4794
56.4797
56.4796
56.4602
55.1041
55.9442
56.344
56.4649
56.478
56.4758
56.472
56.4655
56.476
56.4879
56.4847
56.4761
56.4721
56.4824
56.4898
56.4881
56.4896
56.482
56.4812
56.4972
56.4918
56.5018
56.5116
56.4976
56.5048
56.5103
56.4939
56.4987
56.5069
56.5042
56.5033
56.4872
56.4925
56.5003
56.4833
56.4839
56.4951
56.4974
56.4974
56.4946
56.4949
56.4958
56.4923
56.4898
56.4875
56.487
56.4863
56.4774
56.4738
56.4677
56.4643
56.4609
56.4602
56.4504
56.4567
56.4688
56.4552
56.4527
56.4676
56.4761
56.4722
56.4618
56.4572
56.4746
56.4811
56.4802
56.4801
56.4733
56.4675
56.476
56.4861
56.495
56.495
56.4867
56.4885
56.4847
56.4831
56.4826
56.4721
56.4714
56.4782
56.4692
56.4707
56.4868
56.4882
56.4843
56.4705
56.4733
56.4766
56.458
55.1068
55.9388
56.3444
56.4746
56.4879
56.4808
56.4887
56.4948
56.4852
56.4849
56.4841
56.4739
56.4776
56.4906
56.4919
56.4889
56.4718
56.4768
56.4934
56.487
56.4947
56.4993
56.4946
56.4941
56.4866
56.4933
56.5021
56.4839
56.4871
56.4983
56.4823
56.4843
56.4983
56.498
56.4949
56.4822
56.4875
56.4909
56.4864
56.4757
56.47
56.4719
56.4758
56.4728
56.4663
56.468
56.4648
56.4562
56.4614
56.4763
56.4638
56.4708
56.48
56.4723
56.4679
56.4805
56.496
56.4894
56.4944
56.4961
56.4933
56.486
56.4897
56.4915
56.4861
56.4858
56.4866
56.4883
56.4809
56.4783
56.4793
56.4788
56.4705
56.4645
56.4748
56.4822
56.4781
56.4663
56.4631
56.4689
56.4607
56.4677
56.4718
56.4669
56.4663
56.4595
56.4658
56.4724
56.469
56.4577
55.1067
55.939
56.3437
56.4768
56.4902
56.4811
56.4885
56.4952
56.4855
56.4864
56.4856
56.4741
56.4767
56.492
56.4928
56.4888
56.4723
56.4732
56.4965
56.5003
56.4969
56.4839
56.488
56.498
56.4808
56.4853
56.4983
56.4822
56.4864
56.4982
56.4825
56.488
56.4951
56.4938
56.493
56.4751
56.4785
56.4857
56.4827
56.4777
56.4705
56.4676
56.4554
56.4611
56.4704
56.4701
56.4699
56.4564
56.4608
56.4982
56.5049
56.4952
56.4998
56.5058
56.5017
56.5014
56.4925
56.4964
56.5005
56.4987
56.4986
56.4942
56.4943
56.488
56.4918
56.4932
56.4917
56.493
56.4909
56.4873
56.4735
56.4772
56.4819
56.4792
56.4785
56.4763
56.4759
56.4598
56.4605
56.471
56.4654
56.4662
56.4656
56.4658
56.4558
56.4619
56.4736
56.4738
56.4737
56.4553
55.1048
55.9431
56.3405
56.4827
56.5244
56.5348
56.5372
56.5378
56.5375
56.5351
56.5334
56.5348
56.5328
56.5277
56.5249
56.525
56.5235
56.5188
56.5162
56.5124
56.5162
56.5183
56.5112
56.5109
56.5095
56.4963
56.4989
56.5051
56.4868
56.4915
56.5021
56.4884
56.4852
56.4919
56.493
56.4864
56.4933
56.4996
56.4843
56.4897
56.4986
56.4899
56.4946
56.5003
56.4989
56.5005
56.4979
56.4923
56.4891
56.4848
56.477
56.4658
56.4761
56.4964
56.4876
56.4947
56.4984
56.4912
56.4906
56.4897
56.4902
56.4862
56.4861
56.4861
56.4778
56.4819
56.4841
56.4727
56.4779
56.4846
56.4839
56.4834
56.4714
56.4645
56.4747
56.4823
56.4792
56.4741
56.4634
56.4736
56.485
56.4786
56.4791
56.4793
56.4792
56.4675
56.4715
56.4799
56.4764
56.464
55.1062
55.9414
56.3376
56.4808
56.5237
56.5346
56.5371
56.5376
56.5384
56.5358
56.5335
56.5347
56.5327
56.5275
56.5247
56.5248
56.5231
56.5218
56.5201
56.5187
56.5179
56.5134
56.5162
56.5222
56.5205
56.5209
56.5173
56.5145
56.5089
56.4906
56.4932
56.5014
56.4923
56.4854
56.4943
56.5021
56.5016
56.5013
56.4859
56.4907
56.4979
56.487
56.4859
56.4877
56.4905
56.4889
56.482
56.4853
56.4879
56.4872
56.487
56.4776
56.4711
56.4774
56.4826
56.4904
56.4924
56.4811
56.4787
56.4945
56.5028
56.4956
56.4995
56.5052
56.5037
56.5035
56.4987
56.4905
56.489
56.4902
56.4853
56.4889
56.4907
56.4888
56.4883
56.4725
56.4757
56.4804
56.4806
56.4806
56.4634
56.4692
56.479
56.4632
56.4694
56.4783
56.4615
56.4664
56.4765
56.4587
55.1062
55.9415
56.3371
56.4853
56.5043
56.5039
56.5037
56.4896
56.4957
56.5016
56.4886
56.4936
56.4959
56.4831
56.4888
56.4921
56.4812
56.4773
56.4902
56.4998
56.4965
56.4842
56.4851
56.4932
56.4779
56.4827
56.4961
56.4804
56.4859
56.495
56.4935
56.4945
56.4876
56.4924
56.4944
56.4898
56.4724
56.4733
56.4795
56.4621
56.4655
56.4769
56.4626
56.4688
56.4746
56.4729
56.4682
56.4693
56.4765
56.4757
56.4753
56.464
56.4615
56.4835
56.4978
56.4883
56.494
56.5009
56.4978
56.4875
56.4877
56.4938
56.488
56.4938
56.501
56.4974
56.4981
56.4972
56.4823
56.4847
56.491
56.4823
56.4831
56.4828
56.4811
56.4816
56.4818
56.4695
56.4757
56.4823
56.4791
56.4733
56.4745
56.4773
56.462
56.4685
56.4823
56.48
56.4771
56.4598
55.1048
55.9431
56.3405
56.4826
56.5242
56.5347
56.537
56.5376
56.5375
56.535
56.5332
56.5343
56.5323
56.5271
56.5243
56.5244
56.5195
56.5192
56.521
56.5209
56.5221
56.5206
56.5156
56.4982
56.5003
56.5058
56.4899
56.4957
56.5019
56.4984
56.4909
56.4878
56.4882
56.4728
56.4767
56.4872
56.4707
56.4759
56.4866
56.4704
56.4762
56.4868
56.4713
56.4776
56.4867
56.4741
56.4798
56.4877
56.4806
56.4846
56.4856
56.4818
56.4733
56.4697
56.4802
56.4879
56.4849
56.4739
56.4794
56.4898
56.4875
56.4798
56.4826
56.4879
56.4736
56.48
56.485
56.4732
56.4806
56.4867
56.4857
56.4853
56.4737
56.4664
56.4731
56.4813
56.4773
56.4662
56.4607
56.4737
56.4788
56.4749
56.4615
56.4609
56.4703
56.466
56.4723
56.4757
56.4717
56.4585
55.1027
55.9477
56.3443
56.4606
56.468
56.4659
56.4596
56.4639
56.4748
56.4736
56.4735
56.4618
56.4622
56.4909
56.5124
56.5122
56.5132
56.5079
56.5127
56.5141
56.5063
56.5106
56.5131
56.5123
56.512
56.4928
56.4928
56.4986
56.4835
56.4889
56.5003
56.4898
56.4853
56.4896
56.4901
56.4986
56.5039
56.4884
56.4945
56.5001
56.4911
56.4902
56.4843
56.4899
56.4927
56.4884
56.4743
56.4746
56.4778
56.4618
56.4662
56.4768
56.4669
56.4719
56.4738
56.4708
56.4623
56.4655
56.4728
56.47
56.4609
56.4586
56.4704
56.4765
56.4728
56.4563
56.4589
56.4708
56.4693
56.4698
56.47
56.4637
56.4642
56.479
56.4756
56.4764
56.4757
56.4762
56.4685
56.4757
56.4828
56.4749
56.4757
56.4744
56.4767
56.4735
56.4622
56.4666
56.4759
56.4584
55.1048
55.9431
56.3405
56.4827
56.5243
56.5348
56.5342
56.5318
56.5297
56.5274
56.5275
56.528
56.5259
56.5203
56.5203
56.522
56.5198
56.5212
56.5183
56.5163
56.5082
56.5092
56.5104
56.5093
56.5088
56.4898
56.4886
56.4967
56.498
56.496
56.5003
56.503
56.4923
56.4866
56.4905
56.492
56.4974
56.4998
56.4974
56.4938
56.4972
56.5029
56.4935
56.4983
56.5
56.4936
56.4962
56.497
56.4953
56.4943
56.4806
56.4827
56.4843
56.4662
56.4692
56.4804
56.4669
56.4734
56.482
56.4658
56.4665
56.4753
56.4684
56.4781
56.4867
56.4739
56.4783
56.4809
56.4716
56.4781
56.4813
56.4779
56.4722
56.465
56.4758
56.4827
56.4788
56.4702
56.4638
56.4743
56.4787
56.4749
56.4615
56.4611
56.4705
56.4661
56.4724
56.4758
56.4718
56.4586
55.1028
55.9467
56.3428
56.4733
56.4883
56.4861
56.4859
56.4858
56.4783
56.4772
56.5089
56.5228
56.5166
56.5214
56.5231
56.5211
56.522
56.514
56.5148
56.5163
56.506
56.51
56.5121
56.511
56.5109
56.5042
56.5045
56.5021
56.4977
56.4934
56.4799
56.4857
56.4974
56.4809
56.4826
56.4934
56.4839
56.4917
56.5004
56.4882
56.4936
56.4959
56.4831
56.4882
56.4914
56.4877
56.4761
56.4744
56.4765
56.4786
56.4789
56.4747
56.4658
56.4668
56.4737
56.4642
56.469
56.4705
56.4587
56.4641
56.4739
56.4723
56.4733
56.4679
56.467
56.4669
56.4602
56.4668
56.4825
56.4805
56.4776
56.4611
56.4652
56.4753
56.4741
56.4737
56.4579
56.463
56.4844
56.4846
56.4816
56.4688
56.4657
56.4759
56.4789
56.4731
56.4806
56.4871
56.4834
56.4712
55.102
55.9479
56.3465
56.4588
56.4664
56.4598
56.4598
56.4846
56.5071
56.5071
56.5064
56.5069
56.5077
56.506
56.5035
56.5037
56.5046
56.5026
56.5037
56.5004
56.499
56.4954
56.4857
56.482
56.4852
56.4764
56.4836
56.4956
56.487
56.4882
56.4849
56.4745
56.4806
56.4903
56.4736
56.4779
56.4872
56.4812
56.4831
56.4797
56.4678
56.4714
56.4779
56.4639
56.4705
56.4764
56.4619
56.4688
56.4795
56.4628
56.4639
56.4816
56.4828
56.4787
56.4686
56.4622
56.4713
56.4764
56.4726
56.4594
56.4591
56.4687
56.4616
56.4688
56.4722
56.458
56.4641
56.475
56.4736
56.4732
56.4574
56.4604
56.4778
56.47
56.4787
56.4878
56.48
56.4855
56.487
56.4832
56.4714
56.4762
56.4852
56.4686
56.4743
56.4825
56.4716
56.4714
56.4705
56.4603
55.1047
55.9441
56.3411
56.4685
56.4846
56.4752
56.4793
56.4815
56.4741
56.4782
56.4792
56.4896
56.4991
56.4899
56.489
56.4854
56.492
56.496
56.4937
56.4929
56.4829
56.4917
56.4991
56.4952
56.4814
56.4813
56.4903
56.4762
56.4818
56.4915
56.4862
56.4857
56.4802
56.4851
56.4861
56.4742
56.4801
56.4858
56.4668
56.4699
56.481
56.4657
56.4712
56.4834
56.4679
56.4731
56.4871
56.4863
56.4848
56.4676
56.4718
56.4784
56.4615
56.4652
56.4762
56.4738
56.4739
56.4652
56.4671
56.4738
56.4747
56.4748
56.465
56.463
56.4758
56.4753
56.4862
56.4934
56.4922
56.4921
56.4866
56.4862
56.4799
56.4811
56.4847
56.4785
56.4831
56.4896
56.4862
56.4743
56.4772
56.481
56.4805
56.4803
56.4616
56.4657
56.4749
56.4745
56.4742
56.4557
55.1048
55.9432
56.3436
56.4654
56.4835
56.4825
56.4773
56.4774
56.4716
56.4753
56.5107
56.5229
56.5165
56.5211
56.5226
56.5205
56.5214
56.5183
56.5166
56.5125
56.5108
56.5104
56.5002