/*--------------------------------*- C++ -*----------------------------------*\
  =========                 |
  \\      /  F ield         | OpenFOAM: The Open Source CFD Toolbox
   \\    /   O peration     | Website:  https://openfoam.org
    \\  /    A nd           | Version:  11
     \\/     M anipulation  |
\*---------------------------------------------------------------------------*/
FoamFile
{
    format      ascii;
    class       volScalarField;
    location    "0.034";
    object      p;
}
// * * * * * * * * * * * * * * * * * * * * * * * * * * * * * * * * * * * * * //

dimensions      [0 2 -2 0 0 0 0];

internalField   nonuniform List<scalar> 
287084
(
1.74482
1.47093
1.40107
1.33347
1.26697
1.21615
1.16857
1.12266
1.07962
1.03974
0.998914
0.956285
0.9131
0.869384
0.825301
0.780706
0.735663
0.690259
0.644634
0.599068
0.55373
0.50888
0.464877
0.421796
0.379673
0.339657
0.303109
0.270592
0.241443
0.214711
0.190324
0.16682
0.146076
0.129185
0.115645
0.105055
0.0972257
0.0918556
0.0886671
0.0874107
0.0878002
0.089555
0.0924321
0.0962088
0.100609
0.105462
0.110601
0.115816
0.120926
0.125804
0.130216
0.134073
0.138086
0.142284
0.146046
0.147538
0.148843
0.153075
0.157767
0.1607
0.159704
0.156295
0.153744
0.150646
0.147367
0.145823
0.1462
0.144808
0.139361
0.136121
0.134063
0.129295
0.122992
0.115198
0.10687
0.0995646
0.0939236
0.0887853
0.0854151
0.0804486
0.0703516
0.0634828
0.0583742
0.0468785
0.0387184
0.0338972
0.0255437
0.0172416
0.00895409
0.00289429
1.61244
1.42671
1.37162
1.31674
1.25723
1.20989
1.16447
1.12062
1.07849
1.0375
0.995895
0.953612
0.910728
0.867238
0.823129
0.778406
0.733221
0.687586
0.641776
0.595962
0.550376
0.505334
0.461141
0.418036
0.37625
0.336344
0.299306
0.26731
0.237672
0.208805
0.182613
0.160006
0.1405
0.124177
0.110979
0.100706
0.0931208
0.0880523
0.0851212
0.0841426
0.0847921
0.0868041
0.0899304
0.0939433
0.0985647
0.103628
0.108964
0.114371
0.119696
0.124804
0.129643
0.133995
0.138082
0.141636
0.144284
0.147753
0.151227
0.153828
0.157169
0.158687
0.157407
0.155498
0.153163
0.150779
0.14994
0.148921
0.14607
0.143824
0.14074
0.136827
0.133244
0.128208
0.121587
0.114695
0.108117
0.101533
0.095924
0.0907523
0.0839231
0.0781863
0.0716165
0.063069
0.0564878
0.0490818
0.0401808
0.0333909
0.0265059
0.0180569
0.00936676
0.00290051
1.58525
1.41777
1.36469
1.30914
1.25217
1.20531
1.16034
1.11707
1.07511
1.03376
0.992139
0.94984
0.906915
0.863265
0.818928
0.773912
0.728316
0.682294
0.636003
0.589725
0.543675
0.49814
0.453526
0.410061
0.368197
0.328381
0.290995
0.257229
0.22611
0.197721
0.17228
0.149857
0.130629
0.114683
0.101863
0.0920271
0.084953
0.0803361
0.0779505
0.0774926
0.0786755
0.0812132
0.0848495
0.0893284
0.0944156
0.0999112
0.105636
0.111411
0.11709
0.122556
0.127718
0.132461
0.136867
0.140943
0.144152
0.146795
0.149598
0.152691
0.155543
0.156615
0.156163
0.154928
0.153722
0.152528
0.1505
0.148955
0.147446
0.144423
0.140456
0.136316
0.132098
0.127092
0.121408
0.115461
0.109214
0.102861
0.0967364
0.090641
0.0844298
0.0780168
0.0708827
0.0635072
0.056351
0.0485569
0.0406427
0.0331956
0.0253423
0.0169978
0.00840787
0.00225936
1.54013
1.38637
1.33925
1.28907
1.23799
1.19447
1.15192
1.11031
1.06923
1.02817
0.986587
0.944353
0.901289
0.857401
0.812711
0.767189
0.721079
0.674412
0.627449
0.580442
0.533607
0.487361
0.442009
0.39792
0.355536
0.315225
0.277458
0.242692
0.211121
0.182348
0.156793
0.134585
0.115832
0.100409
0.0882028
0.0790702
0.0726886
0.0688933
0.0672937
0.0676435
0.0696108
0.0729279
0.0773037
0.0824925
0.0882526
0.0943787
0.100687
0.107016
0.113219
0.119183
0.124829
0.13006
0.134869
0.139154
0.142835
0.146255
0.149386
0.151821
0.153689
0.154774
0.155034
0.154517
0.153575
0.152226
0.150524
0.148671
0.146304
0.14329
0.139822
0.135866
0.131461
0.126586
0.121299
0.115538
0.109522
0.103397
0.0972838
0.0910663
0.0844942
0.0778429
0.0709184
0.0636035
0.0563007
0.0487679
0.0410315
0.0333365
0.0253303
0.0169396
0.00835642
0.00234475
1.51665
1.37015
1.32575
1.27695
1.22803
1.18562
1.14395
1.10303
1.06238
1.02142
0.97986
0.937461
0.89412
0.849826
0.804561
0.75841
0.711514
0.663969
0.616122
0.568084
0.5203
0.473024
0.426658
0.381646
0.338355
0.297305
0.258815
0.223375
0.191164
0.162208
0.136754
0.114829
0.0965099
0.0817024
0.0702548
0.0619662
0.0565583
0.053735
0.0531798
0.0545835
0.0576119
0.0619628
0.0673382
0.0734738
0.0801253
0.0870875
0.0941721
0.101214
0.108076
0.114657
0.120849
0.126593
0.131847
0.136585
0.140772
0.144455
0.14758
0.150162
0.152179
0.153395
0.15383
0.15365
0.152946
0.151795
0.150205
0.148182
0.145714
0.142749
0.13926
0.135315
0.130973
0.126189
0.121003
0.115445
0.109634
0.103615
0.0974705
0.0911241
0.0845577
0.0778318
0.0708542
0.063628
0.0563088
0.0488012
0.0411275
0.0333338
0.0252361
0.0168364
0.008258
0.0022823
1.49387
1.35011
1.30791
1.26129
1.215
1.17439
1.13413
1.09416
1.05404
1.01333
0.971739
0.929133
0.885422
0.840538
0.794624
0.747593
0.699766
0.651158
0.602113
0.552881
0.50377
0.455211
0.407603
0.361369
0.317001
0.274906
0.23559
0.199346
0.166608
0.137381
0.111968
0.0903429
0.0725726
0.0585396
0.0480183
0.0408334
0.036609
0.0350715
0.0358297
0.0385533
0.0428802
0.0485007
0.0550981
0.0623986
0.0701499
0.078143
0.0861741
0.0940876
0.101758
0.109065
0.115937
0.122298
0.128109
0.133336
0.137947
0.141951
0.145356
0.148145
0.15029
0.151706
0.152416
0.152504
0.152029
0.151022
0.149516
0.147544
0.14508
0.142132
0.138711
0.134836
0.130541
0.125835
0.120758
0.115332
0.109616
0.103662
0.0975054
0.0911403
0.0845563
0.0777922
0.0708174
0.0636366
0.0563245
0.0488317
0.0411903
0.033393
0.0253235
0.016927
0.00826376
0.00226918
1.47605
1.33426
1.29358
1.24808
1.20319
1.16363
1.12418
1.08475
1.04494
1.00428
0.96258
0.919606
0.875363
0.829789
0.78296
0.734917
0.685911
0.635967
0.585574
0.534796
0.48421
0.434096
0.384924
0.337254
0.291476
0.248217
0.207814
0.170806
0.137471
0.108006
0.0826751
0.0614245
0.0443286
0.0311831
0.0217988
0.0158973
0.0130841
0.0130555
0.0153548
0.0196452
0.02553
0.0326598
0.040715
0.0493925
0.0584345
0.0676331
0.0767851
0.0857297
0.0943347
0.102501
0.11014
0.117203
0.12363
0.129406
0.134513
0.138946
0.142697
0.145769
0.148147
0.149821
0.150795
0.151128
0.15086
0.150016
0.148641
0.146747
0.144353
0.14147
0.138116
0.134315
0.130085
0.125459
0.120468
0.115131
0.109493
0.103587
0.0974582
0.091096
0.0845164
0.0777394
0.0707665
0.0635975
0.0562875
0.0488137
0.0411753
0.0333539
0.025252
0.0168233
0.00822594
0.00232051
1.4603
1.31931
1.27953
1.23508
1.19126
1.15251
1.11371
1.07477
1.03509
0.994407
0.952376
0.908958
0.864036
0.817587
0.769763
0.720481
0.670119
0.618686
0.566614
0.514161
0.461726
0.409806
0.358864
0.309479
0.26214
0.217432
0.175885
0.137922
0.10396
0.0742532
0.0489984
0.0282108
0.0118785
-0.00018034
-0.00823973
-0.0126338
-0.0137687
-0.0120522
-0.00794395
-0.00184876
0.00581279
0.014677
0.0243866
0.0346349
0.0451581
0.055732
0.0661488
0.0762576
0.0859274
0.0950521
0.103563
0.1114
0.118527
0.124922
0.130575
0.135479
0.139643
0.14307
0.145759
0.147722
0.148973
0.149549
0.149494
0.148836
0.147604
0.145836
0.143543
0.140748
0.137478
0.133752
0.129603
0.125051
0.120133
0.114876
0.109299
0.103448
0.0973415
0.0909988
0.0844417
0.0776803
0.0707277
0.0635939
0.0562914
0.0488186
0.0412079
0.0333872
0.0252642
0.0168405
0.00825886
0.00236224
1.44636
1.30588
1.26671
1.22288
1.17975
1.14157
1.10319
1.06439
1.02475
0.983852
0.941476
0.897407
0.851678
0.804237
0.755141
0.704505
0.652532
0.59937
0.545454
0.490999
0.436569
0.3826
0.329603
0.278286
0.229122
0.182842
0.139937
0.10097
0.0663762
0.0363825
0.0113165
-0.00895054
-0.0243423
-0.035184
-0.0417572
-0.0444348
-0.0437005
-0.0400017
-0.0338596
-0.0257247
-0.0160513
-0.00524852
0.00631682
0.0183238
0.0304845
0.0425808
0.0544042
0.0657978
0.0766416
0.0868304
0.0962959
0.104995
0.112887
0.11996
0.126218
0.131649
0.136268
0.140093
0.143134
0.14542
0.146962
0.147801
0.147974
0.14751
0.146455
0.144823
0.142652
0.139963
0.136791
0.133153
0.129082
0.124611
0.119766
0.114573
0.109057
0.103255
0.0971835
0.0908714
0.0843248
0.0775766
0.0706389
0.0634971
0.0562197
0.0487556
0.0411392
0.0333756
0.025327
0.0169443
0.00822709
0.0022266
1.43374
1.29352
1.25475
1.21134
1.16863
1.13076
1.09257
1.05384
1.01405
0.97283
0.929851
0.885062
0.838384
0.789759
0.739342
0.687112
0.633404
0.578333
0.522309
0.465709
0.408963
0.352702
0.297463
0.243962
0.192845
0.144767
0.100429
0.0603581
0.0250299
-0.00517663
-0.0301037
-0.0497023
-0.0640872
-0.0735304
-0.0783701
-0.0791254
-0.0762771
-0.070385
-0.0619891
-0.0516168
-0.0397428
-0.0268086
-0.0132187
0.00069284
0.0146465
0.0283907
0.0417317
0.0545266
0.0666322
0.0779652
0.0884659
0.0980822
0.106798
0.114603
0.121506
0.127502
0.132624
0.136894
0.140326
0.142953
0.144801
0.145913
0.146331
0.14608
0.145197
0.143724
0.141689
0.139121
0.13605
0.132511
0.128529
0.124135
0.119364
0.114234
0.108774
0.103027
0.0969955
0.0907128
0.0842
0.0774755
0.0705618
0.0634639
0.0561858
0.0487347
0.0411562
0.0333712
0.0252293
0.0168151
0.00825755
0.00236688
1.42222
1.28216
1.24357
1.20043
1.15794
1.1202
1.08213
1.04323
1.00317
0.961444
0.91783
0.872174
0.824379
0.77449
0.722506
0.66857
0.612916
0.555717
0.497455
0.438413
0.379243
0.320483
0.262762
0.206938
0.153579
0.103655
0.0576778
0.0164588
-0.0195831
-0.0500405
-0.0746679
-0.0935552
-0.106734
-0.114633
-0.117632
-0.116264
-0.111133
-0.102838
-0.0920043
-0.0791857
-0.064935
-0.0497194
-0.0339486
-0.0179891
-0.0021371
0.0133738
0.0283322
0.0425916
0.0560364
0.0685832
0.0801772
0.0907728
0.10036
0.10894
0.116523
0.123126
0.128775
0.133512
0.137355
0.14035
0.142524
0.143923
0.144594
0.144559
0.143873
0.142561
0.140673
0.138236
0.135282
0.131839
0.127948
0.123638
0.118935
0.113872
0.10847
0.102769
0.0967772
0.0905309
0.0840478
0.0773458
0.070444
0.0633574
0.0561031
0.0486924
0.041107
0.0333086
0.0252203
0.0168246
0.00823499
0.0023443
1.41161
1.2716
1.23317
1.19011
1.14769
1.10987
1.07173
1.03273
0.992209
0.949876
0.905483
0.858799
0.809845
0.758499
0.704896
0.649107
0.591373
0.531921
0.471193
0.409619
0.347734
0.28631
0.22594
0.167569
0.111943
0.0599217
0.0123446
-0.0301334
-0.0669159
-0.0975588
-0.12192
-0.139938
-0.151864
-0.158039
-0.158966
-0.155307
-0.147697
-0.136846
-0.123403
-0.108018
-0.0912546
-0.0736155
-0.0555631
-0.0374557
-0.0196005
-0.00225127
0.014396
0.0302016
0.0450432
0.0588499
0.0715755
0.0831819
0.09368
0.103059
0.111352
0.118581
0.12479
0.130008
0.134284
0.137658
0.140166
0.14186
0.142785
0.142979
0.142492
0.141356
0.139622
0.137319
0.134477
0.131143
0.127342
0.123113
0.11849
0.11349
0.108146
0.10249
0.0965431
0.0903387
0.0838853
0.0772093
0.0703237
0.0632643
0.0559879
0.0485646
0.0411206
0.0333709
0.0252282
0.016831
0.00822604
0.0023332
1.40183
1.26184
1.2234
1.18042
1.13796
1.09994
1.06162
1.02229
0.981302
0.938263
0.892974
0.845267
0.794961
0.742125
0.686742
0.628964
0.569018
0.507176
0.443869
0.379551
0.314927
0.250619
0.187508
0.126474
0.0683802
0.0142799
-0.0350807
-0.0787852
-0.1163
-0.147127
-0.171047
-0.188166
-0.19863
-0.202991
-0.201767
-0.195675
-0.185478
-0.171921
-0.155756
-0.137669
-0.118284
-0.0981451
-0.077716
-0.0573856
-0.0374724
-0.0182263
0.000158515
0.0175352
0.0338052
0.0488997
0.0627863
0.0754324
0.0868525
0.0970595
0.106076
0.113949
0.120718
0.12644
0.131154
0.134914
0.137764
0.139756
0.140945
0.141373
0.141087
0.140127
0.13855
0.136379
0.13366
0.130432
0.126726
0.122583
0.118025
0.113098
0.107813
0.102204
0.0962999
0.0901255
0.0837123
0.077068
0.0702152
0.0631745
0.055962
0.0485842
0.041045
0.0332622
0.0251969
0.0168348
0.00820275
0.00232078
1.39279
1.25279
1.21432
1.1713
1.12868
1.09041
1.0518
1.0122
0.970549
0.926746
0.880525
0.831603
0.779974
0.725513
0.66832
0.608482
0.546276
0.481896
0.415936
0.348805
0.281207
0.214029
0.147973
0.0842174
0.023631
-0.0326644
-0.0837575
-0.128742
-0.166949
-0.19789
-0.221375
-0.237465
-0.246456
-0.248852
-0.245328
-0.236706
-0.2238
-0.207462
-0.188496
-0.167651
-0.145592
-0.122896
-0.100055
-0.0774698
-0.0554716
-0.0343017
-0.014166
0.00480663
0.0225221
0.0389152
0.0539643
0.0676597
0.0800062
0.0910355
0.100782
0.1093
0.116641
0.122861
0.12801
0.132157
0.135349
0.137649
0.1391
0.139756
0.139674
0.138899
0.137476
0.135442
0.132844
0.129721
0.126109
0.12205
0.117568
0.112696
0.107469
0.101911
0.09605
0.0899194
0.0835331
0.0769123
0.0700876
0.0630591
0.0558618
0.0484821
0.0409595
0.0332338
0.0251531
0.0167862
0.0082099
0.00233963
1.38446
1.24445
1.20592
1.1628
1.12004
1.08144
1.04245
1.00233
0.960104
0.915473
0.868259
0.818151
0.765087
0.708975
0.649894
0.587941
0.523349
0.456478
0.387731
0.317735
0.247223
0.176979
0.108069
0.0414863
-0.0216265
-0.0801013
-0.132944
-0.179156
-0.218018
-0.249019
-0.271963
-0.286972
-0.294335
-0.294747
-0.288886
-0.27767
-0.262029
-0.242873
-0.221075
-0.197458
-0.172714
-0.147455
-0.122205
-0.0973719
-0.0732919
-0.050214
-0.0283285
-0.00777389
0.0113619
0.0290414
0.0452406
0.0599628
0.0732316
0.0850803
0.0955521
0.104708
0.112614
0.119332
0.124919
0.129447
0.132978
0.135568
0.137279
0.138165
0.138283
0.137678
0.136411
0.134512
0.132033
0.129018
0.125498
0.121516
0.117105
0.112303
0.107131
0.101619
0.0958012
0.089701
0.083354
0.0767666
0.0699658
0.0629708
0.0557981
0.0484554
0.0409413
0.0332072
0.025168
0.0168194
0.00818183
0.00229034
1.37683
1.23677
1.19815
1.15493
1.11194
1.07321
1.0337
0.992869
0.949984
0.90458
0.856335
0.805012
0.750512
0.692749
0.631784
0.567711
0.500794
0.431326
0.359866
0.286983
0.213451
0.140291
0.0683835
-0.000916165
-0.066543
-0.127168
-0.181714
-0.229089
-0.268537
-0.299543
-0.321898
-0.335774
-0.341532
-0.339886
-0.331664
-0.317864
-0.299485
-0.27753
-0.252939
-0.226578
-0.199185
-0.171418
-0.1438
-0.116759
-0.0906432
-0.0656982
-0.0421099
-0.0200124
0.000521959
0.0194519
0.036772
0.0524949
0.0666607
0.079305
0.0904821
0.100256
0.108703
0.115898
0.121908
0.126808
0.130666
0.133546
0.135514
0.136621
0.136931
0.136504
0.13538
0.133615
0.131255
0.128336
0.124905
0.121006
0.11666
0.111913
0.106792
0.101329
0.0955556
0.0894938
0.0831718
0.0766124
0.0698336
0.0628456
0.0556842
0.0483452
0.0408536
0.033139
0.0251565
0.0168272
0.00815249
0.00227873
1.36987
1.22979
1.19105
1.1477
1.10446
1.06536
1.02542
0.984099
0.940536
0.894257
0.845003
0.792437
0.736532
0.677106
0.614279
0.548099
0.478852
0.406903
0.332713
0.25702
0.1806
0.104467
0.0297629
-0.0422677
-0.1103
-0.172978
-0.229137
-0.277592
-0.317563
-0.348489
-0.370225
-0.382912
-0.387017
-0.383358
-0.372806
-0.356476
-0.335441
-0.310775
-0.283479
-0.254473
-0.22454
-0.194343
-0.164455
-0.1353
-0.107231
-0.0804955
-0.0552746
-0.0316974
-0.0098358
0.0102932
0.0286859
0.0453632
0.0603787
0.0737873
0.0856296
0.0960059
0.104975
0.11263
0.119046
0.124302
0.12847
0.131623
0.133828
0.13515
0.135646
0.135378
0.134397
0.132757
0.130507
0.127687
0.124339
0.12051
0.116233
0.111543
0.106473
0.10106
0.0953227
0.0892939
0.0830046
0.0764679
0.0697223
0.0627756
0.0556433
0.0483238
0.0408189
0.0331268
0.0251413
0.0168134
0.00813761
0.0022418
1.36364
1.22347
1.18463
1.14111
1.0976
1.05821
1.01784
0.97597
0.931716
0.884621
0.83434
0.78063
0.723322
0.662351
0.597693
0.529549
0.458051
0.383675
0.306915
0.228475
0.149277
0.0703619
-0.00710628
-0.0816368
-0.152012
-0.216586
-0.274243
-0.323672
-0.364059
-0.39488
-0.415912
-0.427472
-0.429975
-0.424367
-0.411594
-0.392841
-0.369276
-0.342033
-0.312176
-0.28067
-0.24833
-0.215854
-0.183824
-0.152681
-0.122773
-0.094356
-0.0676069
-0.0426455
-0.0195235
0.0017264
0.0211227
0.0387005
0.0545141
0.0686249
0.0810985
0.0920267
0.101488
0.109572
0.116364
0.121954
0.126412
0.129822
0.132255
0.133771
0.134443
0.134332
0.133483
0.131961
0.129812
0.12708
0.123812
0.12005
0.115831
0.111196
0.106175
0.100795
0.0950955
0.089097
0.0828345
0.0763206
0.0695874
0.0626319
0.0554963
0.0482221
0.0407504
0.0330608
0.0250626
0.0168058
0.00816408
0.0022301
1.35812
1.21789
1.17889
1.13524
1.0915
1.05166
1.01097
0.968686
0.923723
0.875837
0.824606
0.769771
0.711176
0.648683
0.582363
0.512284
0.438714
0.362091
0.282875
0.201933
0.120117
0.0385632
-0.0413755
-0.118327
-0.190733
-0.257131
-0.316074
-0.366348
-0.4071
-0.437714
-0.458124
-0.468508
-0.469502
-0.462038
-0.447192
-0.426199
-0.400299
-0.370686
-0.338478
-0.304674
-0.270126
-0.23556
-0.201564
-0.168595
-0.136999
-0.107042
-0.0788925
-0.0526528
-0.0283938
-0.00611439
0.0141996
0.0325951
0.049139
0.0639046
0.0769488
0.088389
0.098298
0.106776
0.113918
0.119807
0.124538
0.128178
0.130817
0.132516
0.133345
0.133369
0.132646
0.131228
0.129175
0.126522
0.123327
0.119627
0.115468
0.110879
0.105899
0.100562
0.0948969
0.0889301
0.0826904
0.0761985
0.0694951
0.0625861
0.0554829
0.0481919
0.0406945
0.0330225
0.0249788
0.0166589
0.00815535
0.00232451
1.35332
1.21305
1.17394
1.13013
1.08611
1.04599
1.00492
0.962172
0.91662
0.867979
0.815897
0.760043
0.700274
0.636449
0.568575
0.496793
0.421324
0.342591
0.261211
0.177916
0.0937713
0.00985583
-0.0723758
-0.151407
-0.225756
-0.293619
-0.353771
-0.404748
-0.445746
-0.476167
-0.495891
-0.505243
-0.504855
-0.49573
-0.479004
-0.455993
-0.427993
-0.396247
-0.361934
-0.326074
-0.289554
-0.253118
-0.217373
-0.18277
-0.149675
-0.118343
-0.0889413
-0.0615754
-0.0362861
-0.0130848
0.00805162
0.0271744
0.0443622
0.0596942
0.0732587
0.0851449
0.0954591
0.104288
0.111736
0.1179
0.122864
0.126716
0.129538
0.131396
0.132368
0.132517
0.131899
0.13058
0.128604
0.126029
0.122895
0.119253
0.115141
0.110595
0.105652
0.100344
0.0947122
0.0887644
0.0825458
0.0760792
0.0693787
0.0624694
0.0553685
0.0480825
0.0406252
0.0329611
0.0249308
0.0166484
0.0081416
0.00232859
1.34929
1.20896
1.16975
1.12578
1.08158
1.04121
0.999782
0.956554
0.910477
0.861255
0.808387
0.751659
0.690836
0.625788
0.556588
0.483265
0.40613
0.325635
0.242301
0.157023
0.0707922
-0.0151931
-0.0993597
-0.180282
-0.256168
-0.325402
-0.38647
-0.438009
-0.479212
-0.509389
-0.52855
-0.53695
-0.535307
-0.524724
-0.506369
-0.481616
-0.451808
-0.418237
-0.38211
-0.344482
-0.306265
-0.26823
-0.230967
-0.194969
-0.160582
-0.128065
-0.097587
-0.0692453
-0.0430844
-0.0190975
0.00274184
0.0224988
0.0402491
0.0560782
0.0700801
0.0823605
0.0930134
0.102147
0.109862
0.116258
0.121431
0.125457
0.128443
0.130438
0.131526
0.131783
0.131262
0.130023
0.128124
0.125606
0.122526
0.11893
0.114861
0.11035
0.105442
0.10017
0.0945564
0.088636
0.0824349
0.0759825
0.0693112
0.0624209
0.0553437
0.0480794
0.0406085
0.0329585
0.0249224
0.0166238
0.00813664
0.00233387
1.34603
1.20566
1.16635
1.1223
1.07791
1.03732
0.995567
0.951945
0.905474
0.855673
0.802218
0.744714
0.683045
0.617033
0.54668
0.472122
0.393612
0.311543
0.226636
0.139642
0.0517141
-0.0359831
-0.121772
-0.204183
-0.281424
-0.351652
-0.413472
-0.465477
-0.506781
-0.536771
-0.555387
-0.562992
-0.560358
-0.548551
-0.528856
-0.502661
-0.471362
-0.436282
-0.398665
-0.359591
-0.319985
-0.280625
-0.242131
-0.204976
-0.169528
-0.136044
-0.104681
-0.0755435
-0.0486586
-0.0240271
-0.00159932
0.018673
0.0368789
0.0531123
0.0674819
0.080076
0.0910128
0.100394
0.108324
0.114911
0.120247
0.124427
0.127534
0.129646
0.130837
0.131179
0.130732
0.129561
0.127715
0.125253
0.12222
0.118662
0.114628
0.110148
0.105266
0.100011
0.0944236
0.0885173
0.0823324
0.0759008
0.0692252
0.0623425
0.0552697
0.0479932
0.0405445
0.0328899
0.0248736
0.0165978
0.0081136
0.00233898
1.34357
1.20317
1.16378
1.11965
1.07511
1.03442
0.992405
0.948431
0.901616
0.851468
0.797457
0.739425
0.677044
0.610236
0.539033
0.46348
0.383877
0.30072
0.214525
0.126281
0.0370179
-0.0520136
-0.139031
-0.222643
-0.300948
-0.371876
-0.434193
-0.486494
-0.527933
-0.557738
-0.575969
-0.582954
-0.579479
-0.566763
-0.546031
-0.518739
-0.486304
-0.450081
-0.411322
-0.371139
-0.330471
-0.29011
-0.250664
-0.212637
-0.176379
-0.142148
-0.11011
-0.0803586
-0.0529241
-0.0277955
-0.00492934
0.0157427
0.0342949
0.0508413
0.0654832
0.0783261
0.0894731
0.0990483
0.107145
0.113878
0.119347
0.123635
0.126847
0.129042
0.130309
0.130718
0.130333
0.129208
0.127411
0.124986
0.121984
0.118461
0.114448
0.109996
0.105132
0.0998976
0.0943209
0.0884363
0.0822652
0.0758392
0.0691844
0.062308
0.0552544
0.0479954
0.0405504
0.0329115
0.0248837
0.0165922
0.00811029
0.00233788
1.34193
1.20148
1.16204
1.11784
1.07323
1.03229
0.990198
0.94619
0.899079
0.848567
0.794278
0.735798
0.673004
0.605686
0.533863
0.45766
0.377329
0.293321
0.20629
0.117148
0.0269625
-0.0629304
-0.150849
-0.235214
-0.314417
-0.385564
-0.448027
-0.500694
-0.542253
-0.571943
-0.58986
-0.596418
-0.592436
-0.579071
-0.557641
-0.5296
-0.496397
-0.459394
-0.419871
-0.378942
-0.337557
-0.296513
-0.256432
-0.21781
-0.181003
-0.146273
-0.11378
-0.0836135
-0.0558081
-0.0303509
-0.00718809
0.0137481
0.032542
0.049302
0.0641399
0.0771476
0.0884449
0.0981419
0.106354
0.113182
0.118738
0.123105
0.126378
0.128634
0.129951
0.130405
0.130056
0.128969
0.127199
0.124801
0.121826
0.118319
0.114333
0.109893
0.105042
0.0998197
0.0942537
0.088379
0.0822089
0.0757946
0.069137
0.0622685
0.0552044
0.0479422
0.0405108
0.0328609
0.0248752
0.0166435
0.00810146
0.00226188
1.3411
1.20063
1.16118
1.11693
1.07225
1.03123
0.98914
0.945077
0.897793
0.847152
0.792634
0.733989
0.670921
0.603322
0.531217
0.454658
0.373969
0.28959
0.202128
0.11255
0.0219052
-0.0684543
-0.156849
-0.241681
-0.321379
-0.392872
-0.45493
-0.507548
-0.5494
-0.579045
-0.596862
-0.603214
-0.598939
-0.585263
-0.563487
-0.535071
-0.50148
-0.464089
-0.424181
-0.382873
-0.341125
-0.299742
-0.259341
-0.220418
-0.183339
-0.148358
-0.115636
-0.0852614
-0.0572533
-0.0316187
-0.00831596
0.0127528
0.0316609
0.048526
0.0634552
0.0765443
0.0879144
0.097681
0.105949
0.112828
0.118426
0.12283
0.126139
0.128423
0.12977
0.130246
0.129919
0.128845
0.127097
0.124711
0.121745
0.118254
0.114267
0.109837
0.104992
0.0997754
0.0942158
0.0883441
0.0821885
0.0757781
0.0691313
0.0622627
0.0552086
0.0479541
0.0405156
0.0328786
0.0248495
0.0165709
0.00811503
0.00233523
1.34109
1.20062
1.16117
1.11691
1.07224
1.03119
0.989119
0.94507
0.897791
0.847129
0.792633
0.733983
0.670907
0.603343
0.531211
0.454665
0.373976
0.289566
0.202111
0.112529
0.0218827
-0.0684723
-0.156859
-0.241672
-0.321354
-0.392838
-0.454953
-0.507565
-0.549406
-0.579048
-0.596845
-0.603198
-0.59893
-0.585253
-0.563476
-0.535056
-0.50147
-0.464083
-0.424179
-0.382867
-0.341121
-0.299737
-0.259335
-0.220418
-0.183331
-0.148351
-0.115629
-0.0852537
-0.0572621
-0.031637
-0.00832566
0.012746
0.0316565
0.0485199
0.0634531
0.0765404
0.0879129
0.0976795
0.105946
0.112823
0.118428
0.122831
0.126135
0.12842
0.129763
0.130242
0.12991
0.12884
0.127089
0.124705
0.121741
0.118251
0.114268
0.109833
0.10499
0.0997721
0.0942159
0.0883423
0.082183
0.0757739
0.0691184
0.062251
0.0551936
0.0479286
0.0404937
0.0328434
0.0248387
0.0165827
0.00810576
0.00232732
1.34191
1.20146
1.16202
1.11782
1.07318
1.03225
0.990185
0.946207
0.899078
0.848563
0.794255
0.735768
0.672978
0.605616
0.53383
0.457612
0.377281
0.293318
0.206277
0.117154
0.0269607
-0.0629288
-0.150845
-0.235229
-0.314422
-0.385607
-0.44801
-0.500687
-0.542218
-0.571909
-0.589843
-0.596396
-0.592409
-0.579043
-0.557615
-0.529572
-0.496366
-0.459373
-0.419853
-0.378922
-0.337541
-0.296497
-0.256424
-0.217804
-0.181001
-0.146273
-0.113779
-0.0836148
-0.0558076
-0.030346
-0.00718037
0.0137546
0.03254
0.049295
0.0641264
0.0771299
0.088429
0.0981292
0.106341
0.113169
0.118724
0.123091
0.126362
0.128618
0.129939
0.130391
0.130046
0.128953
0.127189
0.124792
0.121816
0.118315
0.114319
0.109881
0.10503
0.0998067
0.0942451
0.0883665
0.0822059
0.075789
0.0691428
0.0622744
0.0552174
0.0479656
0.0405218
0.0328756
0.0248488
0.016545
0.00811045
0.0023536
1.34353
1.20313
1.16374
1.1196
1.07505
1.03433
0.992348
0.948458
0.901619
0.851427
0.797437
0.739388
0.677
0.61023
0.538999
0.46345
0.383875
0.30066
0.214494
0.126241
0.0369698
-0.0520323
-0.139063
-0.222626
-0.300959
-0.371833
-0.434159
-0.486476
-0.527893
-0.55771
-0.575901
-0.582902
-0.57943
-0.566717
-0.545991
-0.518694
-0.486263
-0.450043
-0.411293
-0.37111
-0.330446
-0.290087
-0.250646
-0.212625
-0.176368
-0.142142
-0.110111
-0.0803598
-0.0529319
-0.0278049
-0.00493756
0.0157297
0.0342803
0.0508234
0.0654677
0.0783067
0.0894581
0.0990309
0.10713
0.113861
0.11933
0.12362
0.126826
0.129023
0.130289
0.130695
0.130307
0.129186
0.127387
0.124966
0.12197
0.118445
0.114434
0.109977
0.105119
0.099881
0.0943075
0.0884242
0.0822544
0.0758312
0.0691712
0.0622968
0.0552327
0.0479622
0.0405313
0.0328739
0.0249244
0.0166764
0.00806685
0.00224472
1.34599
1.20561
1.16629
1.12225
1.07784
1.03725
0.995528
0.951932
0.905464
0.855649
0.802185
0.744673
0.683012
0.616966
0.54663
0.472074
0.393541
0.311543
0.226596
0.139641
0.0516883
-0.0359905
-0.121772
-0.204193
-0.281397
-0.351655
-0.413428
-0.465456
-0.506735
-0.536725
-0.555332
-0.562933
-0.560301
-0.548487
-0.528794
-0.502598
-0.471296
-0.436231
-0.398617
-0.359545
-0.319949
-0.280596
-0.24211
-0.204959
-0.169519
-0.136039
-0.104677
-0.0755458
-0.0486629
-0.0240369
-0.00161651
0.0186578
0.0368574
0.0530872
0.0674557
0.0800474
0.0909849
0.100367
0.108296
0.114882
0.120219
0.1244
0.127506
0.129618
0.130808
0.131147
0.130704
0.129527
0.127686
0.125227
0.122196
0.118642
0.114602
0.110127
0.105249
0.0999952
0.0944044
0.0885031
0.0823245
0.075889
0.0692249
0.0623431
0.0552796
0.0480122
0.0405629
0.032921
0.0249077
0.0166267
0.00810591
0.00230701
1.34922
1.2089
1.16967
1.12573
1.0815
1.04108
0.99971
0.95657
0.910478
0.861191
0.808345
0.7516
0.690778
0.625751
0.556538
0.483222
0.406106
0.325574
0.24227
0.156973
0.0707641
-0.0152063
-0.0993797
-0.180253
-0.256166
-0.325353
-0.38642
-0.43798
-0.479128
-0.509341
-0.528447
-0.536868
-0.53522
-0.524646
-0.506303
-0.481544
-0.451739
-0.418175
-0.382053
-0.344433
-0.306223
-0.268196
-0.230938
-0.194948
-0.16057
-0.128059
-0.0975905
-0.0692542
-0.0430974
-0.0191184
0.00272085
0.0224717
0.0402151
0.0560428
0.0700487
0.0823238
0.0929771
0.102114
0.109829
0.116223
0.121388
0.125423
0.128404
0.130403
0.131492
0.131742
0.131218
0.129979
0.12808
0.12557
0.122496
0.118903
0.114831
0.110321
0.105415
0.100137
0.0945277
0.08861
0.0824168
0.0759738
0.0692899
0.0624042
0.0553242
0.0480458
0.040592
0.0329242
0.0249158
0.0166465
0.00811067
0.00228536
1.35325
1.21297
1.17385
1.13006
1.08602
1.0459
1.00485
0.962124
0.916579
0.867924
0.815845
0.759984
0.700218
0.636382
0.5685
0.49672
0.421251
0.342559
0.261162
0.177895
0.0937305
0.00982701
-0.0723636
-0.151435
-0.225687
-0.293638
-0.353697
-0.404702
-0.445676
-0.476089
-0.495826
-0.505145
-0.504779
-0.495623
-0.47891
-0.455898
-0.427896
-0.396169
-0.361861
-0.326013
-0.289503
-0.253077
-0.217339
-0.182745
-0.149662
-0.118338
-0.0889433
-0.0615858
-0.0363044
-0.0131175
0.00800908
0.0271376
0.0443212
0.0596495
0.0732186
0.085107
0.0954155
0.104245
0.111689
0.117852
0.122815
0.126667
0.12949
0.131349
0.13232
0.132468
0.131852
0.130527
0.128557
0.125984
0.122855
0.119213
0.1151
0.110563
0.105624
0.100322
0.0946818
0.0887457
0.0825333
0.0760693
0.0693737
0.0624719
0.0553779
0.0480897
0.0406194
0.0329523
0.0249033
0.0165874
0.00813615
0.00236325
1.35804
1.21781
1.17879
1.13517
1.09138
1.05158
1.01091
0.968593
0.923683
0.875738
0.824534
0.769696
0.711095
0.64862
0.582305
0.512218
0.438681
0.362013
0.282855
0.201872
0.12008
0.0385579
-0.0414112
-0.118286
-0.190747
-0.257073
-0.316026
-0.36631
-0.407005
-0.437636
-0.458008
-0.468403
-0.469397
-0.461942
-0.447109
-0.426119
-0.400217
-0.370613
-0.338412
-0.304615
-0.270074
-0.235525
-0.201529
-0.168568
-0.136985
-0.107037
-0.0788987
-0.0526706
-0.0284092
-0.00613639
0.0141692
0.0325574
0.0490933
0.0638472
0.0768938
0.0883303
0.0982383
0.106718
0.11386
0.119751
0.124475
0.128123
0.13076
0.13246
0.133291
0.133312
0.132584
0.131173
0.129115
0.126468
0.123277
0.119583
0.115423
0.110837
0.105861
0.100522
0.0948608
0.0888944
0.0826676
0.0761838
0.06947
0.0625567
0.0554526
0.048155
0.0406819
0.0329977
0.0249496
0.0166354
0.00814
0.00234258
1.36357
1.22337
1.18451
1.14104
1.09752
1.05808
1.01772
0.975926
0.931661
0.884531
0.834274
0.780528
0.723262
0.662259
0.597624
0.529446
0.457976
0.383599
0.306859
0.228419
0.149244
0.0703107
-0.0070966
-0.0816657
-0.151956
-0.216589
-0.274165
-0.323619
-0.363998
-0.394792
-0.415851
-0.42736
-0.42989
-0.424247
-0.411482
-0.392734
-0.369165
-0.341939
-0.312096
-0.280596
-0.24827
-0.215808
-0.18379
-0.15265
-0.122759
-0.0943506
-0.0676166
-0.0426625
-0.0195523
0.00168734
0.0210729
0.0386479
0.054458
0.0685645
0.0810365
0.0919635
0.101422
0.109503
0.116296
0.121883
0.126344
0.12975
0.132186
0.133702
0.134376
0.13426
0.133415
0.131889
0.129746
0.127017
0.123752
0.119994
0.115777
0.111152
0.106134
0.100762
0.0950641
0.0890745
0.082817
0.0763137
0.0695797
0.0626443
0.0555173
0.0482095
0.0407188
0.0330345
0.0250558
0.0167742
0.00812342
0.00223143
1.36977
1.22969
1.19093
1.14761
1.10434
1.06531
1.02537
0.983986
0.940426
0.894158
0.844876
0.792367
0.736407
0.677033
0.614196
0.548017
0.478808
0.406821
0.332665
0.256968
0.180537
0.104452
0.029736
-0.0422675
-0.110279
-0.172971
-0.229086
-0.277549
-0.317484
-0.348407
-0.370115
-0.382798
-0.386922
-0.383249
-0.372712
-0.356384
-0.335353
-0.310698
-0.283412
-0.254412
-0.224484
-0.19431
-0.164422
-0.13528
-0.107217
-0.0804956
-0.0552917
-0.0317213
-0.00986631
0.0102562
0.0286364
0.045309
0.0603184
0.0737162
0.0855584
0.0959311
0.104895
0.112547
0.118966
0.124221
0.128387
0.131543
0.133751
0.135069
0.13557
0.135299
0.134317
0.132682
0.13043
0.127613
0.124273
0.120446
0.116172
0.11149
0.106422
0.101014
0.0952845
0.0892628
0.0829789
0.076449
0.069697
0.0627461
0.0556098
0.048283
0.0407853
0.0330791
0.0250059
0.0166754
0.00817418
0.00235213
1.37672
1.23666
1.19805
1.15481
1.11185
1.07297
1.03355
0.99286
0.949926
0.904484
0.856233
0.804913
0.750419
0.692657
0.631676
0.567622
0.500674
0.431251
0.359792
0.286892
0.213432
0.140202
0.0683889
-0.000957925
-0.0665118
-0.127173
-0.181644
-0.229046
-0.268476
-0.29946
-0.321836
-0.335674
-0.341439
-0.339777
-0.331561
-0.317767
-0.299388
-0.277442
-0.252863
-0.22651
-0.199131
-0.171374
-0.143769
-0.116736
-0.0906354
-0.0656999
-0.0421292
-0.0200377
0.000485629
0.0194034
0.036714
0.0524271
0.0665908
0.0792268
0.0903974
0.100169
0.108616
0.115807
0.121816
0.126715
0.130574
0.133452
0.135419
0.136529
0.136842
0.13641
0.135291
0.133521