/*--------------------------------*- C++ -*----------------------------------*\
  =========                 |
  \\      /  F ield         | OpenFOAM: The Open Source CFD Toolbox
   \\    /   O peration     | Website:  https://openfoam.org
    \\  /    A nd           | Version:  11
     \\/     M anipulation  |
\*---------------------------------------------------------------------------*/
FoamFile
{
    format      ascii;
    class       volScalarField;
    location    "0.04";
    object      k;
}
// * * * * * * * * * * * * * * * * * * * * * * * * * * * * * * * * * * * * * //

dimensions      [0 2 -2 0 0 0 0];

internalField   nonuniform List<scalar> 
287084
(
0.382268
0.395906
0.404217
0.407735
0.408466
0.408481
0.408441
0.408281
0.408368
0.408606
0.408581
0.408541
0.408488
0.408417
0.408379
0.408317
0.408458
0.408694
0.40852
0.408626
0.408734
0.408644
0.408658
0.408625
0.408582
0.408442
0.408508
0.408655
0.408622
0.408559
0.40848
0.408426
0.408228
0.408206
0.408409
0.408484
0.408459
0.408473
0.408412
0.40819
0.408257
0.408401
0.408146
0.408138
0.408264
0.408194
0.408132
0.408282
0.408391
0.408257
0.408301
0.40831
0.408304
0.408302
0.408094
0.408172
0.408322
0.40828
0.408301
0.408228
0.40823
0.408117
0.4082
0.408383
0.408393
0.408394
0.40816
0.408237
0.408386
0.408331
0.408324
0.408211
0.408298
0.408494
0.408488
0.408515
0.408469
0.408254
0.408287
0.408422
0.408436
0.408436
0.408331
0.408296
0.40824
0.408059
0.408129
0.408317
0.408294
0.408215
0.382309
0.39577
0.404114
0.40773
0.408476
0.408456
0.408462
0.408426
0.408516
0.408553
0.408503
0.408349
0.408339
0.408437
0.408273
0.40824
0.408391
0.408429
0.408303
0.408339
0.408577
0.408558
0.408622
0.408695
0.408655
0.408522
0.408611
0.408728
0.408482
0.408545
0.408627
0.408356
0.408335
0.408454
0.408398
0.408326
0.408305
0.408272
0.408425
0.408538
0.40852
0.408512
0.40831
0.408399
0.408489
0.408445
0.408368
0.408275
0.408226
0.408178
0.408109
0.408202
0.408361
0.40832
0.408168
0.408198
0.408355
0.40816
0.408242
0.408396
0.408353
0.408366
0.408329
0.408324
0.408185
0.408276
0.408427
0.408392
0.408319
0.408268
0.408438
0.408548
0.408493
0.408271
0.408271
0.408417
0.408288
0.408385
0.408443
0.408341
0.408356
0.408346
0.408203
0.408249
0.408303
0.408262
0.408193
0.408134
0.408211
0.408071
0.38231
0.39576
0.404107
0.407693
0.408496
0.408696
0.408667
0.408463
0.408488
0.408654
0.408659
0.408664
0.408627
0.408604
0.408508
0.408568
0.408678
0.408639
0.408573
0.408445
0.40847
0.408474
0.408595
0.408794
0.408819
0.408775
0.408543
0.408605
0.408708
0.408458
0.408502
0.40867
0.40845
0.408484
0.408646
0.408451
0.408514
0.408688
0.408635
0.408646
0.408609
0.408492
0.408509
0.408553
0.408518
0.408422
0.408454
0.40852
0.408517
0.408514
0.408259
0.408301
0.408379
0.408172
0.408262
0.408413
0.408163
0.408187
0.408327
0.408347
0.40835
0.408216
0.408217
0.408178
0.408333
0.408471
0.408439
0.408335
0.408324
0.408396
0.408379
0.408371
0.40816
0.408236
0.408365
0.408133
0.408147
0.40834
0.408298
0.408306
0.408241
0.40836
0.408443
0.408212
0.408281
0.408409
0.408162
0.408221
0.408336
0.408084
0.382298
0.395793
0.404035
0.407689
0.408646
0.408816
0.408771
0.408783
0.408708
0.408719
0.408733
0.408735
0.408734
0.40855
0.408647
0.408735
0.408688
0.4086
0.408488
0.408509
0.408529
0.408535
0.408466
0.408473
0.408504
0.408508
0.408371
0.408349
0.408609
0.408698
0.408642
0.408517
0.408414
0.40842
0.40836
0.408329
0.408359
0.408279
0.408386
0.408574
0.408504
0.408521
0.40844
0.408456
0.408467
0.408429
0.408407
0.408261
0.408282
0.408367
0.408314
0.408314
0.408294
0.40812
0.408181
0.408379
0.408171
0.408247
0.408397
0.408386
0.408383
0.408185
0.408301
0.408493
0.408414
0.40844
0.408462
0.408419
0.408479
0.408496
0.408264
0.408329
0.408445
0.408237
0.408277
0.408475
0.408433
0.408518
0.408549
0.408487
0.408269
0.40824
0.40841
0.408442
0.408398
0.40818
0.408237
0.408356
0.408323
0.408217
0.382299
0.395789
0.404022
0.407714
0.408586
0.408598
0.408522
0.408607
0.408727
0.408511
0.408596
0.408677
0.408656
0.408652
0.408481
0.408542
0.408564
0.408539
0.408539
0.408504
0.408411
0.408521
0.408749
0.408636
0.408664
0.408619
0.408455
0.408512
0.408666
0.408574
0.408516
0.408489
0.408398
0.408504
0.408708
0.40851
0.408601
0.408683
0.408685
0.408682
0.408399
0.408424
0.408505
0.408511
0.408509
0.408253
0.408311
0.408416
0.40819
0.408266
0.40842
0.408246
0.408172
0.408191
0.408113
0.408217
0.408421
0.40832
0.408348
0.408304
0.408155
0.408212
0.40839
0.408183
0.408239
0.408392
0.408204
0.408173
0.408254
0.408152
0.408238
0.408477
0.408512
0.40847
0.408238
0.408317
0.408456
0.40831
0.408305
0.408294
0.408159
0.408226
0.408415
0.408212
0.408302
0.408435
0.408213
0.408297
0.408433
0.408168
0.382282
0.395819
0.404064
0.40756
0.408254
0.40812
0.408166
0.408506
0.408546
0.408482
0.408315
0.408254
0.40839
0.408338
0.40847
0.40866
0.408528
0.408538
0.408531
0.408552
0.408507
0.408354
0.40842
0.408587
0.408466
0.408386
0.408514
0.408613
0.408572
0.408441
0.408457
0.408643
0.408599
0.408618
0.408599
0.408406
0.408369
0.408444
0.408288
0.408255
0.408328
0.408197
0.408247
0.408422
0.408235
0.408282
0.408461
0.408374
0.408403
0.408358
0.4082
0.408209
0.408444
0.408468
0.408435
0.40842
0.408236
0.408276
0.408377
0.408362
0.408355
0.408147
0.408237
0.408424
0.408381
0.408392
0.408404
0.408427
0.408384
0.408253
0.408359
0.408524
0.408319
0.408407
0.408504
0.408259
0.408319
0.408465
0.408233
0.408282
0.408432
0.408252
0.408354
0.408473
0.408409
0.408421
0.408406
0.408426
0.408408
0.408212
0.382252
0.39586
0.404053
0.407596
0.408337
0.408192
0.40829
0.408434
0.408408
0.408376
0.408289
0.408716
0.409018
0.408869
0.408857
0.409006
0.409047
0.409002
0.409
0.408957
0.408966
0.408949
0.408773
0.408814
0.40887
0.408845
0.40884
0.408669
0.408687
0.408693
0.408547
0.408631
0.408735
0.408474
0.408489
0.408633
0.408441
0.408492
0.408691
0.408671
0.408628
0.408416
0.408488
0.408617
0.408561
0.408553
0.408432
0.408471
0.408481
0.408433
0.408289
0.408358
0.408433
0.408278
0.408195
0.408323
0.408416
0.408384
0.408361
0.408231
0.408185
0.408057
0.40816
0.408333
0.408327
0.408327
0.408282
0.408271
0.408078
0.408173
0.40833
0.408139
0.408095
0.408278
0.40842
0.40837
0.408165
0.408161
0.408328
0.408226
0.408346
0.408444
0.408223
0.408292
0.408436
0.408352
0.408403
0.40842
0.408373
0.408152
0.38229
0.395817
0.40398
0.407626
0.408942
0.40927
0.409259
0.409271
0.40927
0.409238
0.409194
0.409168
0.409087
0.409061
0.409078
0.409041
0.409065
0.409136
0.409145
0.409106
0.409116
0.409044
0.408794
0.408814
0.408875
0.408856
0.408854
0.408782
0.40875
0.408496
0.408521
0.408693
0.408476
0.40851
0.408665
0.408635
0.408543
0.408632
0.408793
0.408768
0.408763
0.408559
0.408634
0.408742
0.408707
0.408684
0.408614
0.408635
0.408584
0.408665
0.40875
0.408704
0.408706
0.408709
0.408678
0.408636
0.408599
0.408561
0.408493
0.40827
0.408328
0.408488
0.408378
0.40839
0.408378
0.408219
0.408286
0.408423
0.408314
0.408269
0.40829
0.408299
0.408193
0.408115
0.408287
0.408458
0.408459
0.408456
0.408205
0.408258
0.408451
0.40832
0.408404
0.40844
0.408392
0.408246
0.408247
0.408362
0.408347
0.408201
0.382268
0.395841
0.404054
0.407585
0.408371
0.408352
0.408375
0.408376
0.408302
0.408272
0.40867
0.408993
0.408989
0.409019
0.408964
0.408945
0.408904
0.408977
0.409067
0.409055
0.409014
0.408985
0.408983
0.408943
0.408919
0.408868
0.408752
0.408693
0.408638
0.408461
0.408538
0.408726
0.408485
0.408516
0.408669
0.408636
0.408537
0.408612
0.408799
0.408699
0.408711
0.408729
0.408672
0.408711
0.408721
0.408703
0.408688
0.408445
0.408384
0.408333
0.40812
0.408183
0.408312
0.408206
0.408114
0.408233
0.408381
0.408371
0.408364
0.408154
0.408238
0.408375
0.408376
0.408375
0.408154
0.408232
0.408436
0.408291
0.408394
0.408467
0.408432
0.408405
0.408247
0.408333
0.40844
0.408373
0.408493
0.408531
0.408487
0.408478
0.408279
0.408344
0.408501
0.408401
0.408426
0.408383
0.408348
0.408363
0.408301
0.408087
0.382244
0.395854
0.404134
0.407428
0.408343
0.408414
0.408376
0.408237
0.408369
0.408572
0.408582
0.408582
0.408361
0.408468
0.408642
0.40864
0.408639
0.40852
0.408502
0.408375
0.40849
0.408638
0.408559
0.408482
0.408583
0.408701
0.40851
0.40861
0.408765
0.408505
0.408481
0.408604
0.4086
0.408604
0.408591
0.40859
0.408581
0.408417
0.408445
0.408488
0.408243
0.408185
0.408241
0.408097
0.408159
0.408311
0.408156
0.408095
0.408126
0.408103
0.408184
0.408206
0.408159
0.408018
0.408057
0.408235
0.408104
0.408049
0.408208
0.408349
0.408299
0.408181
0.408067
0.408191
0.408253
0.408127
0.40823
0.408358
0.408199
0.408183
0.408179
0.408054
0.408111
0.408287
0.408175
0.408107
0.408251
0.408368
0.408321
0.408227
0.408115
0.40827
0.408398
0.408394
0.408391
0.408182
0.40817
0.40831
0.408319
0.408213
0.382273
0.395812
0.404077
0.407615
0.408463
0.40849
0.408452
0.408303
0.408418
0.408578
0.40856
0.408515
0.408586
0.408741
0.408532
0.408547
0.408814
0.408846
0.408823
0.408822
0.408742
0.408646
0.408673
0.40869
0.408655
0.40856
0.408585
0.40868
0.408639
0.408476
0.408512
0.408704
0.408715
0.408715
0.408648
0.408494
0.408413
0.40842
0.408264
0.408226
0.40829
0.40816
0.408211
0.408384
0.408197
0.408192
0.40845
0.4085
0.408442
0.408231
0.408252
0.408359
0.408162
0.408129
0.408235
0.408337
0.408303
0.408124
0.408214
0.408297
0.408259
0.408199
0.408097
0.408225
0.408278
0.408245
0.408205
0.408108
0.408208
0.408298
0.408275
0.40822
0.408353
0.408497
0.408275
0.408348
0.408506
0.40832
0.408414
0.408509
0.408315
0.408417
0.408513
0.408245
0.408248
0.408364
0.408287
0.408285
0.408242
0.408097
0.382262
0.395844
0.404031
0.407644
0.40846
0.408448
0.408542
0.408566
0.408535
0.408453
0.408654
0.409003
0.408886
0.409001
0.409082
0.408982
0.409003
0.408995
0.408854
0.408914
0.408974
0.40877
0.408868
0.408984
0.408973
0.408972
0.408895
0.408849
0.408543
0.408532
0.408638
0.408401
0.408383
0.408492
0.40831
0.40829
0.4084
0.408253
0.408291
0.408447
0.408256
0.408296
0.408461
0.408371
0.408396
0.40835
0.408188
0.408222
0.408441
0.408498
0.408465
0.408421
0.408361
0.408283
0.408234
0.408106
0.408211
0.408284
0.408108
0.408064
0.408292
0.408408
0.408303
0.408365
0.408392
0.408337
0.408199
0.408159
0.408383
0.408441
0.408381
0.40821
0.408155
0.40829
0.408322
0.40828
0.408091
0.408093
0.408352
0.408436
0.408386
0.408192
0.408273
0.408385
0.408371
0.408367
0.40816
0.408258
0.408395
0.408138
0.38229
0.395816
0.40398
0.407618
0.408967
0.409167
0.409097
0.409126
0.409077
0.409103
0.409112
0.409
0.409057
0.409113
0.409031
0.409075
0.409092
0.409071
0.409077
0.409035
0.409052
0.40906
0.408891
0.408934
0.408966
0.408925
0.408871
0.408787
0.408726
0.408527
0.40859
0.408755
0.408725
0.408613
0.408636
0.408804
0.408801
0.40878
0.408536
0.408577
0.408691
0.408673
0.408667
0.408447
0.408525
0.40862
0.408598
0.408595
0.408519
0.408538
0.408517
0.408465
0.408279
0.408246
0.408379
0.40842
0.408379
0.408182
0.408225
0.408454
0.408474
0.408461
0.408232
0.408296
0.408459
0.408224
0.408286
0.408425
0.408316
0.408269
0.408289
0.408297
0.408191
0.408111
0.408282
0.408456
0.408451
0.408447
0.408221
0.408294
0.408404
0.4084
0.408398
0.408178
0.408252
0.408464
0.408362
0.408373
0.408357
0.40817
0.382252
0.395836
0.404121
0.407542
0.408195
0.408092
0.408206
0.40848
0.408368
0.408375
0.408368
0.408245
0.408259
0.408412
0.408365
0.408502
0.408585
0.408539
0.408507
0.408487
0.408469
0.408624
0.408865
0.408704
0.408804
0.408875
0.408771
0.408785
0.408767
0.408586
0.40858
0.408699
0.408693
0.408589
0.408631
0.408766
0.408686
0.408678
0.408695
0.408718
0.408692
0.408664
0.408602
0.408591
0.408592
0.408593
0.408555
0.408513
0.408465
0.408434
0.408215
0.408256
0.408426
0.408421
0.408404
0.408167
0.408171
0.408369
0.40842
0.408367
0.408141
0.408142
0.408298
0.408322
0.408325
0.408141
0.408241
0.40837
0.408365
0.408362
0.408126
0.408107
0.408269
0.408197
0.408304
0.408519
0.408351
0.408457
0.408556
0.408504
0.408535
0.408523
0.408474
0.408256
0.40823
0.408439
0.408537
0.408518
0.408504
0.408263
0.382291
0.395816
0.403979
0.407624
0.408939
0.409266
0.409254
0.409268
0.409226
0.409233
0.409246
0.409185
0.409188
0.409138
0.40911
0.409124
0.409119
0.408953
0.408993
0.409045
0.409026
0.408981
0.408995
0.409035
0.409005
0.409007
0.408924
0.408884
0.408807
0.408768
0.408699
0.408479
0.408506
0.408614
0.408385
0.408322
0.408373
0.408232
0.408272
0.408425
0.408228
0.408269
0.408433
0.408457
0.408458
0.408217
0.40826
0.408413
0.408339
0.408381
0.408397
0.40832
0.408383
0.408438
0.408426
0.408421
0.408177
0.408257
0.408511
0.408377
0.408476
0.408617
0.408508
0.408508
0.408499
0.408347
0.408318
0.408345
0.408295
0.408263
0.408285
0.408294
0.408189
0.40811
0.408281
0.408455
0.40845
0.408446
0.40822
0.408293
0.408402
0.40838
0.408369
0.408238
0.408226
0.408143
0.408254
0.408365
0.408316
0.408146
0.382325
0.395758
0.404004
0.407683
0.408491
0.408396
0.408521
0.408667
0.408489
0.408563
0.408661
0.408617
0.408468
0.408489
0.408626
0.408651
0.408655
0.408462
0.408516
0.408602
0.408586
0.408542
0.408642
0.40877
0.408554
0.408626
0.408787
0.408678
0.408579
0.408679
0.408768
0.408582
0.408675
0.408759
0.408608
0.408619
0.408536
0.408499
0.408466
0.408292
0.40823
0.408259
0.408189
0.408115
0.408098
0.408024
0.408056
0.408362
0.408423
0.408336
0.408331
0.408326
0.408222
0.408187
0.408546
0.40878
0.408679
0.408758
0.408847
0.408833
0.408832
0.408665
0.408697
0.408731
0.408697
0.408695
0.408629
0.408467
0.40839
0.408391
0.40821
0.408274
0.408414
0.408423
0.408424
0.40822
0.408305
0.408369
0.408154
0.408159
0.408429
0.408468
0.408416
0.408238
0.408287
0.408424
0.408292
0.408291
0.408286
0.408138
0.382308
0.395808
0.403944
0.407592
0.408914
0.409339
0.409323
0.409267
0.409258
0.409226
0.409224
0.409196
0.409131
0.409092
0.409033
0.40908
0.409097
0.408903
0.408981
0.409043
0.408795
0.408858
0.408966
0.408898
0.408897
0.408904
0.40889
0.408677
0.408641
0.408721
0.408738
0.408715
0.408451
0.408461
0.408524
0.408529
0.408523
0.4083
0.408213
0.408217
0.40807
0.408059
0.408279
0.408332
0.408277
0.408121
0.408059
0.408236
0.408316
0.408223
0.408304
0.408334
0.408111
0.408195
0.408529
0.408436
0.408564
0.408673
0.408489
0.408588
0.408668
0.408479
0.408553
0.408594
0.408482
0.408472
0.408464
0.408299
0.408339
0.408421
0.408257
0.408298
0.408319
0.408281
0.408236
0.408112
0.408226
0.408394
0.408397
0.408396
0.408198
0.408177
0.408299
0.408227
0.408349
0.408435
0.408245
0.408351
0.408453
0.408179
0.382291
0.395816
0.403979
0.407625
0.408935
0.409342
0.409363
0.409344
0.409349
0.409275
0.409235
0.409236
0.409221
0.409152
0.409113
0.409115
0.409055
0.409087
0.409103
0.408933
0.409008
0.409076
0.409001
0.409004
0.408969
0.408939
0.4089
0.408829
0.408598
0.408658
0.408755
0.408478
0.408494
0.408593
0.408377
0.408315
0.408359
0.40821
0.408244
0.408389
0.408194
0.408195
0.408339
0.408275
0.408273
0.408292
0.408273
0.408333
0.408354
0.408308
0.408302
0.408161
0.408269
0.408576
0.408449
0.408566
0.408672
0.408667
0.408639
0.408624
0.408634
0.408507
0.408519
0.408508
0.408357
0.408418
0.408486
0.408271
0.40833
0.408543
0.40854
0.4085
0.408456
0.408265
0.408289
0.408427
0.408424
0.408421
0.408308
0.408294
0.408176
0.408285
0.40841
0.408407
0.408404
0.408162
0.408233
0.408409
0.408368
0.408213
0.382308
0.395809
0.403944
0.407592
0.408922
0.409263
0.409247
0.409257
0.409274
0.409201
0.409165
0.409161
0.409178
0.409065
0.409074
0.409087
0.408893
0.408969
0.409036
0.40879
0.408855
0.408978
0.408859
0.408849
0.408831
0.408668
0.408697
0.40882
0.408603
0.408553
0.408614
0.408466
0.408482
0.408656
0.408708
0.408668
0.408614
0.408607
0.408585
0.408514
0.408197
0.408171
0.408268
0.408051
0.408058
0.408174
0.407978
0.407969
0.4082
0.408291
0.40826
0.408235
0.408071
0.40814
0.408532
0.408457
0.40857
0.408708
0.408697
0.408737
0.40869
0.408675
0.408642
0.408644
0.408635
0.408452
0.408492
0.408545
0.408402
0.408419
0.40848
0.408476
0.408416
0.408391
0.40837
0.408246
0.408196
0.408354
0.408393
0.408344
0.408169
0.408205
0.40834
0.40815
0.408241
0.408347
0.408113
0.408161
0.408329
0.408102
0.382307
0.395816
0.403908
0.407723
0.408655
0.408666
0.408732
0.408759
0.408661
0.408738
0.408786
0.408705
0.408605
0.408618
0.40875
0.408749
0.408752
0.408725
0.40872
0.408534
0.408531
0.408889
0.409012
0.408971
0.40889
0.408818
0.408759
0.40856
0.408619
0.408752
0.408482
0.408469
0.408571
0.4084
0.408354
0.408402
0.408338
0.408334
0.408325
0.408167
0.408203
0.408315
0.408205
0.408196
0.408216
0.408186
0.408171
0.408179
0.40804
0.408108
0.408631
0.409087
0.409086
0.409031
0.409031
0.409008
0.408969
0.408937
0.408929
0.408797
0.408841
0.40888
0.408767
0.408771
0.408739
0.408732
0.408713
0.40869
0.408702
0.408716
0.408698
0.408463
0.408492
0.408556
0.408524
0.408493
0.40843
0.408377
0.40839
0.408393
0.408186
0.408255
0.408327
0.408113
0.408166
0.40834
0.408223
0.408214
0.40821
0.408084
0.382283
0.395809
0.404059
0.407589
0.408301
0.408303
0.408211
0.408247
0.4084
0.408311
0.408255
0.408264
0.408209
0.408342
0.408552
0.408536
0.408535
0.408414
0.40857
0.408772
0.408923
0.409011
0.408873
0.408878
0.408864
0.408706
0.408762
0.408897
0.408672
0.408609
0.408653
0.408511
0.408566
0.408708
0.408474
0.408529
0.408641
0.408627
0.408616
0.408354
0.408408
0.408495
0.408375
0.408366
0.40826
0.40832
0.408347
0.408297
0.408144
0.408167
0.408228
0.407994
0.408006
0.408158
0.408183
0.408208
0.408192
0.408162
0.407959
0.408008
0.408199
0.408001
0.408021
0.408173
0.408122
0.40816
0.408166
0.408046
0.408152
0.408386
0.408368
0.408317
0.408323
0.408338
0.408237
0.40816
0.408296
0.408455
0.408443
0.408437
0.408315
0.40829
0.408138
0.408229
0.408336
0.408103
0.408112
0.408258
0.40826
0.408204
0.382291
0.395816
0.40398
0.407617
0.408986
0.409145
0.4091
0.409129
0.409061
0.409022
0.408999
0.409048
0.409076
0.409029
0.408872
0.40892
0.408974
0.408964
0.408928
0.408927
0.408983
0.408992
0.408993
0.40884
0.408792
0.408786
0.408784
0.408628
0.40863
0.408735
0.408732
0.408633
0.408665
0.408676
0.408651
0.408636
0.408344
0.408377
0.408417
0.408251
0.408238
0.408232
0.408185
0.40806
0.408028
0.407998
0.408158
0.408292
0.408221
0.408224
0.408165
0.408356
0.408948
0.409091
0.409085
0.409104
0.409047
0.409009
0.408973
0.40895
0.408923
0.408866
0.408863
0.408895
0.408896
0.408697
0.40873
0.408781
0.408627
0.408727
0.408796
0.408739
0.408756
0.408774
0.408779
0.408686
0.408637
0.408583
0.408476
0.408386
0.408331
0.408169
0.408254
0.40843
0.408404
0.408396
0.408167
0.40824
0.408347
0.408097
0.382291
0.395816
0.403979
0.407625
0.408938
0.409307
0.409293
0.409232
0.409259
0.40927
0.409236
0.409207
0.409141
0.409104
0.40905
0.409101
0.409123
0.408934
0.409017
0.409089
0.40907
0.409016
0.409045
0.409092
0.409068
0.409064
0.408987
0.408947
0.408678
0.408717
0.40881
0.408545
0.408575
0.408712
0.408519
0.408476
0.408529
0.408551
0.408511
0.408575
0.408625
0.408593
0.408583
0.408377
0.408447
0.408497
0.408493
0.408493
0.408449
0.40842
0.408234
0.408395
0.408968
0.409131
0.409104
0.409116
0.40913
0.409053
0.409026
0.409038
0.40902
0.409039
0.408987
0.408943
0.408801
0.408839
0.408883
0.408765
0.408843
0.408882
0.408862
0.40886
0.408802
0.408797
0.408733
0.408718
0.408658
0.408677
0.408617
0.408602
0.408577
0.408362
0.408362
0.408445
0.408221
0.408241
0.40843
0.408438
0.408419
0.408178
0.382273
0.39581
0.404109
0.407551
0.408297
0.408548
0.408551
0.408279
0.408296
0.40843
0.408425
0.408426
0.408315
0.408615
0.409004
0.408876
0.408944
0.409176
0.40919
0.409139
0.408952
0.409016
0.409095
0.408831
0.40888
0.408995
0.40891
0.408925
0.408896
0.408836
0.408574
0.408565
0.408637
0.408463
0.408395
0.408432
0.408434
0.408297
0.408369
0.408533
0.408466
0.408461
0.408412
0.408393
0.408401
0.408414
0.408377
0.408306
0.40837
0.408401
0.408169
0.408232
0.408286
0.408238
0.408156
0.408231
0.4085
0.408394
0.408384
0.408371
0.408379
0.408302
0.408403
0.40853
0.408485
0.408479
0.408335
0.408425
0.408567
0.408545
0.408552
0.408496
0.408309
0.408323
0.408444
0.408431
0.40835
0.408416
0.408534
0.408283
0.408339
0.408452
0.408205
0.408267
0.408361
0.408342
0.408339
0.408246
0.408223
0.408059
0.38229
0.395821
0.403957
0.407706
0.40875
0.408732
0.408858
0.40895
0.408819
0.408897
0.408985
0.408976
0.408975
0.408873
0.408838
0.408788
0.408627
0.408713
0.408822
0.408806
0.408816
0.408692
0.408801
0.408858
0.40872
0.408823
0.408927
0.408681
0.40862
0.408688
0.408694
0.408561
0.408607
0.408623
0.408593
0.408577
0.408389
0.408286
0.408224
0.408045
0.408108
0.408257
0.408003
0.408013
0.408144
0.408052
0.407983
0.407974
0.407908
0.408006
0.408259
0.408251
0.408225
0.408001
0.407967
0.408143
0.408167
0.408108
0.408214
0.408318
0.408314
0.408314
0.408239
0.40822
0.408001
0.408012
0.408186
0.408024
0.408066
0.408266
0.408295
0.408279
0.40819
0.408226
0.408234
0.408187
0.408241
0.40826
0.408077
0.408032
0.408272
0.408406
0.408351
0.40819
0.408128
0.408197
0.408044
0.408069
0.408219
0.408043
0.382291
0.395816
0.403979
0.407623
0.408961
0.409204
0.409144
0.409141
0.409137
0.409148
0.409149
0.409165
0.409145
0.40911
0.409052
0.409013
0.40902
0.409022
0.40893
0.408969
0.409082
0.409032
0.40907
0.409027
0.408945
0.408916
0.408844
0.408604
0.408644
0.408775
0.408499
0.408491
0.408571
0.408507
0.408355
0.40841
0.408512
0.408466
0.408392
0.408228
0.408258
0.408292
0.408231
0.40807
0.408005
0.4081
0.408034
0.40816
0.40832
0.408304
0.408305
0.408213
0.408172
0.408087
0.408002
0.407995
0.407945
0.408087
0.408255
0.408136
0.408056
0.408209
0.408354
0.408327
0.408294
0.408164
0.408134
0.40801
0.408069
0.408235
0.408112
0.408059
0.408247
0.408361
0.408309
0.408174
0.408126
0.408197
0.40805
0.408069
0.408221
0.408088
0.408187
0.408331
0.408291
0.408287
0.408185
0.408283
0.408331
0.40818
0.382291
0.395816
0.403979
0.407625
0.408935
0.409343
0.409363
0.409345
0.409357
0.409284
0.409245
0.409245
0.409224
0.409161
0.409124
0.409072
0.409129
0.409153
0.408967
0.40905
0.409132
0.408922
0.409006
0.409164
0.409115
0.409114
0.409092
0.408974
0.40892
0.408885
0.408854
0.408715
0.408657
0.408686
0.408481
0.408534
0.408638
0.408614
0.408604
0.408461
0.408349
0.408433
0.408491
0.408438
0.408267
0.408289
0.408337
0.408308
0.408301
0.408102
0.408157
0.408664
0.409084
0.409158
0.409146
0.409163
0.409132
0.409052
0.409054
0.409074
0.408999
0.408957
0.408919
0.408909
0.408772
0.408801
0.408845
0.408693
0.408779
0.408826
0.408781
0.408813
0.408743
0.408716
0.4087
0.40851
0.408533
0.40857
0.408535
0.408501
0.408445
0.408404
0.408342
0.408403
0.408435
0.408378
0.408195
0.408134
0.408197
0.408062
0.382291
0.395816
0.403979
0.407625
0.408939
0.409309
0.409295
0.409235
0.409262
0.409273
0.409238
0.409209
0.409142
0.409106
0.409053
0.409103
0.409125
0.408936
0.409018
0.409093
0.409072
0.409009
0.408991
0.409029
0.409011
0.408939
0.408837
0.408809
0.408629
0.408639
0.408751
0.40855
0.408583
0.408709
0.408518
0.408476
0.408529
0.408553
0.408516
0.40858
0.408627
0.408594
0.408585
0.408378
0.408447
0.408497
0.408493
0.408493
0.408455
0.408441
0.408259
0.408412
0.408921
0.408929
0.408924
0.408905
0.408914
0.408927
0.408855
0.408862
0.408767
0.408816
0.408848
0.408721
0.408775
0.408795
0.40877
0.40878
0.408728
0.408537
0.40859
0.408646
0.40861
0.40858
0.408475
0.408414
0.408231
0.408284
0.408463
0.408315
0.408396
0.408447
0.408302
0.408382
0.408415
0.408365
0.408211
0.408235
0.408343
0.408096
0.382291
0.395816
0.403981
0.407616
0.408985
0.409145
0.4091
0.40913
0.409063
0.409023
0.409035
0.409067
0.408988
0.40902
0.409094
0.40905
0.408892
0.408933
0.408979
0.408937
0.408938
0.408904
0.408893
0.408727
0.408776
0.408828
0.40869
0.408809
0.408918
0.408905
0.408901
0.408833
0.408838
0.408803
0.408739
0.408528
0.408432
0.408375
0.408217
0.408298
0.40836
0.408326
0.408304
0.408145
0.408131
0.408035
0.408149
0.408289
0.408266
0.408264
0.408158
0.408347
0.408975
0.408994
0.408883
0.408877
0.408922
0.408926
0.408942
0.408933
0.40873
0.408769
0.40887
0.408883
0.408839
0.408589
0.408637
0.408708
0.408496
0.408583
0.408667
0.40867
0.40867
0.408408
0.408441
0.408557
0.408569
0.408571
0.408497
0.408494
0.40844
0.408272
0.408304
0.408428
0.408189
0.40821
0.408418
0.408422
0.408378
0.408146
0.382283
0.395809
0.404063
0.407571
0.408368
0.408434
0.408392
0.408221
0.408319
0.408542
0.408554
0.408556
0.408372
0.408454
0.408612
0.40854
0.408527
0.408501
0.408493
0.408562
0.408561
0.408735
0.408964
0.408755
0.408845
0.408972
0.408721
0.408758
0.408886
0.408898
0.408891
0.408603
0.408619
0.408729
0.408605
0.408507
0.408583
0.408711
0.408682
0.408594
0.408608
0.408623
0.408571
0.408554
0.408558
0.408566
0.408533
0.408539
0.408506
0.408429
0.408396
0.408359
0.408277
0.408002
0.407988
0.408152
0.408141
0.408062
0.408141
0.408326
0.408324
0.40832
0.408115
0.408227
0.408488
0.408483
0.408445
0.408442
0.408291
0.408262
0.408523
0.408625
0.408599
0.408584
0.408545
0.408492
0.408495
0.408453
0.408424
0.408432
0.40838
0.408259
0.408199
0.408409
0.408537
0.408489
0.408311
0.408313
0.408366
0.408108
0.382326
0.395753
0.404021
0.407663
0.40846
0.408377
0.408507
0.408657
0.408535
0.40856
0.408516
0.408389
0.40836
0.408576
0.408664
0.408607
0.408451
0.408389
0.408517
0.408498
0.408657
0.408804
0.408795
0.408793
0.408592
0.408674
0.408841
0.408625
0.408564
0.40862
0.408565
0.408518
0.408649
0.408707
0.408652
0.408482
0.408522
0.408588
0.408559
0.408544
0.408391
0.408339
0.408287
0.408251
0.408257
0.408269
0.408238
0.408102
0.408057
0.408175
0.408083
0.408189
0.408371
0.40835
0.408266
0.408298
0.408538
0.408436
0.408553
0.408632
0.408598
0.408495
0.408531
0.408579
0.408505
0.408519
0.408499
0.408522
0.408473
0.408443
0.408458
0.408478
0.408425
0.408245
0.40829
0.408433
0.408425
0.408421
0.408306
0.408277
0.408108
0.408193
0.408306
0.408286
0.408281
0.408087
0.40817
0.408309
0.408267
0.408122
0.382324
0.395759
0.404005
0.407682
0.408491
0.408392
0.40851
0.40866
0.408504
0.408493
0.408489
0.40839
0.408342
0.408557
0.40867
0.408632
0.408573
0.40842
0.4086
0.40879
0.408751
0.408642
0.408602
0.408673
0.408514
0.408518
0.408662
0.408515
0.408523
0.408653
0.408495
0.40857
0.408695
0.408667
0.408656
0.408429
0.408388
0.408456
0.408531
0.408489
0.408417
0.408384
0.40809
0.408049
0.408231
0.408272
0.408231
0.408075
0.408023
0.408393
0.408698
0.408535
0.408619
0.408745
0.408735
0.408732
0.408524
0.408593
0.408687
0.408689
0.40869
0.408628
0.408618
0.408453
0.40854
0.408604
0.408473
0.408544
0.408581
0.408525
0.408332
0.408357
0.40844
0.408335
0.408389
0.40842
0.40837
0.408268
0.408153
0.408127
0.408124
0.408151
0.40815
0.408153
0.408017
0.408066
0.408329
0.408336
0.408314
0.408081
0.382291
0.395816
0.403979
0.407625
0.408936
0.409305
0.409298
0.409274
0.409266
0.409236
0.409196
0.409173
0.409184
0.409148
0.409112
0.409113
0.409053
0.409087
0.409102
0.408934
0.409009
0.409076
0.408962
0.408954
0.408937
0.408761
0.40873
0.408795
0.408597
0.4086
0.408724
0.408713
0.408612
0.408636
0.408665
0.408476
0.408569
0.408699
0.408456
0.408497
0.408638
0.408473
0.408556
0.408673
0.408552
0.408627
0.408656
0.408604
0.408643
0.408605
0.408541
0.408261
0.408224
0.408454
0.408403
0.408537
0.408653
0.408547
0.408549
0.408502
0.408494
0.408478
0.408503
0.408494
0.408349
0.408411
0.408477
0.408264
0.408326
0.408543
0.40854
0.4085
0.408456
0.408265
0.40829
0.408428
0.40844
0.408439
0.408195
0.408255
0.408451
0.408317
0.408397
0.408431
0.408383
0.408238
0.408245
0.408368
0.408351
0.408204
0.382309
0.395808
0.403943
0.407593
0.408918
0.409334
0.40936
0.409341
0.409353
0.40928
0.409241
0.409254
0.409278
0.409236
0.409203
0.409184
0.409152
0.409145
0.409097
0.409079
0.409078
0.408966
0.408976
0.409064
0.409019
0.409018
0.409015
0.409024
0.408992
0.408812
0.408679
0.408657
0.408651
0.40855
0.408616
0.408749
0.408744
0.408737
0.408487
0.408527
0.408647
0.408588
0.408571
0.408485
0.408506
0.408509
0.408391
0.408448
0.408553
0.408565
0.408521
0.408463
0.408328
0.408285
0.40848
0.408586
0.408566
0.408565
0.408419
0.408511
0.4087
0.408545
0.408632
0.408754
0.408727
0.408768
0.408721
0.408691
0.408669
0.408657
0.408473
0.40852
0.408577
0.408571
0.408569
0.408301
0.408286
0.408424
0.408453
0.408414
0.408181
0.408204
0.408353
0.408153
0.408217
0.408378
0.408141
0.40816
0.408301
0.408098
0.382307
0.395815
0.40391
0.407708
0.40876
0.408852
0.408796
0.408583
0.408636
0.408757
0.40854
0.408622
0.408701
0.408478
0.408562
0.408659
0.408604
0.40851
0.408569
0.408761
0.408749
0.408742
0.408657
0.408605
0.408442
0.408475
0.408644
0.408482
0.408553
0.40871
0.408666
0.408658
0.408512
0.408611
0.408678
0.408624
0.408528
0.408411
0.408345
0.408138
0.408107
0.408218
0.408097
0.408193
0.408319
0.408272
0.408291
0.408215
0.408286
0.408386
0.408358
0.408343
0.40819
0.408301
0.408597
0.408443
0.408536
0.408681
0.408664
0.40866
0.408555
0.408538
0.40844
0.408532
0.408689
0.408591
0.408604
0.408589
0.408412
0.408419
0.408504
0.408433
0.408444
0.408453
0.408388
0.408435
0.408463
0.408234
0.408309
0.408444
0.408427
0.408436
0.408387
0.408333
0.408131
0.408164
0.408436
0.408448
0.40839
0.408153
0.382291
0.395816
0.403979
0.407624
0.408934
0.409302
0.409296
0.409271
0.409259
0.409228
0.409192
0.409166
0.409176
0.409139
0.409131
0.409163
0.409162
0.409197
0.409165
0.409044
0.409066
0.409087
0.409028
0.408898
0.408802
0.408771
0.408614
0.408698
0.408822
0.408811
0.408808
0.408736
0.408692
0.408442
0.408373
0.408435
0.408274
0.408308
0.408454
0.408256
0.408296
0.408454
0.408252
0.408315
0.408475
0.408272
0.408343
0.408492
0.408331
0.408428
0.408488
0.408467
0.408461
0.408269
0.408342
0.408497
0.408459
0.40832
0.408318
0.408456
0.408458
0.408371
0.408405
0.408492
0.408283
0.408363
0.408479
0.40827
0.408357
0.408541
0.408524
0.408531
0.408475
0.408286
0.408261
0.408373
0.408408
0.408406
0.408187
0.40827
0.408399
0.40838
0.408369
0.408238
0.408225
0.408142
0.408253
0.408363
0.408315
0.408144
0.382259
0.395845
0.404087
0.407552
0.408215
0.408216
0.408143
0.408133
0.408351
0.408433
0.408394
0.408337
0.408222
0.4084
0.408846
0.408798
0.408797
0.408757
0.4089
0.408987
0.408806
0.408898
0.409028
0.409045
0.409002
0.408846
0.40884
0.408773
0.408541
0.408563
0.408725
0.408712
0.408609
0.4086
0.408681
0.408783
0.408793
0.408536
0.408596
0.408705
0.408647
0.408634
0.408435
0.40851
0.408589
0.408552
0.408497
0.408431
0.40836
0.408124
0.408131
0.408272
0.408142
0.408247
0.408323
0.408283