/*--------------------------------*- C++ -*----------------------------------*\
  =========                 |
  \\      /  F ield         | OpenFOAM: The Open Source CFD Toolbox
   \\    /   O peration     | Website:  https://openfoam.org
    \\  /    A nd           | Version:  11
     \\/     M anipulation  |
\*---------------------------------------------------------------------------*/
FoamFile
{
    format      ascii;
    class       volScalarField;
    location    "0.04";
    object      nut;
}
// * * * * * * * * * * * * * * * * * * * * * * * * * * * * * * * * * * * * * //

dimensions      [0 2 -1 0 0 0 0];

internalField   nonuniform List<scalar> 
287084
(
0.000838112
0.000868963
0.000888521
0.0008973
0.000899452
0.000899812
0.000899887
0.000899611
0.000899817
0.000900328
0.000900255
0.000900142
0.000899978
0.000899762
0.000899618
0.000899416
0.000899659
0.000900111
0.000899665
0.000899836
0.000900021
0.000899774
0.000899765
0.00089967
0.00089956
0.000899242
0.000899389
0.000899708
0.000899641
0.000899542
0.000899471
0.000899497
0.000899182
0.000899252
0.000899816
0.000900108
0.000900177
0.000900333
0.000900323
0.000899954
0.000900217
0.000900644
0.000900182
0.000900258
0.000900624
0.000900545
0.000900475
0.000900865
0.000901157
0.000900903
0.000901038
0.000901083
0.000901074
0.000901072
0.000900613
0.000900765
0.000901063
0.00090096
0.000901004
0.000900838
0.00090083
0.000900569
0.000900742
0.000901127
0.000901135
0.000901124
0.000900579
0.000900736
0.000901066
0.000900933
0.00090091
0.000900649
0.000900845
0.000901279
0.000901257
0.000901304
0.000901187
0.000900706
0.000900758
0.000901047
0.000901082
0.000901068
0.000900834
0.000900771
0.000900633
0.000900229
0.000900399
0.000900818
0.000900763
0.000900561
0.0011846
0.00122667
0.00125296
0.00126456
0.00126706
0.00126711
0.00126718
0.00126709
0.00126737
0.00126745
0.00126725
0.00126671
0.0012666
0.00126682
0.00126622
0.00126602
0.00126639
0.00126641
0.00126593
0.00126596
0.00126662
0.00126649
0.00126663
0.00126683
0.00126668
0.00126628
0.00126657
0.00126696
0.00126625
0.00126654
0.00126691
0.0012662
0.00126627
0.0012668
0.00126678
0.00126674
0.00126685
0.00126693
0.00126757
0.00126809
0.0012682
0.00126833
0.00126785
0.00126826
0.00126866
0.00126863
0.00126848
0.00126828
0.0012682
0.00126811
0.00126794
0.00126828
0.0012688
0.00126871
0.00126825
0.00126833
0.00126881
0.0012682
0.00126845
0.00126893
0.00126879
0.00126881
0.00126868
0.00126866
0.0012682
0.00126847
0.00126893
0.0012688
0.00126856
0.00126839
0.00126891
0.00126924
0.00126906
0.00126836
0.00126835
0.00126879
0.00126836
0.00126865
0.00126883
0.0012685
0.00126854
0.00126851
0.00126804
0.00126819
0.00126836
0.00126822
0.001268
0.00126782
0.00126806
0.00126762
0.00118467
0.00122682
0.00125315
0.00126461
0.00126724
0.00126794
0.00126788
0.00126725
0.00126731
0.00126778
0.00126774
0.00126769
0.00126749
0.00126733
0.00126693
0.00126702
0.00126726
0.00126704
0.00126674
0.00126625
0.00126625
0.00126619
0.00126651
0.00126709
0.00126715
0.00126701
0.00126631
0.00126656
0.00126695
0.00126627
0.00126651
0.00126715
0.00126661
0.00126687
0.00126755
0.00126712
0.00126749
0.00126822
0.00126823
0.00126844
0.00126849
0.00126828
0.00126848
0.00126875
0.00126876
0.00126857
0.00126877
0.00126905
0.00126912
0.00126917
0.00126842
0.0012686
0.00126887
0.00126825
0.00126855
0.00126904
0.00126826
0.00126833
0.00126876
0.00126882
0.00126883
0.0012684
0.00126838
0.00126825
0.00126872
0.00126913
0.00126902
0.00126869
0.00126864
0.00126886
0.00126879
0.00126875
0.00126808
0.0012683
0.00126869
0.00126796
0.00126799
0.00126858
0.00126844
0.00126845
0.00126824
0.0012686
0.00126885
0.00126812
0.00126833
0.00126872
0.00126794
0.00126812
0.00126847
0.00126767
0.00118465
0.00122707
0.00125317
0.00126484
0.00126792
0.00126847
0.00126832
0.00126832
0.00126804
0.00126801
0.00126799
0.00126791
0.00126783
0.00126715
0.00126735
0.00126752
0.00126727
0.00126689
0.00126644
0.00126642
0.0012664
0.00126634
0.00126607
0.00126605
0.00126613
0.00126614
0.00126574
0.00126572
0.0012666
0.00126697
0.00126691
0.00126665
0.00126648
0.00126667
0.00126666
0.00126675
0.00126703
0.00126697
0.00126748
0.00126825
0.0012682
0.00126841
0.0012683
0.00126849
0.00126864
0.00126863
0.00126866
0.00126828
0.00126842
0.00126874
0.00126863
0.00126867
0.00126863
0.00126812
0.00126832
0.00126895
0.00126832
0.00126855
0.00126902
0.00126898
0.00126896
0.00126833
0.00126868
0.00126926
0.001269
0.00126907
0.00126912
0.00126897
0.00126914
0.00126918
0.00126844
0.00126863
0.00126897
0.00126831
0.00126842
0.00126902
0.00126888
0.00126913
0.00126922
0.00126902
0.00126833
0.00126823
0.00126875
0.00126884
0.0012687
0.00126801
0.00126818
0.00126855
0.00126844
0.00126808
0.00118467
0.00122713
0.00125323
0.00126502
0.00126783
0.00126788
0.00126761
0.00126782
0.00126813
0.0012674
0.00126758
0.00126774
0.00126758
0.00126746
0.00126682
0.0012669
0.00126686
0.00126667
0.00126657
0.00126636
0.00126598
0.00126625
0.00126689
0.0012665
0.00126656
0.00126642
0.00126594
0.00126617
0.00126672
0.00126654
0.00126648
0.00126654
0.00126642
0.00126692
0.00126774
0.00126733
0.0012678
0.00126825
0.00126845
0.00126862
0.00126792
0.00126816
0.00126856
0.00126871
0.00126883
0.00126814
0.00126841
0.00126882
0.00126818
0.00126847
0.001269
0.00126849
0.00126829
0.00126837
0.00126814
0.00126848
0.00126912
0.0012688
0.00126888
0.00126874
0.00126827
0.00126843
0.00126897
0.00126831
0.00126847
0.00126893
0.00126833
0.00126821
0.00126845
0.00126811
0.00126836
0.00126909
0.00126918
0.00126904
0.0012683
0.00126853
0.00126895
0.00126849
0.00126846
0.00126842
0.00126798
0.00126818
0.00126876
0.00126813
0.0012684
0.0012688
0.00126811
0.00126836
0.00126878
0.00126793
0.00118462
0.00122725
0.00125343
0.00126463
0.00126689
0.00126647
0.00126656
0.00126756
0.0012676
0.00126733
0.00126671
0.00126643
0.00126674
0.00126647
0.00126676
0.00126724
0.00126671
0.00126662
0.00126649
0.00126645
0.00126622
0.00126566
0.0012658
0.00126627
0.00126588
0.00126562
0.00126605
0.00126642
0.00126637
0.00126607
0.00126625
0.00126698
0.00126701
0.00126726
0.0012674
0.00126701
0.0012671
0.00126754
0.00126726
0.00126734
0.00126775
0.00126751
0.00126782
0.0012685
0.00126804
0.00126829
0.00126894
0.00126874
0.0012689
0.00126881
0.00126836
0.00126842
0.00126918
0.00126927
0.00126918
0.00126914
0.00126857
0.00126869
0.001269
0.00126894
0.00126891
0.00126825
0.00126851
0.00126907
0.00126892
0.00126894
0.00126896
0.00126901
0.00126886
0.00126843
0.00126875
0.00126924
0.00126859
0.00126885
0.00126913
0.00126836
0.00126853
0.00126897
0.00126824
0.00126838
0.00126884
0.00126827
0.00126857
0.00126894
0.00126873
0.00126876
0.00126871
0.00126876
0.0012687
0.00126806
0.00118453
0.0012274
0.00125343
0.00126479
0.00126719
0.00126674
0.00126699
0.00126736
0.0012672
0.00126701
0.00126664
0.00126786
0.00126868
0.0012681
0.00126794
0.00126827
0.00126828
0.00126801
0.00126789
0.00126764
0.00126756
0.00126743
0.00126681
0.00126689
0.00126704
0.00126696
0.00126698
0.0012665
0.00126665
0.00126678
0.00126648
0.0012669
0.00126741
0.00126681
0.00126707
0.00126774
0.00126736
0.00126774
0.00126856
0.0012687
0.00126875
0.00126826
0.00126864
0.00126918
0.00126912
0.00126921
0.00126892
0.00126912
0.00126921
0.00126911
0.0012687
0.00126894
0.0012692
0.00126873
0.00126848
0.00126888
0.00126916
0.00126906
0.00126898
0.00126856
0.0012684
0.00126799
0.00126829
0.00126881
0.00126877
0.00126875
0.00126859
0.00126854
0.00126792
0.00126819
0.00126866
0.00126805
0.0012679
0.00126845
0.00126888
0.00126871
0.00126806
0.00126803
0.00126854
0.00126821
0.00126857
0.00126887
0.00126817
0.00126838
0.00126882
0.00126855
0.0012687
0.00126875
0.0012686
0.00126788
0.00118465
0.00122727
0.00125323
0.00126491
0.00126911
0.00127012
0.00127003
0.00126998
0.0012699
0.00126969
0.00126945
0.00126925
0.00126888
0.00126867
0.00126859
0.00126834
0.00126827
0.00126837
0.00126826
0.00126802
0.00126795
0.00126763
0.00126677
0.00126678
0.00126695
0.00126689
0.00126691
0.00126676
0.00126675
0.0012661
0.00126633
0.00126705
0.00126658
0.00126691
0.00126762
0.00126776
0.00126771
0.00126822
0.00126894
0.00126907
0.00126925
0.00126879
0.00126918
0.00126966
0.00126967
0.0012697
0.00126957
0.00126971
0.0012696
0.0012699
0.0012702
0.00127008
0.0012701
0.00127012
0.00127003
0.00126989
0.00126977
0.00126964
0.00126942
0.00126871
0.00126887
0.00126935
0.00126898
0.001269
0.00126894
0.00126843
0.00126862
0.00126902
0.00126866
0.0012685
0.00126855
0.00126856
0.00126821
0.00126795
0.00126847
0.00126899
0.00126897
0.00126895
0.00126816
0.00126831
0.0012689
0.00126849
0.00126873
0.00126884
0.00126868
0.00126822
0.00126822
0.00126857
0.00126852
0.00126803
0.00118458
0.00122735
0.00125347
0.0012648
0.00126736
0.0012673
0.00126731
0.00126723
0.0012669
0.0012667
0.00126781
0.0012687
0.00126855
0.0012685
0.00126819
0.00126799
0.00126772
0.0012678
0.00126794
0.00126777
0.00126753
0.00126734
0.00126725
0.00126707
0.00126696
0.00126681
0.00126648
0.00126637
0.00126631
0.00126591
0.00126631
0.0012671
0.00126658
0.00126691
0.00126764
0.00126779
0.00126774
0.00126822
0.00126903
0.00126894
0.00126918
0.00126941
0.0012694
0.00126966
0.00126981
0.00126985
0.00126989
0.0012692
0.00126906
0.00126895
0.00126831
0.00126853
0.00126894
0.00126862
0.00126832
0.00126869
0.00126914
0.00126909
0.00126905
0.00126838
0.00126862
0.00126902
0.001269
0.00126898
0.00126826
0.00126849
0.0012691
0.00126862
0.00126892
0.00126913
0.001269
0.00126889
0.00126838
0.00126863
0.00126895
0.00126873
0.00126908
0.00126919
0.00126904
0.001269
0.00126837
0.00126856
0.00126904
0.00126872
0.00126879
0.00126865
0.00126852
0.00126856
0.00126836
0.00126767
0.00118451
0.0012274
0.00125373
0.00126433
0.00126729
0.00126751
0.00126732
0.0012668
0.00126711
0.00126763
0.00126753
0.0012674
0.00126658
0.00126676
0.00126715
0.00126699
0.00126682
0.0012663
0.0012661
0.00126557
0.0012658
0.00126615
0.00126581
0.00126551
0.00126579
0.00126616
0.00126561
0.001266
0.0012666
0.00126594
0.00126606
0.00126667
0.0012669
0.00126717
0.00126741
0.00126768
0.00126792
0.00126768
0.00126801
0.00126838
0.00126782
0.00126783
0.00126816
0.00126786
0.00126817
0.00126874
0.00126834
0.00126821
0.00126836
0.00126832
0.00126859
0.00126868
0.00126853
0.00126809
0.0012682
0.00126875
0.00126832
0.00126813
0.0012686
0.00126902
0.00126884
0.00126844
0.00126807
0.00126843
0.00126859
0.00126818
0.00126847
0.00126884
0.00126833
0.00126825
0.00126822
0.00126781
0.00126797
0.0012685
0.00126813
0.0012679
0.00126834
0.00126868
0.00126853
0.00126822
0.00126786
0.00126833
0.00126872
0.0012687
0.00126868
0.00126803
0.00126798
0.00126841
0.00126844
0.00126807
0.0011846
0.00122727
0.00125355
0.00126492
0.00126767
0.00126775
0.00126756
0.00126701
0.00126726
0.00126763
0.00126745
0.00126717
0.00126724
0.00126756
0.00126676
0.00126664
0.0012673
0.00126723
0.001267
0.00126685
0.00126646
0.00126604
0.00126603
0.00126601
0.00126587
0.00126558
0.0012657
0.00126608
0.00126609
0.00126575
0.00126608
0.00126692
0.00126722
0.00126751
0.0012676
0.00126742
0.00126746
0.00126776
0.00126754
0.00126766
0.00126808
0.00126786
0.00126819
0.00126887
0.0012684
0.00126848
0.00126936
0.00126958
0.00126944
0.00126881
0.00126889
0.00126923
0.00126861
0.0012685
0.00126882
0.00126912
0.00126899
0.00126841
0.00126866
0.00126889
0.00126875
0.00126853
0.00126818
0.00126856
0.00126869
0.00126856
0.00126841
0.00126808
0.00126837
0.00126862
0.00126853
0.00126834
0.00126873
0.00126916
0.00126845
0.00126866
0.00126913
0.00126854
0.00126882
0.0012691
0.00126849
0.00126879
0.00126908
0.00126824
0.00126824
0.0012686
0.00126835
0.00126834
0.0012682
0.00126772
0.00118457
0.00122737
0.00125341
0.00126502
0.00126767
0.00126762
0.00126784
0.00126782
0.00126762
0.00126724
0.00126772
0.00126866
0.00126813
0.00126832
0.0012684
0.00126792
0.0012678
0.0012676
0.00126699
0.00126702
0.00126705
0.00126629
0.00126649
0.00126678
0.0012667
0.0012667
0.00126651
0.00126647
0.00126567
0.00126582
0.00126639
0.00126592
0.00126616
0.00126681
0.00126657
0.00126683
0.00126749
0.00126733
0.00126772
0.00126846
0.00126809
0.00126841
0.00126909
0.00126895
0.00126915
0.0012691
0.00126866
0.00126882
0.00126954
0.00126973
0.00126964
0.0012695
0.00126931
0.00126905
0.00126888
0.00126846
0.00126876
0.00126895
0.00126838
0.00126821
0.00126888
0.00126921
0.00126885
0.00126901
0.00126906
0.00126887
0.00126841
0.00126825
0.00126892
0.00126908
0.00126887
0.00126831
0.00126812
0.00126852
0.0012686
0.00126845
0.00126785
0.00126784
0.00126863
0.00126888
0.00126871
0.0012681
0.00126834
0.00126868
0.00126862
0.0012686
0.00126795
0.00126825
0.00126867
0.00126784
0.00118466
0.00122729
0.00125326
0.00126494
0.00126925
0.00126986
0.00126957
0.00126955
0.00126929
0.00126924
0.00126912
0.00126861
0.00126862
0.00126861
0.00126818
0.00126813
0.00126799
0.00126773
0.00126757
0.00126726
0.00126716
0.00126704
0.0012664
0.00126646
0.00126652
0.0012664
0.00126629
0.00126613
0.00126611
0.0012657
0.00126615
0.00126696
0.00126719
0.00126719
0.00126761
0.00126848
0.00126881
0.00126906
0.00126859
0.00126898
0.00126957
0.00126972
0.00126986
0.00126932
0.00126968
0.00127006
0.00127006
0.00127009
0.00126988
0.00126996
0.0012699
0.00126973
0.00126913
0.00126901
0.0012694
0.00126949
0.00126933
0.00126868
0.00126878
0.00126946
0.00126948
0.00126941
0.00126866
0.00126882
0.0012693
0.00126853
0.00126869
0.0012691
0.00126873
0.00126856
0.00126859
0.00126859
0.00126824
0.00126797
0.00126848
0.00126901
0.00126897
0.00126894
0.00126823
0.00126844
0.00126877
0.00126874
0.00126873
0.00126803
0.00126826
0.00126891
0.00126858
0.00126862
0.00126855
0.00126794
0.00118454
0.00122735
0.00125369
0.0012647
0.00126685
0.00126652
0.0012668
0.00126754
0.00126707
0.00126695
0.00126678
0.00126623
0.0012661
0.00126639
0.00126605
0.00126627
0.00126633
0.00126598
0.00126568
0.00126544
0.00126521
0.00126554
0.00126617
0.00126558
0.00126585
0.00126608
0.00126582
0.00126598
0.0012661
0.00126578
0.00126604
0.00126673
0.00126707
0.00126712
0.00126763
0.00126842
0.00126853
0.00126884
0.0012692
0.00126954
0.0012697
0.00126982
0.0012698
0.00126991
0.00127002
0.0012701
0.00127005
0.00126995
0.00126982
0.00126973
0.00126905
0.00126916
0.00126967
0.00126962
0.00126954
0.00126876
0.00126874
0.00126931
0.00126943
0.00126922
0.00126848
0.00126844
0.00126889
0.00126893
0.0012689
0.00126829
0.00126857
0.00126894
0.00126889
0.00126886
0.0012681
0.00126801
0.00126849
0.00126825
0.00126856
0.00126921
0.00126867
0.00126898
0.00126927
0.0012691
0.00126918
0.00126913
0.00126897
0.00126828
0.00126819
0.00126883
0.00126913
0.00126907
0.00126902
0.00126823
0.00118466
0.00122728
0.00125325
0.00126495
0.00126915
0.00127015
0.00127004
0.00126997
0.00126972
0.00126959
0.00126948
0.00126911
0.00126894
0.00126859
0.00126829
0.00126812
0.00126789
0.00126716
0.00126708
0.00126703
0.00126679
0.00126649
0.0012664
0.00126644
0.0012663
0.00126631
0.00126613
0.00126614
0.00126609
0.00126623
0.00126633
0.001266
0.00126646
0.0012672
0.0012669
0.0012671
0.00126764
0.00126755
0.001268
0.00126876
0.0012684
0.00126873
0.00126941
0.00126963
0.00126973
0.00126906
0.00126925
0.00126976
0.00126954
0.00126967
0.00126971
0.00126945
0.00126961
0.00126975
0.00126967
0.00126961
0.00126881
0.00126901
0.00126976
0.0012693
0.00126956
0.00126995
0.00126957
0.00126953
0.00126946
0.00126895
0.00126883
0.00126888
0.00126869
0.00126856
0.0012686
0.0012686
0.00126825
0.00126798
0.00126849
0.00126901
0.00126898
0.00126895
0.00126823
0.00126844
0.00126877
0.00126869
0.00126864
0.00126822
0.00126818
0.00126792
0.00126825
0.00126859
0.00126843
0.00126787
0.00118476
0.00122711
0.00125333
0.00126513
0.00126775
0.00126745
0.00126775
0.00126809
0.00126741
0.00126749
0.00126763
0.00126731
0.00126665
0.00126651
0.00126672
0.00126657
0.00126636
0.00126553
0.00126548
0.00126553
0.00126528
0.00126497
0.00126514
0.00126545
0.00126473
0.00126496
0.00126555
0.00126535
0.00126526
0.00126585
0.00126646
0.00126627
0.00126697
0.00126766
0.00126763
0.00126808
0.00126823
0.00126849
0.00126872
0.00126847
0.00126853
0.00126884
0.00126879
0.0012687
0.00126875
0.00126859
0.00126873
0.00126971
0.00126991
0.00126963
0.0012696
0.00126955
0.00126919
0.00126904
0.00127011
0.00127079
0.00127042
0.00127062
0.00127084
0.00127075
0.0012707
0.00127013
0.00127019
0.00127025
0.0012701
0.00127005
0.00126981
0.00126927
0.001269
0.00126897
0.00126838
0.00126855
0.00126896
0.00126896
0.00126894
0.00126829
0.00126853
0.00126871
0.00126803
0.00126803
0.00126886
0.00126896
0.00126879
0.00126823
0.00126837
0.00126879
0.00126837
0.00126836
0.00126834
0.00126785
0.00118471
0.00122726
0.00125314
0.00126485
0.00126907
0.00127037
0.00127023
0.00126994
0.00126978
0.00126953
0.00126935
0.00126907
0.00126866
0.00126833
0.00126792
0.00126783
0.00126764
0.0012668
0.0012668
0.00126676
0.00126579
0.0012658
0.00126599
0.00126568
0.00126562
0.00126567
0.00126571
0.00126521
0.00126533
0.00126588
0.00126629
0.00126663
0.00126626
0.00126675
0.0012674
0.00126787
0.00126827
0.00126797
0.00126805
0.00126836
0.00126817
0.00126835
0.00126921
0.0012695
0.00126943
0.00126901
0.00126886
0.00126943
0.00126968
0.00126937
0.0012696
0.00126965
0.00126892
0.00126913
0.00127011
0.00126977
0.00127011
0.0012704
0.00126977
0.00127002
0.00127022
0.00126958
0.00126976
0.00126984
0.00126945
0.00126938
0.00126931
0.00126877
0.00126885
0.00126908
0.00126853
0.00126863
0.00126867
0.00126853
0.00126837
0.00126796
0.00126829
0.0012688
0.00126879
0.00126877
0.00126814
0.00126806
0.00126843
0.0012682
0.00126857
0.00126883
0.00126823
0.00126855
0.00126886
0.00126798
0.00118466
0.00122728
0.00125324
0.00126495
0.00126913
0.00127037
0.00127035
0.00127017
0.00127004
0.00126965
0.00126935
0.00126916
0.0012689
0.00126846
0.0012681
0.00126786
0.00126742
0.00126727
0.00126707
0.0012663
0.00126631
0.00126632
0.00126594
0.00126584
0.00126569
0.00126562
0.00126559
0.00126555
0.00126509
0.0012656
0.00126629
0.00126586
0.00126638
0.00126718
0.00126699
0.00126727
0.00126785
0.00126779
0.00126825
0.00126902
0.00126868
0.0012689
0.00126952
0.00126945
0.00126954
0.00126966
0.00126964
0.00126983
0.00126989
0.00126973
0.00126967
0.00126919
0.00126948
0.00127038
0.00126992
0.00127023
0.0012705
0.00127042
0.00127027
0.00127017
0.00127014
0.00126969
0.00126968
0.0012696
0.00126908
0.00126923
0.0012694
0.00126869
0.00126884
0.00126946
0.00126942
0.00126927
0.0012691
0.00126848
0.00126853
0.00126894
0.00126891
0.00126889
0.00126851
0.00126846
0.00126807
0.0012684
0.00126878
0.00126876
0.00126873
0.00126797
0.00126818
0.00126872
0.00126859
0.00126808
0.00118471
0.00122726
0.00125314
0.00126484
0.00126908
0.00127012
0.00126997
0.00126988
0.00126979
0.00126939
0.0012691
0.00126889
0.00126872
0.00126814
0.00126792
0.0012677
0.00126683
0.00126681
0.00126675
0.00126573
0.00126571
0.00126588
0.00126535
0.00126521
0.00126511
0.00126463
0.00126483
0.0012654
0.001265
0.00126519
0.00126579
0.00126579
0.00126634
0.00126739
0.00126806
0.00126843
0.00126872
0.00126912
0.00126942
0.00126952
0.0012688
0.00126894
0.00126941
0.00126887
0.00126898
0.0012694
0.00126882
0.0012688
0.0012695
0.00126976
0.00126962
0.00126949
0.00126892
0.00126908
0.00127023
0.00126994
0.00127022
0.00127059
0.00127049
0.00127055
0.00127035
0.00127024
0.00127009
0.00127004
0.00126996
0.00126935
0.00126943
0.00126955
0.00126907
0.00126909
0.00126925
0.0012692
0.00126899
0.00126888
0.00126879
0.00126838
0.00126821
0.00126868
0.00126878
0.00126861
0.00126806
0.00126815
0.00126856
0.00126796
0.00126823
0.00126856
0.00126782
0.00126796
0.00126848
0.00126774
0.00118471
0.00122728
0.00125302
0.00126525
0.00126825
0.00126825
0.00126837
0.00126832
0.00126787
0.00126794
0.0012679
0.00126744
0.0012669
0.0012667
0.00126685
0.00126658
0.00126632
0.00126596
0.00126567
0.00126484
0.00126458
0.00126549
0.0012657
0.00126546
0.00126516
0.00126497
0.0012649
0.00126449
0.00126496
0.00126574
0.00126533
0.00126578
0.00126661
0.00126661
0.001267
0.00126766
0.00126793
0.00126835
0.0012687
0.00126854
0.00126892
0.00126949
0.00126932
0.00126942
0.00126957
0.00126953
0.00126951
0.00126953
0.00126908
0.00126926
0.00127084
0.0012722
0.00127214
0.0012719
0.00127183
0.00127169
0.0012715
0.00127133
0.00127124
0.00127076
0.00127084
0.0012709
0.00127049
0.00127045
0.0012703
0.00127023
0.00127013
0.00127001
0.00127001
0.00127002
0.00126993
0.00126917
0.00126923
0.0012694
0.00126928
0.00126916
0.00126894
0.00126876
0.00126878
0.00126877
0.00126811
0.00126831
0.00126852
0.00126785
0.001268
0.00126854
0.00126816
0.00126813
0.00126811
0.00126769
0.00118463
0.00122726
0.00125349
0.00126482
0.00126714
0.00126712
0.00126674
0.00126673
0.00126705
0.0012666
0.00126623
0.00126605
0.00126564
0.0012658
0.00126619
0.00126587
0.00126559
0.00126492
0.00126512
0.00126548
0.0012657
0.00126575
0.00126515
0.00126505
0.00126496
0.00126451
0.0012648
0.00126544
0.00126504
0.00126523
0.00126582
0.00126589
0.0012666
0.00126759
0.00126741
0.0012681
0.00126894
0.00126934
0.00126969
0.00126921
0.00126965
0.00127014
0.00126994
0.00127004
0.00126979
0.00127003
0.00127013
0.00126997
0.00126947
0.00126951
0.00126964
0.00126885
0.00126882
0.00126923
0.00126923
0.00126924
0.00126912
0.00126895
0.00126825
0.00126833
0.00126886
0.00126818
0.00126819
0.00126861
0.0012684
0.00126846
0.00126844
0.00126802
0.00126831
0.001269
0.00126891
0.00126872
0.00126871
0.00126873
0.00126839
0.00126812
0.00126852
0.001269
0.00126894
0.00126891
0.00126851
0.00126842
0.00126794
0.00126821
0.00126853
0.0012678
0.00126782
0.00126827
0.00126826
0.00126806
0.00118466
0.00122728
0.00125324
0.00126491
0.00126926
0.00126973
0.00126949
0.00126945
0.00126909
0.00126879
0.00126852
0.00126845
0.0012683
0.0012679
0.00126714
0.00126701
0.00126689
0.00126656
0.00126616
0.00126588
0.00126579
0.0012656
0.00126543
0.00126484
0.00126464
0.00126466
0.00126479
0.00126453
0.00126485
0.00126557
0.00126603
0.00126625
0.0012669
0.0012675
0.00126799
0.00126848
0.00126807
0.00126862
0.00126914
0.00126896
0.0012692
0.0012694
0.00126942
0.00126916
0.00126914
0.0012691
0.00126961
0.00127002
0.00126977
0.00126973
0.00126949
0.00127003
0.0012718
0.00127217
0.00127207
0.00127205
0.0012718
0.00127161
0.00127142
0.00127128
0.00127113
0.00127089
0.00127082
0.00127086
0.00127081
0.00127014
0.0012702
0.00127032
0.00126979
0.00127007
0.00127025
0.00127004
0.00127006
0.00127009
0.00127007
0.00126976
0.00126959
0.0012694
0.00126905
0.00126875
0.00126856
0.00126805
0.0012683
0.00126884
0.00126874
0.00126871
0.00126799
0.00126822
0.00126854
0.00126773
0.00118466
0.00122728
0.00125324
0.00126493
0.00126911
0.00127023
0.00127008
0.00126977
0.00126969
0.00126955
0.00126924
0.00126893
0.00126848
0.00126811
0.00126766
0.00126754
0.0012673
0.00126642
0.00126638
0.00126632
0.001266
0.0012656
0.00126551
0.00126554
0.00126543
0.00126546
0.00126536
0.00126546
0.00126495
0.00126548
0.00126625
0.00126597
0.00126663
0.00126763
0.0012676
0.00126801
0.00126868
0.00126921
0.00126948
0.00127002
0.00127046
0.00127058
0.00127072
0.0012702
0.0012705
0.0012707
0.0012707
0.00127069
0.00127052
0.00127038
0.00126975
0.00127018
0.00127189
0.00127232
0.00127216
0.00127212
0.00127208
0.00127176
0.00127161
0.00127157
0.00127145
0.00127144
0.00127122
0.00127102
0.00127052
0.00127059
0.00127068
0.00127027
0.00127047
0.00127055
0.00127045
0.00127041
0.0012702
0.00127016
0.00126994
0.00126987
0.00126966
0.00126969
0.00126949
0.00126943
0.00126933
0.00126865
0.00126864
0.00126888
0.00126818
0.00126823
0.00126881
0.00126883
0.00126876
0.00126798
0.0011846
0.00122727
0.00125364
0.0012647
0.00126712
0.00126787
0.00126778
0.0012668
0.0012667
0.00126693
0.00126671
0.00126649
0.0012659
0.00126657
0.0012675
0.00126681
0.00126672
0.00126714
0.00126688
0.00126644
0.00126559
0.00126556
0.00126562
0.00126468
0.00126479
0.00126519
0.00126507
0.00126534
0.00126559
0.00126582
0.0012655
0.00126602
0.00126682
0.00126687
0.00126723
0.0012679
0.00126842
0.00126845
0.00126908
0.00126993
0.00127
0.00127021
0.00127023
0.00127029
0.00127039
0.00127048
0.00127037
0.00127014
0.0012703
0.00127035
0.00126957
0.0012697
0.00126979
0.00126956
0.00126922
0.00126937
0.00127013
0.00126973
0.00126962
0.00126951
0.00126946
0.00126916
0.00126941
0.00126974
0.00126955
0.00126948
0.00126898
0.00126922
0.00126962
0.00126951
0.00126949
0.00126929
0.00126867
0.00126869
0.00126904
0.00126897
0.0012687
0.00126888
0.00126923
0.00126843
0.00126859
0.00126893
0.00126815
0.00126833
0.00126861
0.00126854
0.00126852
0.00126823
0.00126815
0.0012676
0.00118466
0.0012273
0.00125317
0.00126518
0.00126853
0.00126844
0.00126873
0.00126888
0.00126832
0.00126838
0.00126845
0.00126819
0.00126794
0.00126736
0.00126697
0.00126653
0.00126573
0.00126568
0.00126572
0.00126538
0.00126514
0.00126453
0.00126468
0.00126474
0.00126427
0.00126464
0.00126509
0.00126457
0.00126472
0.00126536
0.00126587
0.00126601
0.00126673
0.00126737
0.00126786
0.00126836
0.00126829
0.00126843
0.00126864
0.00126843
0.00126891
0.00126959
0.00126897
0.00126913
0.00126961
0.00126937
0.00126916
0.00126912
0.00126888
0.00126914
0.00126986
0.00126976
0.00126961
0.00126883
0.00126864
0.00126911
0.0012691
0.00126884
0.0012691
0.00126934
0.00126926
0.0012692
0.0012689
0.00126878
0.00126805
0.00126803
0.00126852
0.00126797
0.00126806
0.00126864
0.0012687
0.00126861
0.0012683
0.00126839
0.00126838
0.00126821
0.00126836
0.0012684
0.00126781
0.00126765
0.00126838
0.00126879
0.0012686
0.00126809
0.00126789
0.0012681
0.00126761
0.00126768
0.00126814
0.00126756
0.00118466
0.00122728
0.00125324
0.00126492
0.00126918
0.0012699
0.00126962
0.00126947
0.0012693
0.00126915
0.00126895
0.00126877
0.00126847
0.0012681
0.00126764
0.00126722
0.00126694
0.00126664
0.00126605
0.00126588
0.00126597
0.00126558
0.00126552
0.00126527
0.00126497
0.00126493
0.00126483
0.00126433
0.00126479
0.00126563
0.00126527
0.00126579
0.00126662
0.00126701
0.00126712
0.00126784
0.00126867
0.00126899
0.00126917
0.001269
0.00126937
0.0012697
0.00126968
0.0012693
0.00126918
0.00126952
0.00126932
0.0012697
0.00127016
0.00127006
0.00127
0.00126965
0.00126944
0.0012691
0.00126875
0.00126865
0.00126841
0.00126878
0.00126922
0.00126878
0.00126846
0.00126887
0.00126926
0.00126912
0.00126896
0.0012685
0.00126836
0.00126793
0.00126807
0.00126855
0.00126813
0.00126793
0.00126848
0.00126881
0.00126862
0.00126817
0.001268
0.0012682
0.00126773
0.00126777
0.00126823
0.0012678
0.00126809
0.00126853
0.00126839
0.00126837
0.00126805
0.00126835
0.00126849
0.00126799
0.00118466
0.00122728
0.00125324
0.00126493
0.0012691
0.00127034
0.0012703
0.00127011
0.00126999
0.00126958
0.00126926
0.00126903
0.00126872
0.00126826
0.00126787
0.00126742
0.00126729
0.00126707
0.00126619
0.00126616
0.00126615
0.00126527
0.00126535
0.00126571
0.00126552
0.00126556
0.00126563
0.0012655
0.00126566
0.00126598
0.00126638
0.00126648
0.00126688
0.00126756
0.0012675
0.00126822
0.00126905
0.00126944
0.00126981
0.0012697
0.00126964
0.00127012
0.00127047
0.00127043
0.00126997
0.00127009
0.00127025
0.00127014
0.00127009
0.00126942
0.00126953
0.00127104
0.00127227
0.00127242
0.0012723
0.00127228
0.0012721
0.00127177
0.0012717
0.00127169
0.00127139
0.00127119
0.00127101
0.00127092
0.00127044
0.00127048
0.00127057
0.00127005
0.00127028
0.00127038
0.00127021
0.00127027
0.00127002
0.00126991
0.00126983
0.00126922
0.00126927
0.00126936
0.00126924
0.00126911
0.00126892
0.00126878
0.00126857
0.00126875
0.00126884
0.00126866
0.00126808
0.00126789
0.00126808
0.00126762
0.00118466
0.00122728
0.00125324
0.00126493
0.00126912
0.00127024
0.00127009
0.00126977
0.0012697
0.00126956
0.00126924
0.00126893
0.00126849
0.00126812
0.00126767
0.00126754
0.00126731
0.00126643
0.00126638
0.00126633
0.001266
0.00126558
0.00126535
0.00126534
0.00126525
0.00126507
0.00126488
0.00126503
0.0012648
0.00126524
0.00126607
0.00126598
0.00126665
0.00126762
0.0012676
0.00126801
0.00126868
0.00126921
0.0012695
0.00127004
0.00127046
0.00127058
0.00127073
0.0012702
0.0012705
0.0012707
0.0012707
0.00127069
0.00127054
0.00127045
0.00126982
0.00127023
0.00127174
0.00127169
0.0012716
0.00127146
0.00127141
0.00127137
0.00127107
0.00127102
0.00127066
0.00127075
0.00127079
0.00127033
0.00127044
0.00127046
0.00127033
0.00127032
0.00127011
0.00126948
0.00126961
0.00126975
0.00126961
0.00126949
0.00126913
0.00126892
0.00126833
0.00126847
0.00126901
0.00126853
0.00126877
0.00126891
0.00126845
0.00126869
0.00126878
0.00126862
0.00126813
0.0012682
0.00126852
0.00126772
0.00118466
0.00122728
0.00125324
0.00126491
0.00126926
0.00126973
0.00126949
0.00126945
0.00126909
0.00126879
0.00126863
0.00126851
0.00126803
0.00126787
0.00126783
0.00126742
0.00126663
0.00126647
0.00126632
0.00126591
0.00126566
0.00126533
0.00126512
0.00126449
0.0012646
0.0012648
0.00126449
0.00126508
0.00126574
0.0012661
0.00126656
0.00126687
0.00126744
0.0012679
0.00126826
0.00126814
0.00126834
0.00126861
0.00126852
0.00126911
0.00126957
0.00126969
0.00126979
0.00126942
0.00126946
0.00126921
0.00126958
0.00127001
0.00126991
0.00126986
0.00126947
0.00127
0.00127188
0.00127187
0.00127144
0.00127135
0.00127141
0.00127135
0.00127133
0.00127123
0.00127053
0.00127059
0.00127084
0.00127083
0.00127064
0.00126981
0.00126991
0.00127009
0.00126939
0.00126962
0.00126985
0.00126982
0.00126979
0.00126895
0.00126902
0.00126936
0.00126938
0.00126936
0.00126911
0.00126909
0.0012689
0.00126837
0.00126845
0.00126883
0.00126808
0.00126813
0.00126877
0.00126877
0.00126863
0.00126788
0.00118464
0.00122726
0.0012535
0.00126477
0.00126735
0.00126753
0.0012673
0.00126664
0.00126679
0.00126731
0.00126716
0.00126695
0.00126614
0.00126615
0.00126638
0.00126588
0.00126556
0.00126519
0.00126488
0.00126483
0.00126457
0.0012649
0.00126543
0.00126467
0.00126491
0.00126533
0.00126468
0.001265
0.0012657
0.00126612
0.00126656
0.00126617
0.00126676
0.00126765
0.00126782
0.00126804
0.00126876
0.0012696
0.00126989
0.00126995
0.00127027
0.00127054
0.00127055
0.00127062
0.00127072
0.00127079
0.00127071
0.00127073
0.0012706
0.00127032
0.00127017
0.00126999
0.00126967
0.00126874
0.00126863
0.00126906
0.00126896
0.00126864
0.00126881
0.00126932
0.00126925
0.00126918
0.00126848
0.00126877
0.00126953
0.00126947
0.0012693
0.00126925
0.00126874
0.00126861
0.00126939
0.00126968
0.00126957
0.00126949
0.00126935
0.00126916
0.00126914