/*--------------------------------*- C++ -*----------------------------------*\
  =========                 |
  \\      /  F ield         | OpenFOAM: The Open Source CFD Toolbox
   \\    /   O peration     | Website:  https://openfoam.org
    \\  /    A nd           | Version:  11
     \\/     M anipulation  |
\*---------------------------------------------------------------------------*/
FoamFile
{
    format      ascii;
    class       volScalarField;
    location    "0.04";
    object      omega;
}
// * * * * * * * * * * * * * * * * * * * * * * * * * * * * * * * * * * * * * //

dimensions      [0 0 -1 0 0 0 0];

internalField   nonuniform List<scalar> 
287084
(
55.0747
56.0239
56.5645
56.7764
56.8113
56.8124
56.8123
56.8001
56.8066
56.8192
56.8195
56.8195
56.8121
56.8042
56.804
56.8025
56.8132
56.8284
56.8165
56.8239
56.8305
56.8228
56.8217
56.8191
56.8187
56.8109
56.8155
56.8252
56.8222
56.8143
56.8083
56.8081
56.7958
56.7959
56.8096
56.8132
56.811
56.8088
56.8059
56.7926
56.7986
56.8082
56.7903
56.7915
56.8014
56.7923
56.7886
56.8014
56.8076
56.7995
56.8013
56.8016
56.8011
56.8008
56.7873
56.7932
56.803
56.802
56.804
56.798
56.7988
56.7899
56.7955
56.8077
56.8074
56.8072
56.7917
56.7977
56.8074
56.8023
56.8022
56.7962
56.8024
56.8154
56.8139
56.8125
56.812
56.7983
56.8015
56.8111
56.8102
56.8096
56.8012
56.7967
56.7934
56.7835
56.7901
56.8027
56.801
56.7954
55.0774
56.0143
56.5583
56.7766
56.8148
56.813
56.8138
56.8109
56.8156
56.8173
56.8139
56.803
56.8042
56.8118
56.7957
56.7949
56.8072
56.8084
56.8013
56.8045
56.8223
56.8201
56.8226
56.8271
56.8255
56.8157
56.8223
56.8296
56.8126
56.8172
56.8225
56.8037
56.8043
56.8138
56.8053
56.8009
56.8027
56.8004
56.8104
56.817
56.815
56.8142
56.8016
56.8082
56.8138
56.8098
56.8012
56.7945
56.7941
56.7903
56.7865
56.795
56.8054
56.8024
56.7914
56.795
56.8063
56.7917
56.7977
56.8078
56.8066
56.8081
56.8019
56.8006
56.7931
56.8001
56.8099
56.8074
56.7989
56.7977
56.812
56.8181
56.8145
56.7982
56.8003
56.8114
56.8012
56.8073
56.8105
56.8052
56.8073
56.8042
56.7936
56.7972
56.8006
56.7979
56.7897
56.7881
56.7976
56.7858
55.0774
56.0136
56.5578
56.7742
56.8144
56.8279
56.8279
56.812
56.8148
56.8272
56.8247
56.8247
56.8245
56.8197
56.8135
56.8192
56.8263
56.8228
56.8146
56.8087
56.8113
56.8113
56.8218
56.8316
56.8321
56.8321
56.817
56.8215
56.8282
56.8109
56.8152
56.827
56.8108
56.8142
56.826
56.8113
56.8163
56.8284
56.8227
56.8219
56.8194
56.8133
56.815
56.818
56.8156
56.8089
56.8116
56.816
56.8154
56.8152
56.7981
56.8012
56.8063
56.7925
56.7992
56.809
56.7915
56.7944
56.8045
56.8039
56.8038
56.7962
56.7975
56.7944
56.8047
56.813
56.8106
56.8032
56.8041
56.8097
56.8056
56.8047
56.7912
56.7971
56.8054
56.7894
56.7919
56.8065
56.8027
56.8037
56.7985
56.8059
56.8106
56.7949
56.8001
56.8085
56.7912
56.7957
56.8033
56.7857
55.0767
56.0157
56.5527
56.7751
56.8257
56.8364
56.8351
56.8365
56.8304
56.8307
56.8317
56.83
56.8297
56.8182
56.825
56.8303
56.8264
56.8166
56.8118
56.817
56.8154
56.8153
56.8128
56.8143
56.8136
56.8135
56.8025
56.8023
56.8236
56.8274
56.823
56.8108
56.8067
56.8108
56.8028
56.8013
56.8069
56.8005
56.8076
56.8199
56.8135
56.8119
56.8094
56.8112
56.8119
56.8088
56.8037
56.7968
56.7996
56.8055
56.8039
56.8043
56.8004
56.7878
56.7938
56.8074
56.7924
56.7981
56.8079
56.8063
56.806
56.7934
56.8024
56.8148
56.8106
56.8112
56.8125
56.8113
56.8135
56.8141
56.7986
56.8035
56.811
56.7969
56.8009
56.8153
56.8122
56.8165
56.8178
56.8138
56.798
56.7985
56.8092
56.8103
56.8092
56.7925
56.7968
56.8047
56.8023
56.7947
55.0768
56.0154
56.552
56.7767
56.8234
56.8234
56.8173
56.8223
56.83
56.8154
56.8214
56.8263
56.8242
56.8239
56.8134
56.8169
56.8179
56.8157
56.8155
56.8122
56.8064
56.8167
56.8316
56.8216
56.8211
56.8209
56.8113
56.8156
56.8261
56.8171
56.8106
56.8086
56.8056
56.8155
56.8289
56.8154
56.8219
56.8269
56.8268
56.8265
56.8072
56.8096
56.8152
56.8149
56.8147
56.7975
56.802
56.8089
56.7935
56.7994
56.8095
56.7945
56.791
56.796
56.7896
56.7965
56.8099
56.801
56.8004
56.8002
56.7918
56.7962
56.8087
56.7932
56.7977
56.8082
56.7917
56.7912
56.8008
56.792
56.798
56.8112
56.8119
56.812
56.7968
56.8028
56.8119
56.8026
56.8036
56.8004
56.7905
56.7966
56.8093
56.7952
56.8018
56.8103
56.7951
56.8014
56.8102
56.7915
55.0756
56.0178
56.5541
56.7641
56.7993
56.7886
56.7929
56.8155
56.8169
56.8126
56.7972
56.7959
56.81
56.8046
56.8134
56.8254
56.8171
56.819
56.8154
56.8134
56.813
56.8042
56.8091
56.8204
56.809
56.8045
56.8156
56.8213
56.8184
56.8092
56.8123
56.8262
56.8228
56.8248
56.8211
56.807
56.807
56.8134
56.7972
56.7964
56.8055
56.7945
56.7984
56.8109
56.7969
56.801
56.8138
56.8048
56.8042
56.8039
56.7947
56.7966
56.8118
56.8123
56.8095
56.8049
56.7951
56.7996
56.8063
56.8046
56.8037
56.7905
56.7976
56.81
56.8087
56.8099
56.8079
56.806
56.8054
56.7984
56.8062
56.8168
56.8027
56.809
56.8151
56.7981
56.8029
56.8126
56.7964
56.8005
56.8109
56.7982
56.8055
56.8129
56.8103
56.8119
56.8105
56.8122
56.8087
56.7942
55.0735
56.0208
56.5533
56.7671
56.8053
56.7935
56.8003
56.8095
56.8069
56.8012
56.7983
56.8341
56.8513
56.841
56.8413
56.8502
56.8519
56.8511
56.8512
56.8479
56.8489
56.8454
56.8324
56.8356
56.8392
56.8369
56.8364
56.826
56.8262
56.8265
56.8181
56.8236
56.8302
56.8121
56.8146
56.8254
56.8107
56.8149
56.8257
56.8257
56.8255
56.8091
56.8145
56.8229
56.8179
56.8175
56.8112
56.8128
56.8131
56.8104
56.8001
56.8055
56.8101
56.797
56.7926
56.8036
56.809
56.8059
56.8008
56.7915
56.7894
56.7834
56.7923
56.8035
56.8022
56.8022
56.7985
56.7976
56.7856
56.793
56.8031
56.7869
56.7856
56.8011
56.8093
56.806
56.791
56.7928
56.8057
56.7971
56.805
56.8108
56.7958
56.801
56.8104
56.8061
56.808
56.8087
56.8072
56.7904
55.0762
56.0172
56.5485
56.7725
56.8491
56.8691
56.8687
56.8666
56.8642
56.8618
56.8587
56.8567
56.8543
56.8546
56.856
56.854
56.8546
56.8565
56.8585
56.8553
56.8534
56.8487
56.8332
56.8354
56.8395
56.8376
56.8375
56.8317
56.8283
56.8125
56.8164
56.8289
56.8125
56.8159
56.8272
56.8222
56.8161
56.8245
56.8351
56.8351
56.8349
56.8193
56.8247
56.8317
56.8284
56.8235
56.822
56.8271
56.8229
56.8272
56.8325
56.8314
56.832
56.8291
56.8234
56.8205
56.8179
56.815
56.811
56.798
56.8037
56.8143
56.8079
56.8098
56.8068
56.795
56.8006
56.8096
56.8001
56.7979
56.7998
56.8002
56.7914
56.7869
56.8017
56.8122
56.8114
56.8109
56.7941
56.7992
56.8127
56.8035
56.8084
56.8102
56.8068
56.7965
56.7984
56.8071
56.8049
56.794
55.0746
56.0194
56.5534
56.7665
56.808
56.8059
56.808
56.8076
56.7985
56.7973
56.8307
56.8496
56.8493
56.848
56.8457
56.8474
56.8443
56.8477
56.8533
56.852
56.8491
56.8498
56.8478
56.8415
56.8386
56.8369
56.828
56.8225
56.8208
56.8108
56.8171
56.8297
56.8129
56.8163
56.8274
56.8222
56.8157
56.8231
56.8357
56.83
56.8304
56.8317
56.8288
56.8295
56.8299
56.8284
56.8269
56.8076
56.8025
56.8025
56.7888
56.7934
56.8019
56.7924
56.7869
56.7976
56.8069
56.8053
56.8042
56.7909
56.7975
56.8063
56.8057
56.8055
56.7911
56.7974
56.8111
56.8014
56.8082
56.8124
56.8091
56.8036
56.7958
56.8039
56.8106
56.8078
56.8151
56.8166
56.8129
56.8122
56.7997
56.8048
56.8152
56.8064
56.8057
56.8056
56.8031
56.8013
56.7976
56.785
55.0728
56.0208
56.5582
56.7549
56.8039
56.8044
56.8046
56.7969
56.8066
56.8196
56.8193
56.819
56.8046
56.813
56.8241
56.823
56.8223
56.8129
56.8118
56.8053
56.814
56.8232
56.8158
56.8111
56.82
56.8273
56.8147
56.8221
56.832
56.8138
56.8142
56.8242
56.8231
56.8236
56.8227
56.8228
56.8213
56.8089
56.8104
56.8133
56.7934
56.7917
56.7995
56.7876
56.792
56.8024
56.7884
56.7857
56.7915
56.7894
56.7932
56.794
56.7911
56.781
56.7853
56.798
56.7852
56.7825
56.7962
56.8046
56.8006
56.7886
56.7835
56.7942
56.7974
56.7901
56.797
56.805
56.7948
56.795
56.7942
56.7845
56.789
56.8012
56.7901
56.7863
56.7987
56.8055
56.8017
56.7915
56.7867
56.8001
56.8077
56.8067
56.8064
56.7929
56.7937
56.8047
56.8046
56.796
55.0749
56.0174
56.5553
56.7689
56.8117
56.8129
56.8127
56.8013
56.8096
56.8198
56.8189
56.8157
56.8208
56.831
56.8167
56.8192
56.8366
56.8375
56.8354
56.8344
56.8278
56.8225
56.8252
56.8261
56.8235
56.8169
56.8197
56.8262
56.8229
56.8113
56.8157
56.8297
56.8283
56.8282
56.8237
56.8096
56.8071
56.8112
56.7956
56.7945
56.803
56.7921
56.796
56.8084
56.7944
56.7955
56.8131
56.8148
56.8109
56.7957
56.7985
56.8061
56.7888
56.7884
56.7975
56.8002
56.8006
56.7895
56.7957
56.8007
56.7972
56.7896
56.7856
56.7966
56.7991
56.7963
56.7901
56.7864
56.7952
56.8006
56.798
56.7944
56.8059
56.8148
56.7995
56.805
56.8155
56.8029
56.8095
56.8153
56.8025
56.8098
56.8156
56.7969
56.7986
56.8074
56.7985
56.7984
56.7975
56.7872
55.0742
56.0195
56.5521
56.7712
56.8144
56.8128
56.8175
56.8183
56.8161
56.8105
56.8279
56.8505
56.8425
56.85
56.8545
56.8492
56.8517
56.8487
56.8382
56.8428
56.8463
56.8328
56.8399
56.8471
56.8456
56.8455
56.8392
56.8346
56.8151
56.8168
56.8251
56.8069
56.8074
56.8163
56.8014
56.8015
56.8106
56.7981
56.8013
56.8127
56.7983
56.802
56.8138
56.8046
56.8038
56.8035
56.794
56.7974
56.8106
56.8113
56.812
56.809
56.8016
56.7955
56.7946
56.7881
56.7956
56.7997
56.7852
56.7837
56.8026
56.8086
56.8027
56.8057
56.8069
56.8038
56.7906
56.7902
56.8085
56.8105
56.8065
56.7909
56.7898
56.801
56.8019
56.8009
56.7866
56.7884
56.8058
56.8102
56.8073
56.793
56.7996
56.8067
56.805
56.8047
56.7914
56.7988
56.8075
56.7895
55.0762
56.0172
56.5484
56.7721
56.8505
56.8612
56.8549
56.8542
56.8538
56.8562
56.8566
56.8506
56.8533
56.8566
56.8528
56.8541
56.8548
56.8537
56.8509
56.8502
56.8516
56.852
56.8416
56.8435
56.8453
56.8415
56.8345
56.8286
56.8268
56.8151
56.8205
56.8317
56.8282
56.8207
56.8247
56.8371
56.8347
56.8316
56.8165
56.8204
56.8282
56.8263
56.8257
56.8116
56.8175
56.8235
56.8212
56.8209
56.815
56.8141
56.8123
56.8115
56.797
56.7966
56.8076
56.8092
56.8083
56.7932
56.7976
56.8144
56.8131
56.8103
56.7959
56.8015
56.8123
56.7959
56.8006
56.8098
56.8002
56.7979
56.7997
56.8001
56.7913
56.7866
56.8014
56.812
56.8108
56.8102
56.7955
56.801
56.808
56.8071
56.8069
56.7925
56.7988
56.8132
56.8066
56.8085
56.8053
56.7914
55.0734
56.0195
56.5579
56.7623
56.795
56.7869
56.7954
56.8137
56.8063
56.8078
56.8047
56.7957
56.7985
56.8097
56.8064
56.815
56.8194
56.8151
56.8131
56.8147
56.8134
56.8238
56.8392
56.8283
56.8349
56.839
56.8334
56.8356
56.8321
56.8188
56.8205
56.8297
56.8282
56.8205
56.8242
56.8337
56.8291
56.8293
56.8287
56.827
56.8243
56.8239
56.8226
56.8238
56.821
56.8178
56.8149
56.8145
56.8108
56.8082
56.7949
56.7993
56.8113
56.809
56.8062
56.7914
56.7938
56.8059
56.8092
56.8064
56.7896
56.7916
56.8035
56.8022
56.802
56.7905
56.7978
56.8059
56.8048
56.8045
56.7889
56.7894
56.8023
56.7954
56.8025
56.8166
56.8053
56.8127
56.8187
56.8142
56.8136
56.8123
56.812
56.798
56.798
56.8124
56.8173
56.8153
56.8135
56.7979
55.0763
56.0171
56.5484
56.7724
56.8489
56.8688
56.8685
56.8664
56.8643
56.8651
56.8659
56.861
56.8582
56.8578
56.8589
56.8575
56.8543
56.8447
56.848
56.8512
56.8491
56.846
56.8475
56.85
56.8474
56.8449
56.8387
56.8354
56.8301
56.8275
56.8235
56.8111
56.8145
56.8221
56.8029
56.8007
56.8083
56.7968
56.8001
56.8111
56.7964
56.8002
56.8119
56.8118
56.8115
56.7955
56.7995
56.8103
56.8057
56.8068
56.8076
56.8044
56.8074
56.8106
56.8093
56.8089
56.7926
56.7998
56.8173
56.8078
56.8144
56.8234
56.8171
56.8181
56.8167
56.8017
56.8015
56.8068
56.7994
56.7976
56.7995
56.7999
56.7911
56.7865
56.8014
56.8119
56.8107
56.8101
56.7954
56.8009
56.8079
56.8056
56.803
56.7932
56.7913
56.7888
56.7985
56.8053
56.8017
56.7895
55.0786
56.013
56.5508
56.7742
56.8165
56.8083
56.8168
56.8259
56.8142
56.8191
56.8252
56.822
56.8114
56.8143
56.8241
56.8239
56.8237
56.8114
56.8147
56.8201
56.8189
56.8157
56.8237
56.8317
56.817
56.8224
56.8331
56.8232
56.8174
56.8264
56.8318
56.8199
56.8266
56.8318
56.8197
56.8184
56.816
56.8166
56.8125
56.7965
56.7951
56.8009
56.7917
56.7872
56.7893
56.7836
56.7864
56.807
56.8097
56.8055
56.8059
56.8049
56.7936
56.7926
56.8224
56.8354
56.8293
56.8339
56.8395
56.8379
56.8378
56.8276
56.8289
56.8309
56.828
56.8278
56.8233
56.8087
56.8063
56.8098
56.7954
56.7999
56.8091
56.809
56.8089
56.7958
56.8017
56.8054
56.791
56.793
56.8111
56.8122
56.8091
56.7962
56.8005
56.8098
56.8014
56.8026
56.8016
56.79
55.0776
56.0163
56.5459
56.7702
56.8477
56.8712
56.8712
56.8668
56.8667
56.8672
56.8659
56.8603
56.8573
56.8575
56.8531
56.8543
56.8549
56.8424
56.8474
56.851
56.8339
56.8385
56.8454
56.8425
56.8425
56.8431
56.842
56.8221
56.822
56.8318
56.831
56.8279
56.8095
56.8114
56.8161
56.8157
56.8151
56.7973
56.7936
56.7975
56.7859
56.7863
56.8012
56.8032
56.8
56.7853
56.7835
56.7983
56.8023
56.7975
56.8019
56.8032
56.7884
56.7962
56.8199
56.8124
56.8209
56.8273
56.8152
56.8221
56.8267
56.8144
56.8192
56.8213
56.8153
56.8154
56.8141
56.8014
56.804
56.8095
56.7988
56.8007
56.8017
56.7986
56.7919
56.7864
56.7969
56.8076
56.807
56.8069
56.7942
56.7943
56.8042
56.7974
56.8052
56.8101
56.7977
56.8052
56.8115
56.7921
55.0763
56.0171
56.5484
56.7724
56.849
56.8714
56.8742
56.8727
56.8697
56.8676
56.8677
56.8663
56.8615
56.8587
56.8588
56.8578
56.8532
56.8543
56.855
56.8444
56.849
56.8529
56.8466
56.846
56.8431
56.8391
56.8363
56.8323
56.8189
56.8245
56.8309
56.8117
56.8141
56.8214
56.8025
56.8003
56.8074
56.7953
56.7983
56.8089
56.7943
56.7957
56.8068
56.8014
56.8015
56.8031
56.8018
56.8038
56.8047
56.8009
56.8005
56.7925
56.8013
56.8223
56.813
56.821
56.8273
56.8263
56.8243
56.8245
56.8254
56.8169
56.8191
56.816
56.8048
56.8096
56.8138
56.7994
56.8043
56.8158
56.8172
56.8141
56.8072
56.7969
56.8008
56.8106
56.8089
56.808
56.7991
56.7974
56.7919
56.8007
56.8085
56.8077
56.8073
56.7912
56.797
56.8087
56.8057
56.7944
55.0776
56.0164
56.5458
56.7702
56.8479
56.8686
56.8685
56.8666
56.8644
56.8624
56.8628
56.8598
56.8576
56.8527
56.8536
56.8542
56.8417
56.8467
56.8505
56.8336
56.8384
56.8462
56.8392
56.8394
56.8357
56.8238
56.8272
56.8359
56.8171
56.8158
56.8242
56.8121
56.8141
56.8245
56.8249
56.8253
56.8214
56.8183
56.8166
56.814
56.793
56.7938
56.8017
56.7843
56.7859
56.7948
56.7795
56.7803
56.796
56.8007
56.7976
56.7921
56.7839
56.7924
56.8208
56.8141
56.8213
56.83
56.8286
56.8281
56.8278
56.8298
56.8273
56.8277
56.826
56.8119
56.8145
56.8179
56.8093
56.8104
56.8148
56.8132
56.8088
56.8095
56.806
56.7936
56.7927
56.8057
56.807
56.8043
56.7915
56.7951
56.8046
56.7909
56.7974
56.804
56.7879
56.7923
56.8041
56.7872
55.0775
56.0167
56.5439
56.7783
56.8286
56.8283
56.8305
56.8319
56.827
56.8311
56.8338
56.8265
56.8202
56.8231
56.8326
56.8304
56.8303
56.828
56.8277
56.816
56.8173
56.8428
56.8485
56.8449
56.8358
56.8302
56.8287
56.8169
56.8216
56.8307
56.8119
56.8129
56.8211
56.8043
56.803
56.8103
56.805
56.8054
56.8042
56.7922
56.7952
56.803
56.7961
56.7964
56.795
56.7927
56.7929
56.7937
56.7844
56.7908
56.8293
56.8551
56.856
56.8546
56.8551
56.8501
56.8475
56.8481
56.847
56.8368
56.8392
56.8415
56.8354
56.8366
56.831
56.8307
56.8323
56.8306
56.8318
56.8297
56.8261
56.8117
56.8143
56.8186
56.8156
56.8102
56.8056
56.8054
56.8067
56.8067
56.7934
56.798
56.8025
56.7881
56.7927
56.8048
56.7968
56.7971
56.7963
56.7865
55.0757
56.0171
56.5539
56.7664
56.8027
56.802
56.7949
56.7979
56.809
56.7991
56.7959
56.7999
56.7953
56.8042
56.8177
56.8152
56.8151
56.8085
56.8198
56.8298
56.8397
56.8482
56.8399
56.8414
56.8382
56.8266
56.8314
56.8405
56.8218
56.8196
56.8268
56.8152
56.8193
56.8292
56.8126
56.8168
56.8244
56.8229
56.8221
56.8047
56.8091
56.8148
56.8049
56.8038
56.799
56.803
56.8043
56.8008
56.79
56.7921
56.7961
56.7802
56.7824
56.7938
56.7928
56.7924
56.7909
56.7907
56.7778
56.7822
56.7958
56.7807
56.7831
56.7944
56.7905
56.791
56.7911
56.7845
56.7921
56.8076
56.8047
56.8013
56.802
56.8031
56.7945
56.7901
56.802
56.8119
56.8101
56.8089
56.7993
56.7966
56.7888
56.7966
56.8032
56.7873
56.7892
56.8003
56.8
56.7956
55.0763
56.0171
56.5485
56.7721
56.8516
56.8595
56.8553
56.8542
56.8526
56.8528
56.8513
56.8524
56.8538
56.8512
56.8397
56.843
56.8463
56.845
56.8423
56.8436
56.8475
56.8465
56.8463
56.8339
56.832
56.8349
56.8346
56.8225
56.8236
56.8319
56.8309
56.8236
56.8249
56.8257
56.8238
56.8228
56.8032
56.806
56.8087
56.7985
56.7992
56.7959
56.7888
56.7834
56.7845
56.7825
56.7931
56.801
56.7978
56.7986
56.7938
56.8095
56.8479
56.857
56.856
56.8539
56.8529
56.8532
56.8475
56.8462
56.8471
56.8428
56.8431
56.8426
56.842
56.8293
56.8312
56.8345
56.825
56.8316
56.8355
56.8337
56.8355
56.8338
56.8306
56.8237
56.8202
56.8162
56.8085
56.8023
56.8005
56.7916
56.7986
56.8101
56.8072
56.8065
56.7916
56.7972
56.804
56.7867
55.0763
56.0172
56.5484
56.7725
56.849
56.8719
56.8714
56.8669
56.8672
56.8676
56.8662
56.8608
56.8579
56.8583
56.8542
56.8556
56.8565
56.8444
56.8498
56.8539
56.8525
56.8485
56.8505
56.8535
56.8513
56.8512
56.845
56.8407
56.8242
56.8283
56.8347
56.8165
56.8199
56.8299
56.8128
56.8119
56.8195
56.8183
56.8155
56.8207
56.8237
56.821
56.8203
56.8072
56.8122
56.8151
56.8145
56.8145
56.8108
56.8051
56.7954
56.8118
56.8489
56.86
56.8599
56.8582
56.8555
56.8532
56.8534
56.8546
56.8511
56.8492
56.8452
56.8426
56.8356
56.8389
56.8416
56.835
56.8394
56.8415
56.8396
56.8396
56.835
56.8344
56.8294
56.829
56.8244
56.8233
56.8222
56.8243
56.8206
56.8047
56.8063
56.8124
56.7956
56.7984
56.8126
56.8122
56.8093
56.7918
55.0749
56.0175
56.5573
56.7634
56.8006
56.8148
56.817
56.7986
56.8011
56.8109
56.8081
56.8079
56.8021
56.8259
56.8502
56.8412
56.8461
56.8589
56.8609
56.8581
56.8442
56.849
56.8539
56.8356
56.8394
56.847
56.8398
56.8383
56.8361
56.8349
56.8181
56.8192
56.825
56.8086
56.8058
56.8094
56.8094
56.8018
56.8069
56.818
56.8117
56.8112
56.8074
56.8074
56.8082
56.8091
56.809
56.8037
56.8067
56.8082
56.7926
56.797
56.8001
56.7956
56.7902
56.7981
56.8167
56.8093
56.8095
56.8085
56.8092
56.8031
56.8093
56.8173
56.813
56.8125
56.8043
56.8107
56.8198
56.8174
56.8146
56.8102
56.8003
56.8034
56.8121
56.8102
56.8043
56.8096
56.8172
56.7998
56.804
56.8114
56.7943
56.7989
56.8049
56.803
56.802
56.7947
56.7945
56.7846
55.0762
56.0174
56.5472
56.7773
56.8358
56.8326
56.8403
56.8455
56.8378
56.8425
56.8479
56.8466
56.8461
56.8378
56.833
56.8305
56.8219
56.8288
56.8355
56.8336
56.8314
56.8255
56.8341
56.8371
56.8289
56.8358
56.8422
56.8219
56.8201
56.8261
56.8261
56.8188
56.821
56.8219
56.8197
56.8185
56.8036
56.7952
56.7927
56.7829
56.7885
56.7984
56.7807
56.7828
56.7926
56.7824
56.7784
56.781
56.7758
56.7828
56.8
56.7994
56.7954
56.7797
56.78
56.7913
56.7915
56.7897
56.7961
56.8024
56.8015
56.8015
56.7954
56.794
56.7801
56.7826
56.7957
56.7826
56.7861
56.7975
56.7981
56.7999
56.7948
56.7955
56.7957
56.7949
56.7967
56.7975
56.7826
56.7812
56.8012
56.8083
56.8043
56.7893
56.7878
56.7966
56.7838
56.7862
56.7973
56.7835
55.0763
56.0172
56.5484
56.7724
56.8502
56.864
56.8612
56.8615
56.8613
56.8621
56.8591
56.8567
56.855
56.8523
56.8514
56.8515
56.8523
56.8522
56.8448
56.8471
56.8549
56.8489
56.8485
56.8482
56.8417
56.8371
56.8329
56.8188
56.8232
56.8322
56.8129
56.8141
56.8205
56.8124
56.8026
56.8084
56.8153
56.8113
56.8027
56.7947
56.7982
56.8004
56.7965
56.7817
56.7799
56.7908
56.7847
56.7931
56.8032
56.8011
56.7982
56.7913
56.7889
56.7825
56.7795
56.7822
56.7783
56.7879
56.7983
56.7876
56.7831
56.7963
56.805
56.802
56.7961
56.7903
56.7915
56.7819
56.7861
56.7977
56.7858
56.7831
56.7989
56.8051
56.8014
56.7884
56.7878
56.7967
56.7843
56.7864
56.7978
56.7871
56.7939
56.8031
56.8022
56.8023
56.7942
56.8001
56.8026
56.7934
55.0763
56.0172
56.5484
56.7724
56.849
56.8715
56.8741
56.8727
56.8701
56.8682
56.8684
56.8672
56.8621
56.8592
56.8595
56.8556
56.8575
56.8585
56.8466
56.852
56.8567
56.8426
56.8488
56.8591
56.8575
56.8579
56.8535
56.8418
56.8413
56.842
56.8377
56.8245
56.8237
56.8296
56.8133
56.8172
56.8242
56.822
56.8211
56.8096
56.8036
56.8112
56.8146
56.8108
56.7987
56.8006
56.8038
56.8012
56.8007
56.7881
56.7942
56.8315
56.8551
56.8615
56.8602
56.8581
56.8555
56.8532
56.8538
56.8553
56.8488
56.8465
56.8467
56.8451
56.8347
56.8362
56.839
56.8297
56.8351
56.8375
56.8339
56.833
56.8312
56.8323
56.8301
56.8157
56.8171
56.8194
56.8163
56.8107
56.8067
56.8066
56.805
56.8082
56.8098
56.8067
56.7899
56.7883
56.7966
56.7852
55.0763
56.0172
56.5484
56.7725
56.8491
56.872
56.8715
56.867
56.8673
56.8678
56.8664
56.861
56.858
56.8584
56.8544
56.8558
56.8567
56.8445
56.8499
56.8542
56.8524
56.8479
56.8483
56.8513
56.8478
56.839
56.8349
56.8365
56.8225
56.8242
56.8328
56.8174
56.8205
56.8297
56.8128
56.8119
56.8195
56.8183
56.8156
56.8211
56.8239
56.8211
56.8204
56.8073
56.8122
56.815
56.8145
56.8145
56.8114
56.809
56.7984
56.8127
56.8478
56.8475
56.8438
56.8432
56.844
56.8448
56.839
56.8365
56.8329
56.8374
56.8392
56.832
56.8344
56.8353
56.8333
56.8328
56.8306
56.8175
56.8215
56.8249
56.8216
56.8161
56.8086
56.8061
56.7957
56.8008
56.8133
56.8029
56.808
56.8108
56.802
56.8069
56.8084
56.8049
56.7941
56.797
56.8046
56.7866
55.0763
56.0171
56.5485
56.772
56.8516
56.8595
56.8553
56.8544
56.8528
56.8529
56.8513
56.8497
56.8471
56.8503
56.8551
56.8525
56.8408
56.8436
56.8463
56.8425
56.8423
56.8394
56.8355
56.8271
56.8318
56.835
56.827
56.8352
56.8419
56.8405
56.8402
56.8351
56.8342
56.8316
56.8282
56.8123
56.8052
56.803
56.7948
56.8014
56.8051
56.8021
56.7988
56.7871
56.7853
56.7819
56.792
56.8009
56.7983
56.7981
56.7927
56.8089
56.8494
56.8496
56.8437
56.8439
56.8475
56.8473
56.8454
56.8444
56.8317
56.8344
56.838
56.8381
56.8382
56.8215
56.8249
56.8294
56.8152
56.8215
56.8266
56.8264
56.8262
56.8085
56.8116
56.8197
56.8193
56.8192
56.8134
56.8128
56.8092
56.7982
56.8018
56.8105
56.7933
56.7961
56.8086
56.8087
56.808
56.79
55.0757
56.0171
56.5541
56.7654
56.805
56.8057
56.8057
56.7954
56.8028
56.8175
56.8173
56.8172
56.8056
56.8114
56.8216
56.815
56.8146
56.8155
56.815
56.8204
56.8195
56.8312
56.8455
56.8309
56.8374
56.8455
56.8281
56.8316
56.8407
56.8403
56.8396
56.8203
56.8229
56.8311
56.8192
56.8138
56.8211
56.8296
56.8275
56.8215
56.8225
56.8234
56.8193
56.8186
56.8191
56.8196
56.817
56.8144
56.8118
56.8064
56.8041
56.8012
56.7961
56.7793
56.7811
56.7937
56.789
56.7836
56.791
56.8033
56.8022
56.8014
56.7884
56.7977
56.8117
56.8133
56.8102
56.8067
56.7992
56.8002
56.8184
56.8236
56.821
56.8168
56.816
56.8121
56.8105
56.8104
56.8084
56.8061
56.8028
56.7939
56.7928
56.8104
56.8175
56.8138
56.8011
56.8023
56.8062
56.7873
55.0787
56.0127
56.5519
56.7726
56.8143
56.8071
56.8159
56.8252
56.8149
56.8144
56.8141
56.8041
56.8033
56.8209
56.825
56.8209
56.8062
56.8046
56.8179
56.8151
56.8254
56.8341
56.8325
56.8322
56.8195
56.8256
56.8366
56.8184
56.8164
56.8243
56.8163
56.8138
56.8249
56.828
56.8243
56.8125
56.8162
56.8206
56.8181
56.8163
56.8045
56.7997
56.7995
56.8001
56.7998
56.7986
56.7949
56.7838
56.7836
56.7962
56.7877
56.7949
56.8066
56.8041
56.7983
56.8029
56.8205
56.8123
56.8199
56.8243
56.8218
56.8146
56.8173
56.8203
56.8172
56.819
56.8143
56.8126
56.8123
56.8132
56.8116
56.8106
56.8074
56.7965
56.8009
56.8106
56.8089
56.8079
56.7989
56.7955
56.7865
56.794
56.8012
56.799
56.7985
56.7863
56.7925
56.8014
56.7984
56.788
55.0786
56.013
56.5508
56.7741
56.8165
56.808
56.816
56.8255
56.8154
56.816
56.8151
56.804
56.8019
56.8197
56.8255
56.8218
56.8138
56.8063
56.8222
56.8337
56.8308
56.8194
56.8189
56.8278
56.8145
56.8157
56.827
56.8149
56.8163
56.8264
56.8138
56.8189
56.8272
56.8272
56.8266
56.8062
56.8058
56.812
56.8134
56.8135
56.8079
56.805
56.7857
56.7857
56.7978
56.7991
56.7982
56.7831
56.7811
56.8123
56.8302
56.8189
56.8246
56.8326
56.8312
56.8309
56.8175
56.8223
56.8282
56.8279
56.8279
56.823
56.8222
56.8124
56.8184
56.8221
56.8144
56.8184
56.8203
56.8165
56.8027
56.8052
56.8109
56.8049
56.8072
56.8088
56.8059
56.795
56.7893
56.7909
56.7909
56.793
56.7897
56.7877
56.7807
56.7862
56.8053
56.8047
56.8013
56.7849
55.0763
56.0171
56.5484
56.7724
56.8489
56.8717
56.8714
56.8696
56.8703
56.8648
56.8622
56.8635
56.8613
56.8586
56.8588
56.8579
56.8532
56.8543
56.855
56.8444
56.8491
56.853
56.8465
56.8469
56.8436
56.8306
56.8308
56.8363
56.8203
56.8217
56.8314
56.8271
56.8203
56.8231
56.8252
56.8133
56.8202
56.8286
56.8119
56.8158
56.8257
56.8142
56.8199
56.8275
56.8204
56.8246
56.826
56.8219
56.8217
56.8215
56.8185
56.7979
56.798
56.8166
56.8104
56.8191
56.826
56.817
56.8169
56.8163
56.8171
56.8159
56.818
56.8149
56.8042
56.8091
56.8132
56.7989
56.8041
56.8158
56.8172
56.8141
56.8073
56.7969
56.8009
56.8106
56.8102
56.8098
56.7936
56.799
56.8126
56.8032
56.8079
56.8096
56.8062
56.796
56.7982
56.8074
56.8051
56.7941
55.0776
56.0163
56.5458
56.7703
56.8479
56.8709
56.874
56.8725
56.8699
56.8679
56.8682
56.8666
56.8646
56.8613
56.859
56.8576
56.8552
56.8546
56.8544
56.8561
56.8558
56.8469
56.8479
56.8545
56.8511
56.8515
56.8513
56.8521
56.8474
56.8306
56.8245
56.8267
56.8265
56.8188
56.823
56.832
56.8309
56.8304
56.8139
56.8175
56.8258
56.8201
56.8159
56.8133
56.8154
56.8154
56.8091
56.8122
56.8159
56.816
56.816
56.811
56.8021
56.8022
56.8156
56.8213
56.8192
56.8168
56.8092
56.8172
56.8296
56.8193
56.8252
56.8329
56.8304
56.8301
56.8298
56.8306
56.8261
56.8231
56.8126
56.8165
56.82
56.8193
56.819
56.8009
56.8017
56.8096
56.8111
56.8107
56.7926
56.7955
56.8064
56.7911
56.7959
56.8068
56.7898
56.7924
56.8029
56.7871
55.0776
56.0167
56.5439
56.7777
56.8339
56.8386
56.8348
56.8194
56.8242
56.8321
56.8174
56.8231
56.8278
56.8127
56.8187
56.8247
56.8193
56.813
56.8191
56.832
56.8298
56.8256
56.8193
56.8192
56.8096
56.8126
56.825
56.8126
56.8176
56.8281
56.8238
56.8233
56.8152
56.8222
56.8262
56.8217
56.8118
56.8036
56.8016
56.7893
56.7894
56.7985
56.7882
56.7946
56.8026
56.8013
56.8032
56.7971
56.8009
56.8072
56.8044
56.7997
56.7922
56.8032
56.8229
56.8123
56.8188
56.828
56.8259
56.823
56.8153
56.8136
56.81
56.8184
56.8285
56.823
56.8249
56.8218
56.8086
56.8103
56.8165
56.812
56.8135
56.8118
56.8069
56.8103
56.8118
56.7966
56.8022
56.811
56.809
56.8064
56.8026
56.8017
56.7892
56.7932
56.8104
56.8106
56.8076
56.79
55.0763
56.0172
56.5484
56.7724
56.8488
56.8715
56.8711
56.8693
56.8698
56.8642
56.8619
56.863
56.8607
56.858
56.8587
56.861
56.8596
56.8587
56.8568
56.8512
56.8526
56.8538
56.8495
56.8367
56.8329
56.834
56.8219
56.8276
56.8356
56.8342
56.834
56.8283
56.8245
56.8056
56.8041
56.8126
56.7994
56.8024
56.8132
56.7983
56.8019
56.8133
56.7983
56.8031
56.814
56.7998
56.805
56.8149
56.8044
56.8108
56.8142
56.8121
56.8115
56.7995
56.805
56.8152
56.8124
56.8024
56.8041
56.8146
56.8139
56.8072
56.8093
56.8154
56.8003
56.8062
56.8135
56.7994
56.806
56.8181
56.8159
56.8131
56.8091
56.7989
56.7998
56.8087
56.8081
56.8071
56.793
56.7995
56.8078
56.8056
56.8029
56.7931
56.7912
56.7887
56.7984
56.8052
56.8016
56.7894
55.074
56.0199
56.5555
56.7633
56.7964
56.7958
56.7901
56.7906
56.8052
56.8092
56.8058
56.7982
56.7933
56.81
56.8396
56.8367
56.8369
56.8337
56.8426
56.8473
56.8356
56.842
56.847
56.8473
56.8474
56.8351
56.8326
56.8287
56.8152
56.8188
56.8307
56.8276
56.8205
56.8216
56.8252
56.8308
56.8343
56.8171
56.8219
56.8291
56.824
56.823
56.8107
56.8163
56.8212
56.8176
56.8106
56.806
56.8022
56.788
56.7907
56.8012
56.7914
56.7982
56.8026
56.7998
56.7915
56.7905
56.7968
56.7983
56.7985
56.789
56.7956
56.8047
56.8009
56.7897
56.785
56.7905
56.7908
56.7978
56.8001
56.7942
56.7922
56.7969
56.7971
56.7975
56.7972
56.7974
56.7923
56.8011
56.8113
56.8026
56.8023
56.8012
56.8042
56.8011
56.7898
56.7926
56.8021
56.7867
55.0763
56.0171
56.5484
56.7723
56.8499
56.8635
56.8589
56.8634
56.8643
56.8604
56.8607
56.8549
56.8542
56.8553
56.8548
56.8552
56.8489
56.8483
56.852
56.8509
56.8397
56.8424
56.8446
56.8443
56.8443
56.8323
56.8253
56.8293
56.8324
56.824
56.8312
56.836
56.8304
56.8215
56.8204
56.8284
56.8329
56.8313
56.8322
56.825
56.8235
56.8283
56.8183
56.8247
56.8287
56.8177
56.8231
56.8257
56.8249
56.8246
56.8077
56.8105
56.8131
56.797
56.7947
56.8005
56.7917
56.7985
56.8095
56.7985
56.7945
56.795
56.7911
56.8017
56.8141
56.8002
56.8055
56.8101
56.7973
56.8044
56.8104
56.8091
56.8087
56.7947
56.8014
56.8111
56.81
56.8095
56.7952
56.801
56.8079
56.8056
56.8031
56.7933
56.7914
56.7889
56.7986
56.8053
56.8017
56.7895
55.0742
56.0195
56.5521
56.7712
56.8144
56.8127
56.8174
56.8183
56.8162
56.8106
56.828
56.8504
56.8423
56.85
56.8546
56.8495
56.849
56.8409
56.846
56.8493
56.8357
56.8413
56.8457
56.8456
56.8456
56.8391
56.8398
56.8378
56.8346
56.8306
56.8147
56.8144
56.8246
56.814
56.8107
56.8148
56.8095
56.8179
56.8292
56.8152
56.821
56.8254
56.81
56.8152
56.8202
56.8179
56.8167
56.8091
56.8043
56.8058
56.8079
56.8081
56.8013
56.7954
56.7944
56.7879
56.7955
56.7997
56.7851
56.7898
56.8013
56.7978
56.7977
56.7934
56.7941
56.7942
56.7867
56.7905
56.806
56.8081
56.8081
56.7905
56.7897
56.8009
56.8018
56.8008
56.7865
56.7855
56.8087
56.8142
56.8118
56.8102
56.7983
56.8029
56.8084
56.7981
56.8062
56.8157
56.8126
56.8014
55.0734
56.0194
56.558
56.7624
56.795
56.7921
56.7901
56.8034
56.839
56.8384
56.8328
56.837
56.8393
56.8355
56.8358
56.8353
56.8368
56.8309
56.8309
56.8312
56.8297
56.8295
56.8286
56.8252
56.8212
56.8083
56.8134
56.8277
56.8219
56.8216
56.818
56.8071
56.8103
56.8207
56.8042
56.806
56.8148
56.8095
56.8117
56.8084
56.7962
56.7989
56.8059
56.7912
56.797
56.805
56.7891
56.7941
56.8067
56.7957
56.7916
56.8046
56.8113
56.8094
56.8082
56.7935
56.7977
56.8049
56.8026
56.8001
56.7907
56.789
56.7847
56.7943
56.8012
56.7854
56.7896
56.8052
56.804
56.8012
56.7885
56.7861
56.7958
56.7931
56.8029
56.8156
56.8051
56.8123
56.8166
56.8131
56.8017
56.8022
56.811
56.7964
56.8011
56.811
56.8028
56.8043
56.801
56.7888
55.0761
56.0177
56.5508
56.7671
56.8107
56.8022
56.8088
56.8131
56.8015
56.8074
56.8154
56.8234
56.8297
56.8227
56.8221
56.8141
56.8213
56.8282
56.8277
56.8277
56.8135
56.8209
56.8314
56.8293
56.8265
56.8174
56.8153
56.806
56.8121
56.8237
56.8218
56.8213
56.8096
56.8156
56.8186
56.8034
56.8088
56.8163
56.8
56.7975
56.8028
56.7925
56.7965
56.809
56.7951
56.7965
56.8143
56.8158
56.8119
56.7962
56.7988
56.8064
56.7892
56.7889
56.798
56.8007
56.8011
56.79
56.7904
56.8032
56.8074
56.8051
56.8036
56.7946
56.7998
56.8031
56.8117
56.8242
56.8254
56.8223
56.8186
56.8179
56.806
56.8084
56.8125
56.803
56.8094
56.8182
56.815
56.804
56.8058
56.8137
56.8112
56.8083
56.7907
56.7912
56.8026
56.8036
56.8023
56.7853
55.0763
56.0163
56.5536
56.7648
56.8093
56.8104
56.8121
56.8101
56.7999
56.7987
56.8281
56.8506
56.8422
56.8496
56.854
56.846
56.8498
56.8509
56.8498
56.8489
56.8471
56.8455
56.8326
56.8349