/*--------------------------------*- C++ -*----------------------------------*\
  =========                 |
  \\      /  F ield         | OpenFOAM: The Open Source CFD Toolbox
   \\    /   O peration     | Website:  https://openfoam.org
    \\  /    A nd           | Version:  11
     \\/     M anipulation  |
\*---------------------------------------------------------------------------*/
FoamFile
{
    format      ascii;
    class       volScalarField;
    location    "0.04";
    object      p;
}
// * * * * * * * * * * * * * * * * * * * * * * * * * * * * * * * * * * * * * //

dimensions      [0 2 -2 0 0 0 0];

internalField   nonuniform List<scalar> 
287084
(
1.74385
1.46591
1.39842
1.33093
1.26383
1.21251
1.16449
1.11926
1.07531
1.03317
0.992175
0.950299
0.906943
0.862864
0.818512
0.773655
0.728347
0.682675
0.636813
0.591016
0.545477
0.500455
0.456209
0.413081
0.370434
0.330347
0.295127
0.262691
0.232948
0.206471
0.183718
0.160974
0.139659
0.122996
0.109776
0.0995495
0.0920891
0.0870999
0.0842993
0.0834272
0.084201
0.0863235
0.0895558
0.0936835
0.0984239
0.103597
0.109033
0.114521
0.119852
0.124873
0.128851
0.132833
0.138809
0.145076
0.150076
0.153013
0.154262
0.155221
0.155975
0.157164
0.158045
0.157208
0.155961
0.154027
0.149959
0.145825
0.142224
0.139385
0.137269
0.135375
0.132114
0.128852
0.125088
0.11908
0.113938
0.106781
0.0959951
0.0867267
0.0792607
0.0732579
0.067459
0.0626817
0.0576454
0.0493745
0.0424929
0.0376503
0.0293421
0.0185785
0.00820732
0.00239873
1.61003
1.42192
1.36854
1.31315
1.25344
1.20585
1.16002
1.11632
1.0736
1.0317
0.98987
0.947532
0.90441
0.860637
0.816283
0.771302
0.725852
0.679962
0.633899
0.587867
0.542089
0.496876
0.452523
0.409343
0.367563
0.327762
0.290987
0.258823
0.229434
0.201185
0.175602
0.15333
0.133912
0.11791
0.105074
0.0951884
0.0879945
0.0833034
0.0807729
0.0801797
0.0812153
0.0835978
0.08708
0.0914442
0.0964065
0.101789
0.107428
0.113118
0.118708
0.124045
0.129071
0.133887
0.138963
0.143568
0.147399
0.15115
0.154107
0.155307
0.156054
0.157041
0.15729
0.156655
0.154922
0.152642
0.150273
0.147058
0.143995
0.142136
0.139094
0.135583
0.13281
0.128644
0.123394
0.118047
0.111772
0.104045
0.0961284
0.0887749
0.0817784
0.0762115
0.0703178
0.0625812
0.0565096
0.0502223
0.0415149
0.0344296
0.0279527
0.0191684
0.0098813
0.00311134
1.58312
1.41394
1.36191
1.3062
1.24891
1.20165
1.15612
1.11264
1.07017
1.02825
0.986317
0.943809
0.900611
0.85666
0.812028
0.766734
0.720867
0.674578
0.628047
0.58153
0.535292
0.489606
0.444858
0.40136
0.35946
0.319797
0.282761
0.248944
0.217839
0.189757
0.164941
0.143
0.124049
0.108418
0.0959738
0.086519
0.0798415
0.0756327
0.0736429
0.0735736
0.0751374
0.078048
0.0820438
0.086873
0.0922971
0.0981159
0.104148
0.110217
0.116183
0.121927
0.12738
0.13254
0.137488
0.142189
0.146258
0.149423
0.151951
0.153778
0.154934
0.156244
0.156737
0.155837
0.154615
0.152764
0.149574
0.147401
0.14624
0.143436
0.140157
0.136481
0.132508
0.127936
0.122721
0.117251
0.111142
0.104408
0.097216
0.0900969
0.0836712
0.0771367
0.0703013
0.0634711
0.0566453
0.0492642
0.0414758
0.0340027
0.0261687
0.0175631
0.00856776
0.00237186
1.53716
1.38159
1.33538
1.28525
1.23389
1.19009
1.14714
1.10539
1.06402
1.02261
0.980731
0.938212
0.894873
0.850675
0.805695
0.75989
0.713486
0.666555
0.619341
0.572105
0.525093
0.478687
0.43323
0.389099
0.346712
0.30649
0.268937
0.234376
0.202986
0.174508
0.149339
0.127542
0.109141
0.0941024
0.082297
0.0735764
0.0676181
0.0642271
0.0630379
0.0637843
0.0661391
0.06983
0.0745686
0.0801069
0.0862023
0.0926507
0.0992665
0.105889
0.112381
0.118626
0.124565
0.130128
0.135314
0.140044
0.144159
0.147779
0.150789
0.152817
0.154156
0.155196
0.155603
0.155217
0.154221
0.152588
0.150507
0.148258
0.145789
0.142847
0.139598
0.135923
0.131888
0.127313
0.122213
0.116639
0.110684
0.104318
0.0976862
0.0910418
0.084243
0.0775079
0.0707478
0.0636371
0.0565514
0.0492712
0.0415692
0.0339042
0.0259478
0.0174368
0.00865252
0.00254125
1.51398
1.36591
1.32241
1.27367
1.2244
1.18159
1.1394
1.09819
1.05717
1.01586
0.973966
0.931248
0.887593
0.842973
0.797404
0.750945
0.703759
0.655939
0.607825
0.559566
0.511581
0.464163
0.417703
0.372658
0.329389
0.288434
0.250111
0.21489
0.182901
0.154251
0.129185
0.107688
0.0897797
0.0753913
0.0643723
0.0565149
0.0515449
0.0491546
0.04902
0.0508251
0.0542422
0.0589683
0.064704
0.0711843
0.0781665
0.085445
0.0928334
0.100164
0.107306
0.114159
0.120627
0.126656
0.132206
0.137246
0.14167
0.145437
0.14851
0.150921
0.152757
0.153968
0.154465
0.154292
0.153536
0.152253
0.150427
0.148232
0.145764
0.142839
0.139441
0.13563
0.131467
0.126845
0.121772
0.116304
0.110489
0.104314
0.0978902
0.0912996
0.0845958
0.0778176
0.0708837
0.0637587
0.0565577
0.0491449
0.0414892
0.0337276
0.0256081
0.0171112
0.0084162
0.00243863
1.49083
1.34525
1.30382
1.25732
1.21075
1.16985
1.12918
1.08901
1.04861
1.00759
0.965679
0.922749
0.878718
0.833505
0.787268
0.739927
0.69178
0.642899
0.59358
0.54412
0.494823
0.446117
0.398418
0.352152
0.307822
0.265835
0.226696
0.190693
0.15822
0.12934
0.104311
0.0831271
0.0657979
0.0522215
0.0421666
0.0354373
0.0316758
0.0305833
0.031774
0.0349175
0.0396444
0.0456437
0.0526035
0.0602443
0.0683186
0.0766179
0.0849409
0.0931338
0.101072
0.108638
0.11576
0.12237
0.128417
0.133859
0.138637
0.142741
0.146175
0.148897
0.150945
0.152339
0.153073
0.153154
0.152636
0.151542
0.14991
0.147851
0.145369
0.14243
0.139061
0.135273
0.131081
0.126462
0.121449
0.116054
0.11031
0.104256
0.0979505
0.0914486
0.0847641
0.07795
0.0709855
0.0638395
0.0565758
0.0491311
0.0414921
0.0336934
0.0255745
0.017102
0.0083732
0.0024272
1.47302
1.32953
1.28966
1.24427
1.19908
1.15914
1.11921
1.07952
1.0394
0.998403
0.956355
0.913049
0.868457
0.822543
0.775381
0.727008
0.677677
0.627447
0.576763
0.525764
0.474964
0.424715
0.375462
0.327772
0.282046
0.238901
0.198702
0.161933
0.128919
0.0998291
0.0749193
0.0541434
0.0375265
0.0248831
0.015995
0.0105817
0.00825694
0.00869419
0.0114486
0.0161664
0.022456
0.0299699
0.0383861
0.0474026
0.0567632
0.0662565
0.0756857
0.0848937
0.0937494
0.102155
0.110023
0.117299
0.123925
0.129875
0.135124
0.13965
0.143441
0.146501
0.148854
0.150518
0.151493
0.15181
0.151509
0.150611
0.149169
0.147223
0.144809
0.141928
0.138598
0.134839
0.130662
0.126079
0.121116
0.115782
0.110115
0.104141
0.097919
0.0914705
0.0848193
0.0779998
0.0710177
0.063853
0.0565541
0.0490916
0.0414419
0.033617
0.0254608
0.0169598
0.00830244
0.00245557
1.4571
1.31431
1.27529
1.23097
1.18687
1.1478
1.10851
1.0693
1.02933
0.988321
0.945952
0.902172
0.856904
0.810093
0.761911
0.712293
0.661583
0.609857
0.557486
0.504795
0.452164
0.400099
0.349079
0.299672
0.252408
0.207838
0.166507
0.128835
0.0952313
0.0659414
0.0411532
0.0208786
0.00506883
-0.00645398
-0.0139815
-0.0178528
-0.0184744
-0.0162638
-0.0116818
-0.00514032
0.00293844
0.0121907
0.0222641
0.0328471
0.0436786
0.0545344
0.0652152
0.0755699
0.0854702
0.0948133
0.103529
0.111555
0.118854
0.125397
0.13117
0.136159
0.140371
0.143815
0.146505
0.148465
0.149715
0.150278
0.150198
0.149504
0.14823
0.146427
0.144116
0.141316
0.138052
0.134345
0.130218
0.125683
0.120769
0.115501
0.109897
0.103994
0.097825
0.0914171
0.084801
0.0779995
0.0710202
0.0638692
0.0565624
0.049085
0.0414426
0.033608
0.0254015
0.0168972
0.0083169
0.00251975
1.44303
1.30076
1.26235
1.21866
1.17522
1.13668
1.09779
1.05874
1.01882
0.977558
0.934812
0.890384
0.844276
0.796461
0.747003
0.695999
0.643682
0.590196
0.535977
0.481275
0.426631
0.37252
0.319456
0.268134
0.219055
0.172941
0.130286
0.0916424
0.0574517
0.027926
0.00336967
-0.0163345
-0.0311633
-0.0414138
-0.0474029
-0.0495146
-0.0482334
-0.0440149
-0.0373821
-0.0287882
-0.0186886
-0.00749257
0.00443393
0.0167703
0.029231
0.0415957
0.0536658
0.0652856
0.0763386
0.0867219
0.0963675
0.105232
0.113273
0.120475
0.126837
0.132349
0.137021
0.140875
0.143928
0.146216
0.147756
0.148584
0.148739
0.148247
0.14716
0.145503
0.143313
0.140613
0.137436
0.133801
0.129734
0.125261
0.120407
0.115196
0.10965
0.103805
0.0976845
0.0913201
0.0847297
0.0779386
0.0709733
0.0638156
0.0565067
0.0490384
0.0413947
0.033569
0.0254532
0.0170164
0.00826528
0.00236912
1.43025
1.28823
1.25021
1.20692
1.1639
1.12566
1.08691
1.04796
1.00791
0.966306
0.92295
0.877764
0.830698
0.78168
0.73087
0.678267
0.624185
0.56878
0.512443
0.455581
0.398635
0.342226
0.286923
0.233427
0.182412
0.134529
0.0904716
0.0507766
0.0159058
-0.0137833
-0.0381344
-0.0571223
-0.0708783
-0.0796839
-0.083905
-0.0840469
-0.0806164
-0.0741744
-0.0652637
-0.0544146
-0.0421087
-0.0287786
-0.0148288
-0.000594639
0.0136474
0.0276505
0.0412207
0.0542214
0.0665143
0.0780169
0.0886716
0.098428
0.107271
0.115186
0.122181
0.12825
0.133421
0.137724
0.141173
0.143806
0.145652
0.146754
0.147155
0.146882
0.145974
0.144477
0.142422
0.139838
0.136754
0.133205
0.129214
0.124809
0.12002
0.114866
0.109375
0.103587
0.0975138
0.0911866
0.0846305
0.0778656
0.0709145
0.0637847
0.0564811
0.0490058
0.0413755
0.0335573
0.0253436
0.0168543
0.00828458
0.00250414
1.41857
1.27669
1.23885
1.19583
1.15303
1.1149
1.0762
1.03707
0.996759
0.954655
0.910638
0.864582
0.816387
0.766078
0.713696
0.659363
0.603322
0.545769
0.487173
0.427868
0.368472
0.309569
0.251793
0.19599
0.142768
0.0930595
0.0474233
0.00661434
-0.0289076
-0.0587953
-0.0827863
-0.100999
-0.113497
-0.120691
-0.123006
-0.120981
-0.115231
-0.10636
-0.0949933
-0.0816891
-0.0669955
-0.0513826
-0.0352587
-0.0189841
-0.00285416
0.0129001
0.0280736
0.0425192
0.0561272
0.0688172
0.0805405
0.0912513
0.100941
0.109615
0.117276
0.123942
0.129638
0.134404
0.138265
0.141264
0.143435
0.144823
0.145478
0.145423
0.144714
0.143379
0.141468
0.139008
0.136035
0.132577
0.128667
0.124338
0.119612
0.114519
0.109084
0.103345
0.0973135
0.0910248
0.0845014
0.0777592
0.0708224
0.0637024
0.0564148
0.0489663
0.0413283
0.0334951
0.025338
0.0168746
0.00825602
0.00247009
1.40778
1.26596
1.22826
1.18531
1.1426
1.10446
1.06566
1.02628
0.985455
0.942775
0.897998
0.850909
0.801525
0.749753
0.695723
0.639507
0.581371
0.521547
0.460473
0.398623
0.33652
0.274945
0.214535
0.156193
0.100727
0.0489683
0.00175433
-0.040242
-0.0764482
-0.106446
-0.130099
-0.147385
-0.158545
-0.163969
-0.164168
-0.159802
-0.151533
-0.140072
-0.126072
-0.110185
-0.092976
-0.0749411
-0.0565394
-0.0381295
-0.0200111
-0.00243407
0.0144085
0.0303809
0.0453646
0.05929
0.0721183
0.0838164
0.0943913
0.103844
0.112199
0.11948
0.125727
0.130971
0.13526
0.138638
0.141142
0.142823
0.143731
0.143904
0.143392
0.142231
0.140469
0.138143
0.135278
0.131919
0.128094
0.123838
0.119186
0.114155
0.108776
0.103082
0.0970962
0.0908513
0.0843569
0.0776419
0.0707184
0.0636208
0.056332
0.0488675
0.0413097
0.0335139
0.0253244
0.0168616
0.00824516
0.0024656
1.39782
1.25601
1.2183
1.17542
1.13268
1.09439
1.05541
1.01559
0.974243
0.93087
0.885186
0.83705
0.786314
0.733022
0.677198
0.618981
0.558607
0.496365
0.432705
0.368093
0.303233
0.238789
0.175625
0.114659
0.0567497
0.00294648
-0.0459832
-0.0891567
-0.12602
-0.15614
-0.179285
-0.195596
-0.20524
-0.208767
-0.206746
-0.199902
-0.189004
-0.174812
-0.158073
-0.139474
-0.119637
-0.0991045
-0.078337
-0.0577162
-0.0375539
-0.0180993
0.000461265
0.0179837
0.0343717
0.0495613
0.0635247
0.0762364
0.0877116
0.0979701
0.107033
0.114944
0.121742
0.127481
0.132204
0.135962
0.138804
0.140781
0.14195
0.142356
0.142043
0.141055
0.139449
0.13725
0.134502
0.131245
0.127509
0.123335
0.118744
0.113781
0.108462
0.102814
0.0968717
0.0906549
0.0841966
0.0775119
0.0706204
0.0635388
0.0562851
0.04886
0.0412545
0.0334364
0.0252961
0.0168542
0.00822281
0.00246036
1.38859
1.24676
1.20901
1.16609
1.12321
1.08472
1.04544
1.00521
0.963211
0.919059
0.872436
0.823082
0.770991
0.716058
0.658398
0.59809
0.53543
0.470651
0.4043
0.33688
0.269046
0.201718
0.135638
0.0719535
0.0115855
-0.0443754
-0.0949836
-0.139363
-0.176858
-0.207012
-0.229649
-0.244851
-0.252936
-0.254446
-0.25007
-0.240643
-0.226999
-0.209993
-0.190432
-0.169065
-0.146552
-0.123467
-0.100298
-0.0774363
-0.055208
-0.0338507
-0.0135593
0.00553445
0.0233423
0.0398075
0.0549099
0.0686467
0.0810272
0.0920859
0.101859
0.110398
0.117757
0.123986
0.129137
0.133276
0.136455
0.138736
0.140165
0.140795
0.140682
0.139875
0.138421
0.136355
0.133725
0.130568
0.126921
0.122828
0.118309
0.113401
0.108136
0.102537
0.0966361
0.0904629
0.0840327
0.0773694
0.0705019
0.0634329
0.0561884
0.0487619
0.0411761
0.0334068
0.0252531
0.0168076
0.00822023
0.00247173
1.38007
1.23821
1.2004
1.15736
1.11433
1.07553
1.03589
0.995132
0.952512
0.907518
0.859875
0.809312
0.755768
0.699172
0.639594
0.577156
0.512094
0.44478
0.375655
0.30533
0.234575
0.164198
0.0952548
0.0287864
-0.0340855
-0.0921711
-0.144476
-0.190013
-0.228094
-0.258241
-0.280258
-0.294302
-0.300691
-0.300132
-0.293358
-0.281289
-0.26487
-0.245019
-0.222609
-0.198459
-0.173262
-0.147621
-0.122053
-0.0969613
-0.0726715
-0.0494287
-0.0274127
-0.00676025
0.0124467
0.0301741
0.0464034
0.0611433
0.0744212
0.0862778
0.0967555
0.105917
0.113824
0.120542
0.126123
0.130638
0.134152
0.136717
0.1384
0.139257
0.139341
0.138702
0.1374
0.135466
0.132949
0.129897
0.12634
0.12232
0.117867
0.113025
0.107814
0.102261
0.0964036
0.0902587
0.0838639
0.0772333
0.0703889
0.0633488
0.0561262
0.0487297
0.0411512
0.0333743
0.0252486
0.0168232
0.008204
0.00244553
1.37224
1.23034
1.19243
1.14927
1.10597
1.06693
1.02687
0.98554
0.942218
0.896379
0.847676
0.795873
0.740873
0.682599
0.621114
0.556528
0.489117
0.419198
0.347329
0.27412
0.200341
0.127035
0.0551276
-0.0140557
-0.0794037
-0.139589
-0.193531
-0.240178
-0.278773
-0.308845
-0.330197
-0.343017
-0.34772
-0.345046
-0.33585
-0.321145
-0.301951
-0.279275
-0.254056
-0.227157
-0.199312
-0.171169
-0.143249
-0.115967
-0.0896619
-0.0645739
-0.0408803
-0.0187104
0.00186816
0.020823
0.038152
0.0538703
0.0680216
0.0806527
0.0918166
0.101578
0.110014
0.117197
0.123192
0.128072
0.131904
0.134754
0.136691
0.137764
0.138037
0.137572
0.136409
0.134604
0.132204
0.129245
0.125773
0.121833
0.117446
0.112655
0.107492
0.101986
0.09617
0.0900624
0.0836939
0.077089
0.0702661
0.063234
0.0560232
0.0486304
0.0410741
0.0333086
0.0251991
0.0167915
0.00818621
0.00245777
1.3651
1.22318
1.18514
1.14183
1.09829
1.05886
1.0184
0.976544
0.932533
0.885802
0.83607
0.783013
0.726582
0.666626
0.603254
0.536547
0.466782
0.394354
0.319751
0.243703
0.167037
0.0907666
0.0160668
-0.0558126
-0.123533
-0.18573
-0.241227
-0.288883
-0.327938
-0.357854
-0.378501
-0.390063
-0.393041
-0.388276
-0.376698
-0.359416
-0.337529
-0.312116
-0.284175
-0.254625
-0.224242
-0.193681
-0.163503
-0.134127
-0.105891
-0.0790379
-0.0537371
-0.0301112
-0.0082283
0.0119003
0.0302786
0.0469309
0.0619104
0.0752836
0.0870939
0.0974375
0.106384
0.114014
0.120405
0.125634
0.129772
0.132891
0.13506
0.136341
0.136797
0.136487
0.135464
0.133781
0.131488
0.128624
0.125233
0.12136
0.117037
0.112302
0.107188
0.10173
0.0959506
0.0898745
0.0835376
0.0769542
0.0701576
0.0631625
0.0559762
0.0486034
0.0410352
0.0332818
0.0251388
0.0167381
0.00820035
0.00247569
1.3587
1.2167
1.17855
1.13508
1.09127
1.05154
1.01065
0.968202
0.923476
0.875921
0.825154
0.770927
0.713078
0.651554
0.586336
0.517624
0.44561
0.370728
0.293538
0.214746
0.135281
0.0562437
-0.0212114
-0.0955794
-0.165588
-0.229641
-0.286573
-0.335151
-0.374554
-0.404289
-0.424163
-0.434504
-0.435813
-0.429037
-0.415181
-0.395433
-0.370983
-0.342971
-0.312457
-0.280404
-0.247619
-0.214789
-0.182485
-0.151138
-0.121085
-0.0925744
-0.0657694
-0.0407844
-0.0176684
0.00356058
0.0229209
0.040452
0.056212
0.070266
0.0826882
0.09357
0.102991
0.111038
0.117797
0.123351
0.127774
0.131144
0.133536
0.135009
0.135635
0.135478
0.134583
0.133015
0.130821
0.128044
0.124728
0.12092
0.116654
0.111971
0.106905
0.101479
0.0957337
0.0896877
0.0833761
0.0768164
0.0700371
0.0630509
0.0558651
0.0485043
0.040955
0.0332244
0.0251067
0.0167666
0.0082006
0.00242614
1.35303
1.21096
1.17266
1.12905
1.08501
1.04487
1.00361
0.960686
0.91526
0.866907
0.815188
0.759818
0.700667
0.637601
0.570697
0.500044
0.425922
0.348781
0.269125
0.187805
0.105736
0.0240611
-0.0558597
-0.132618
-0.204639
-0.27044
-0.32863
-0.37799
-0.417696
-0.447151
-0.466316
-0.475429
-0.475157
-0.466473
-0.450489
-0.428461
-0.401643
-0.371239
-0.338364
-0.304011
-0.269023
-0.234112
-0.199857
-0.166705
-0.134986
-0.104957
-0.0767758
-0.0505358
-0.0263018
-0.00406783
0.0161895
0.0345192
0.0509887
0.0656835
0.0786608
0.0900357
0.099891
0.108321
0.115419
0.121267
0.125955
0.129552
0.132144
0.133795
0.134574
0.13455
0.133778
0.132311
0.130209
0.127509
0.124265
0.120516
0.116306
0.111669
0.10664
0.101256
0.0955446
0.0895297
0.0832421
0.0767012
0.0699451
0.0629862
0.0558263
0.048484
0.0409264
0.0332043
0.0250825
0.016679
0.00817312
0.00247248
1.34809
1.20598
1.16758
1.1238
1.0795
1.03907
0.997424
0.953995
0.907969
0.858862
0.806272
0.749871
0.689519
0.625103
0.556628
0.484249
0.408222
0.328959
0.247122
0.163449
0.0790337
-0.00498551
-0.0872038
-0.166008
-0.239929
-0.30718
-0.366502
-0.416528
-0.456413
-0.485617
-0.504037
-0.512041
-0.510326
-0.499929
-0.482023
-0.457941
-0.429
-0.396447
-0.361455
-0.325043
-0.288087
-0.251319
-0.215329
-0.180561
-0.147363
-0.115979
-0.0865656
-0.0592231
-0.0339834
-0.0108452
0.0102177
0.0292576
0.0463556
0.0615976
0.0750772
0.0868872
0.0971323
0.105903
0.113298
0.119413
0.124331
0.128134
0.130905
0.132712
0.133631
0.133728
0.133059
0.131687
0.129661
0.127034
0.123849
0.120156
0.115995
0.111398
0.106406
0.101048
0.0953657
0.0893727
0.0831054
0.0765879
0.0698383
0.0628807
0.0557284
0.0483925
0.0408651
0.0331552
0.0250544
0.016682
0.00815502
0.00246602
1.34395
1.20178
1.16325
1.11934
1.07484
1.03414
0.992158
0.948274
0.901694
0.851972
0.798587
0.741291
0.679881
0.614228
0.544405
0.470479
0.39276
0.311716
0.227919
0.142248
0.0557649
-0.0303318
-0.114477
-0.195138
-0.270589
-0.339145
-0.399363
-0.449904
-0.489945
-0.518841
-0.536625
-0.543632
-0.540619
-0.528717
-0.509145
-0.483286
-0.452512
-0.418119
-0.381307
-0.343128
-0.304479
-0.266119
-0.228628
-0.192479
-0.158007
-0.125456
-0.0949885
-0.0666887
-0.0405935
-0.0166887
0.00505718
0.0247156
0.0423641
0.0580913
0.0719936
0.0841848
0.0947594
0.103823
0.111479
0.117821
0.122941
0.126915
0.129844
0.131787
0.13282
0.13302
0.132444
0.13115
0.1292
0.12663
0.123497
0.119849
0.115727
0.111165
0.106203
0.100881
0.0952198
0.0892502
0.0830016
0.0764961
0.0697708
0.0628308
0.0556991
0.048386
0.0408475
0.0331504
0.0250482
0.0166633
0.00815603
0.00247177
1.3406
1.19839
1.15977
1.11575
1.07106
1.03009
0.98784
0.9436
0.896599
0.846275
0.792271
0.734193
0.671914
0.605278
0.534299
0.459114
0.380013
0.297403
0.212013
0.124627
0.0364422
-0.0513536
-0.137126
-0.219246
-0.296044
-0.365545
-0.426478
-0.477459
-0.517562
-0.546218
-0.563414
-0.569572
-0.565518
-0.552363
-0.531419
-0.504097
-0.471815
-0.435899
-0.397591
-0.357963
-0.31793
-0.278255
-0.239543
-0.202253
-0.166734
-0.133231
-0.101892
-0.0728124
-0.046009
-0.0214753
0.000842293
0.0210066
0.0390997
0.0552161
0.0694733
0.081969
0.0928189
0.102123
0.109988
0.116515
0.121794
0.125917
0.128966
0.13102
0.132151
0.132437
0.131934
0.130706
0.128807
0.126291
0.123205
0.119593
0.115506
0.110972
0.106037
0.100729
0.0950901
0.0891367
0.0829006
0.0764169
0.0696931
0.0627585
0.055635
0.0483126
0.0407939
0.0330954
0.0250032
0.0166332
0.00813755
0.00248051
1.33807
1.19583
1.15713
1.11304
1.06819
1.02709
0.984598
0.940006
0.892639
0.841954
0.787401
0.72877
0.665787
0.598347
0.526498
0.450321
0.370113
0.286384
0.199721
0.111061
0.0215587
-0.0675652
-0.154571
-0.237848
-0.315719
-0.385887
-0.447295
-0.498554
-0.538746
-0.567169
-0.58393
-0.589443
-0.584532
-0.57043
-0.548425
-0.519985
-0.486552
-0.449486
-0.410034
-0.369297
-0.328206
-0.287536
-0.247883
-0.209729
-0.173412
-0.139178
-0.107178
-0.0774964
-0.0501553
-0.0251359
-0.00238898
0.0181639
0.0365957
0.0530161
0.0675373
0.0802719
0.0913259
0.100817
0.108845
0.115513
0.120921
0.125149
0.128299
0.130434
0.131642
0.131992
0.131549
0.130367
0.128515
0.126036
0.122979
0.1194
0.115332
0.110825
0.105908
0.100622
0.0949937
0.0890573
0.0828371
0.0763586
0.0696531
0.0627253
0.0556159
0.0483109
0.0407939
0.0331121
0.0250165
0.0166294
0.00813137
0.0024771
1.33638
1.1941
1.15534
1.1112
1.06627
1.02498
0.982382
0.937644
0.890009
0.838981
0.784135
0.725068
0.661641
0.593693
0.521224
0.444382
0.363447
0.27888
0.191368
0.101812
0.0113917
-0.078596
-0.1665
-0.250486
-0.329226
-0.399719
-0.461227
-0.512804
-0.553083
-0.581361
-0.597794
-0.602846
-0.597399
-0.582637
-0.559916
-0.530716
-0.496508
-0.458657
-0.418434
-0.376952
-0.335148
-0.293799
-0.253517
-0.214775
-0.177918
-0.143193
-0.110746
-0.0806583
-0.0529555
-0.0276166
-0.00457932
0.0162291
0.0348935
0.0515207
0.0662333
0.0791294
0.0903287
0.0999395
0.108078
0.114838
0.120329
0.124636
0.127847
0.13004
0.131295
0.131689
0.131281
0.130137
0.128311
0.125856
0.122826
0.119263
0.115219
0.110727
0.105822
0.100546
0.0949285
0.0890033
0.0827828
0.0763157
0.0696107
0.0626879
0.0555738
0.0482657
0.0407638
0.0330774
0.0250281
0.0166946
0.00811603
0.00240021
1.33553
1.19323
1.15446
1.11028
1.0653
1.02394
0.981299
0.936451
0.888649
0.837513
0.782457
0.72321
0.659528
0.591286
0.51853
0.441338
0.360027
0.275083
0.187138
0.0971478
0.00627172
-0.0841725
-0.172517
-0.256961
-0.336053
-0.407017
-0.468269
-0.519772
-0.560272
-0.588462
-0.604764
-0.609603
-0.603857
-0.588773
-0.565695
-0.536118
-0.501519
-0.463276
-0.422667
-0.380807
-0.33864
-0.296955
-0.256356
-0.217317
-0.180193
-0.145221
-0.112545
-0.0822537
-0.0543648
-0.0288536
-0.00567238
0.0152646
0.0340397
0.0507702
0.0655721
0.0785465
0.0898156
0.0994929
0.107686
0.114496
0.120028
0.124369
0.127613
0.129835
0.131119
0.131536
0.131149
0.130017
0.128211
0.125769
0.122747
0.119199
0.115156
0.110671
0.105775
0.100505
0.0948926
0.0889682
0.0827608
0.0762988
0.0696034
0.0626822
0.0555728
0.0482737
0.040766
0.0330874
0.0249962
0.0166187
0.00813029
0.00246895
1.33552
1.19322
1.15445
1.11027
1.06531
1.02393
0.981288
0.936437
0.888639
0.837488
0.782448
0.723204
0.659514
0.591305
0.51853
0.441345
0.360038
0.275071
0.187129
0.0971359
0.00625871
-0.084183
-0.172525
-0.256951
-0.336038
-0.406984
-0.468264
-0.519769
-0.56026
-0.588457
-0.604746
-0.609581
-0.60384
-0.588755
-0.565678
-0.536096
-0.501501
-0.463262
-0.422657
-0.380796
-0.338631
-0.296946
-0.256347
-0.217315
-0.180184
-0.145212
-0.112541
-0.0822483
-0.0543648
-0.0288619
-0.0056806
0.0152569
0.0340354
0.0507643
0.0655697
0.0785441
0.0898157
0.0994942
0.107684
0.114492
0.120031
0.124373
0.127614
0.129835
0.131115
0.131531
0.13114
0.130013
0.128204
0.125762
0.122742
0.119195
0.115157
0.110668
0.105772
0.1005
0.094891
0.0889671
0.0827555
0.0762947
0.069591
0.0626707
0.055563
0.0482532
0.0407491
0.0330583
0.0249774
0.0166252
0.00813293
0.00247056
1.33636
1.19408
1.15532
1.11119
1.06626
1.02496
0.982381
0.937641
0.889984
0.838962
0.784108
0.725035
0.66162
0.593638
0.521194
0.444351
0.363404
0.278874
0.191355
0.101825
0.0114
-0.0785816
-0.166473
-0.25048
-0.329208
-0.399735
-0.461177
-0.512753
-0.553023
-0.581302
-0.597746
-0.6028
-0.597347
-0.582586
-0.559869
-0.530671
-0.496462
-0.458619
-0.418401
-0.376922
-0.33512
-0.293773
-0.253498
-0.214761
-0.177908
-0.143185
-0.11074
-0.0806552
-0.0529514
-0.0276073
-0.00456738
0.0162399
0.0348962
0.0515181
0.0662246
0.0791162
0.0903155
0.0999292
0.108067
0.114828
0.120318
0.124624
0.127833
0.130026
0.131285
0.131677
0.131271
0.130121
0.128299
0.125845
0.122812
0.119255
0.115204
0.110712
0.105807
0.100531
0.0949178
0.0889884
0.0827757
0.0763064
0.0696096
0.0626902
0.0555795
0.0482796
0.0407673
0.0330786
0.0249793
0.0165888
0.00813271
0.0024907
1.33802
1.19579
1.15709
1.11299
1.06816
1.02703
0.984575
0.940007
0.892615
0.841897
0.787361
0.728729
0.665738
0.598332
0.526471
0.450294
0.370109
0.286347
0.199702
0.111042
0.0215368
-0.0675587
-0.154574
-0.237808
-0.3157
-0.385818
-0.447218
-0.49849
-0.538658
-0.567097
-0.583832
-0.589355
-0.584445
-0.570346
-0.548349
-0.519909
-0.486483
-0.449422
-0.409977
-0.369246
-0.328161
-0.287496
-0.24785
-0.209703
-0.17339
-0.13916
-0.107168
-0.0774891
-0.0501539
-0.0251398
-0.00239465
0.0181528
0.0365807
0.0529969
0.0675233
0.080257
0.0913142
0.100804
0.108832
0.115499
0.120906
0.125138
0.128283
0.130419
0.131626
0.131973
0.131524
0.130344
0.128488
0.12601
0.122959
0.119379
0.115313
0.110801
0.105889
0.1006
0.0949747
0.0890409
0.0828187
0.0763443
0.0696359
0.062709
0.0555957
0.0482793
0.0407805
0.0330814
0.0250381
0.0166993
0.00811069
0.0024159
1.34053
1.19833
1.1597
1.1157
1.071
1.03004
0.987812
0.943554
0.896539
0.846216
0.792215
0.734133
0.671865
0.605213
0.534241
0.459067
0.379942
0.297393
0.21198
0.124632
0.0364406
-0.051339
-0.13709
-0.219222
-0.295977
-0.365507
-0.426391
-0.477374
-0.517457
-0.546112
-0.563307
-0.569464
-0.565411
-0.552252
-0.531312
-0.503995
-0.471712
-0.435813
-0.39751
-0.357887
-0.317867
-0.278201
-0.2395
-0.202218
-0.166708
-0.133212
-0.101877
-0.0728046
-0.046005
-0.0214766
0.000832599
0.0209959
0.039082
0.0551939
0.0694516
0.0819472
0.0927967
0.102102
0.109966
0.116491
0.12177
0.125894
0.128942
0.130995
0.132127
0.132408
0.131908
0.130674
0.128775
0.126261
0.123174
0.119565
0.115471
0.110941
0.106011
0.100707
0.0950648
0.0891124
0.0828819
0.0763949
0.0696809
0.0627493
0.0556322
0.0483186
0.0407989
0.0331145
0.0250204
0.0166423
0.00812808
0.0024622
1.34386
1.2017
1.16316
1.11926
1.07476
1.03401
0.992101
0.948251
0.901652
0.851884
0.798513
0.741212
0.679802
0.61417
0.544344
0.470424
0.392728
0.31166
0.227892
0.142213
0.0557494
-0.0303158
-0.114468
-0.195076
-0.270542
-0.339059
-0.399257
-0.44981
-0.489799
-0.518726
-0.536471
-0.543493
-0.540475
-0.52858
-0.509021
-0.483166
-0.452398
-0.418014
-0.38121
-0.343042
-0.304405
-0.266056
-0.228574
-0.192435
-0.157974
-0.125433
-0.0949751
-0.0666831
-0.0405931
-0.0166976
0.00504577
0.0246972
0.0423367
0.0580601
0.0719679
0.0841562
0.0947303
0.103798
0.111455
0.117795
0.122909
0.126888
0.129812
0.131757
0.132792
0.132987
0.132406
0.13111
0.129154
0.12659
0.123462
0.119813
0.115687
0.111125
0.106167
0.100838
0.0951779
0.0892102
0.0829642
0.0764691
0.0697381
0.0628003
0.0556724
0.0483479
0.0408277
0.0331211
0.0250441
0.016689
0.00813676
0.0024308
1.34799
1.20588
1.16746
1.1237
1.0794
1.03897
0.997331
0.953909
0.907873
0.858764
0.806185
0.749781
0.689441
0.625018
0.556544
0.484171
0.408136
0.32892
0.247072
0.163432
0.0790205
-0.00499495
-0.087153
-0.165998
-0.239826
-0.30713
-0.366383
-0.416414
-0.456281
-0.48547
-0.503898
-0.51188
-0.51018
-0.499767
-0.481873
-0.457796
-0.428854
-0.396319
-0.361337
-0.32494
-0.288002
-0.251246
-0.215266
-0.18051
-0.147326
-0.115954
-0.086552
-0.0592189
-0.0339859
-0.0108631
0.0101861
0.0292294
0.0463253
0.0615639
0.0750444
0.0868578
0.0970987
0.10587
0.113266
0.119379
0.124294
0.128096
0.130868
0.132674
0.133593
0.133686
0.133018
0.131639
0.129614
0.126986
0.123803
0.120109
0.115941
0.111351
0.106362
0.10101
0.0953211
0.0893327
0.0830683
0.0765541
0.0698129
0.0628628
0.0557182
0.0483852
0.040847
0.0331397
0.0250176
0.0166208
0.0081599
0.00250308
1.35291
1.21084
1.17252
1.12894
1.08487
1.04476
1.00352
0.960547
0.915155
0.866778
0.815072
0.759714
0.700559
0.637511
0.570615
0.499958
0.425872
0.348704
0.269097
0.187763
0.105707
0.0240773
-0.0558604
-0.132548
-0.204595
-0.270343
-0.328518
-0.377883
-0.417534
-0.447006
-0.466135
-0.475252
-0.474981
-0.466305
-0.450336
-0.428316
-0.401503
-0.371111
-0.338246
-0.303905
-0.268929
-0.234041
-0.199792
-0.166648
-0.134945
-0.104928
-0.0767609
-0.0505367
-0.0263029
-0.00407379
0.016173
0.0344943
0.0509574
0.0656369
0.0786147
0.0899876
0.0998405
0.108275
0.115375
0.121225
0.125907
0.129509
0.1321
0.133752
0.134534
0.134505
0.133725
0.132261
0.130151
0.127451
0.124206
0.12046
0.116248
0.11161
0.106583
0.101195
0.095484
0.089468
0.0831879
0.0766566
0.0698975
0.0629343
0.0557805
0.0484364
0.0408962
0.0331769
0.0250386
0.0166336
0.00816477
0.00250651
1.35859
1.21655
1.17837
1.13497
1.09114
1.05138
1.01049
0.96809
0.923361
0.875788
0.825049
0.770798
0.712981
0.651433
0.586238
0.517511
0.445513
0.370646
0.293475
0.214689
0.135263
0.0562081
-0.0211726
-0.0955767
-0.165497
-0.229582
-0.286447
-0.335023
-0.37442
-0.404124
-0.424017
-0.434321
-0.43565
-0.428854
-0.415003
-0.395267
-0.370817
-0.342822
-0.312326
-0.280282
-0.247516
-0.214704
-0.182415
-0.151077
-0.121044
-0.0925435
-0.065756
-0.0407827
-0.0176777
0.00353906
0.0228858
0.0404107
0.0561677
0.0702179
0.0826382
0.0935192
0.102938
0.110985
0.117745
0.123298
0.127724
0.131092
0.133485
0.134957
0.135584
0.135421
0.134528
0.132951
0.130757
0.127977
0.12466
0.120851
0.116582
0.111903
0.106837
0.101417
0.0956707
0.089631
0.0833229
0.0767735
0.0699944
0.0630123
0.0558389
0.0484857
0.0409358
0.0332068
0.0251324
0.0167692
0.00815984
0.00241289
1.36495
1.22303
1.18497
1.1417
1.09812
1.05875
1.01829
0.976379
0.932363
0.885659
0.835904
0.782897
0.726426
0.666508
0.603139
0.536433
0.466708
0.394264
0.319688
0.243655
0.166985
0.0907625
0.0160654
-0.0557869
-0.123473
-0.185666
-0.241116
-0.288774
-0.327792
-0.357704
-0.378325
-0.389874
-0.392866
-0.388097
-0.376529
-0.359254
-0.337377
-0.311977
-0.284052
-0.254513
-0.22414
-0.193607
-0.163434
-0.134073
-0.105848
-0.0790101
-0.0537299
-0.0301154
-0.00824022
0.0118807
0.0302467
0.0468909
0.0618632
0.0752251
0.0870351
0.0973768
0.106317
0.113948
0.120344
0.125575
0.129711
0.132833
0.135006
0.136285
0.136741
0.136428
0.1354
0.133715
0.131414
0.128545
0.125155
0.121279
0.116954
0.112221
0.107104
0.101647
0.0958713
0.0898014
0.0834685
0.0768917
0.070096
0.063099
0.055914
0.048545
0.0409843
0.0332436
0.0250961
0.0166742
0.00818712
0.00250457
1.37208
1.23018
1.19226
1.14909
1.10583
1.06673
1.02668
0.985395
0.942063
0.896227
0.847532
0.795732
0.740736
0.682466
0.620974
0.556411
0.488982
0.419095
0.347245
0.274018
0.20032
0.126962
0.055145
-0.0140662
-0.0793417
-0.139539
-0.193419
-0.240063
-0.278645
-0.30869
-0.330052
-0.342846
-0.347555
-0.344864
-0.335676
-0.320982
-0.301795
-0.27913
-0.253926
-0.227038
-0.19921
-0.171083
-0.143179
-0.115908
-0.0896221
-0.0645488
-0.0408771
-0.0187187
0.00185058
0.0207928
0.0381107
0.0538181
0.067965
0.0805879
0.0917447
0.101504
0.109943
0.117125
0.123121
0.128002
0.131838
0.13469