# vtk DataFile Version 2.0
tracks
ASCII
DATASET POLYDATA
POINTS 812 float
-0.2 -0.2 -0.01 -0.199978 -0.200001 -0.00999585 -0.194309 -0.200372 -0.00890193 -0.187869 -0.200746
-0.00758622 -0.176134 -0.201351 -0.00506557 -0.162654 -0.201991 -0.00137219 -0.154106 -0.202673 0.001919
-0.151091 -0.203121 0.00330319 -0.137704 -0.205345 0.00968167 -0.13209 -0.207048 0.0131958 -0.125291
-0.209469 0.0178422 -0.114482 -0.214728 0.0259085 -0.112851 -0.216157 0.0274232 -0.102452 -0.225425
0.0371765 -0.101043 -0.226856 0.0385843 -0.100705 -0.227209 0.0389296 -0.089972 -0.238338 0.0498334
-0.0886936 -0.23944 0.0510274 -0.0883648 -0.239718 0.0513316 -0.0764053 -0.249811 0.0623549 -0.0746777
-0.250864 0.0635155 -0.073564 -0.251539 0.0642669 -0.0639526 -0.257335 0.0706098 -0.0524732 -0.263622
0.0775918 -0.0523964 -0.263655 0.0776442 -0.0519759 -0.263834 0.077931 -0.0393302 -0.269245 0.0865792
-0.0355583 -0.270916 0.0892914 -0.0261805 -0.275164 0.0960247 -0.0250024 -0.27569 0.0968976 -0.0193557
-0.2782 0.101031 -0.0134631 -0.280614 0.104779 -0.0006329 -0.28325 0.110314 0.0246715 -0.282513
0.114751 0.0497888 -0.2808 0.113332 0.0999402 -0.279175 0.105624 0.125581 -0.279916 0.100052
0.149977 -0.281116 0.0948637 0.199991 -0.283593 0.0854806 0.299999 -0.287916 0.0711117 0.4
-0.290268 0.0642015 0.5 -0.291968 0.0602209 0.6 -0.29311 0.0576452 0.7 -0.293741
0.0558773 0.8 -0.294058 0.0546054 0.9 -0.29419 0.0536573 1 -0.294219 0.0529308
1.1 -0.294195 0.0523611 1.2 -0.294148 0.0519049 1.3 -0.294091 0.0515328 1.4
-0.294033 0.0512245 1.5 -0.293978 0.0509653 1.6 -0.293928 0.0507445 1.7 -0.293884
0.0505542 1.8 -0.293845 0.0503887 1.9 -0.293811 0.0502432 2 -0.293781 0.0501145
2.1 -0.293756 0.0499997 2.2 -0.293734 0.0498967 2.3 -0.293715 0.0498039 2.4
-0.293698 0.0497197 2.5 -0.293684 0.0496431 2.6 -0.293672 0.0495731 2.7 -0.293661
0.049509 2.8 -0.293652 0.0494502 2.9 -0.293644 0.0493959 3 -0.293638 0.0493459
3.1 -0.293632 0.0492997 3.2 -0.293627 0.049257 3.3 -0.293622 0.0492173 3.4
-0.293618 0.0491806 3.5 -0.293615 0.0491465 3.6 -0.293612 0.0491149 3.7 -0.29361
0.0490856 3.8 -0.293607 0.0490583 3.9 -0.293605 0.049033 4 -0.293604 0.0490095
4.1 -0.293602 0.0489877 4.2 -0.293601 0.0489676 4.3 -0.2936 0.0489489 4.4
-0.293599 0.0489316 4.5 -0.293598 0.0489157 4.6 -0.293597 0.0489011 4.7 -0.293597
0.0488876 4.8 -0.293596 0.0488753 4.9 -0.293596 0.048864 5 -0.293595 0.0488538
5.1 -0.293595 0.0488446 5.2 -0.293595 0.0488363 5.3 -0.293594 0.048829 5.4
-0.293594 0.0488225 5.5 -0.293594 0.0488169 5.6 -0.293594 0.0488122 5.7 -0.293594
0.0488082 5.8 -0.293594 0.0488051 5.9 -0.293594 0.0488027 6 -0.293594 0.0488012
-6.91738e-17 -0.2 -0.01 0.000116624 -0.200025 -0.0100004 0.0499733 -0.210865 -0.0101619 0.0999884
-0.219475 -0.0112397 0.199997 -0.231958 -0.0140905 0.3 -0.237944 -0.0179967 0.4 -0.241142
-0.0202931 0.5 -0.243178 -0.0219054 0.6 -0.244384 -0.0231484 0.7 -0.245039 -0.0241336
0.8 -0.24537 -0.0249218 0.9 -0.245517 -0.0255584 1 -0.245561 -0.0260772 1.1
-0.245552 -0.0265045 1.2 -0.245518 -0.0268604 1.3 -0.245472 -0.0271599 1.4 -0.245425
-0.0274149 1.5 -0.245379 -0.0276339 1.6 -0.245336 -0.027824 1.7 -0.245298 -0.0279904
1.8 -0.245264 -0.0281371 1.9 -0.245235 -0.0282675 2 -0.24521 -0.0283842 2.1
-0.245188 -0.0284891 2.2 -0.245169 -0.028584 2.3 -0.245152 -0.0286702 2.4 -0.245138
-0.0287488 2.5 -0.245126 -0.0288207 2.6 -0.245116 -0.0288867 2.7 -0.245106 -0.0289474
2.8 -0.245099 -0.0290034 2.9 -0.245092 -0.0290552 3 -0.245086 -0.0291031 3.1
-0.245081 -0.0291474 3.2 -0.245077 -0.0291886 3.3 -0.245073 -0.0292268 3.4 -0.245069
-0.0292623 3.5 -0.245067 -0.0292953 3.6 -0.245064 -0.029326 3.7 -0.245062 -0.0293545
3.8 -0.24506 -0.029381 3.9 -0.245058 -0.0294056 4 -0.245057 -0.0294285 4.1
-0.245056 -0.0294497 4.2 -0.245055 -0.0294694 4.3 -0.245054 -0.0294876 4.4 -0.245053
-0.0295045 4.5 -0.245052 -0.0295201 4.6 -0.245051 -0.0295344 4.7 -0.245051 -0.0295476
4.8 -0.24505 -0.0295596 4.9 -0.24505 -0.0295707 5 -0.24505 -0.0295807 5.1
-0.245049 -0.0295897 5.2 -0.245049 -0.0295978 5.3 -0.245049 -0.029605 5.4 -0.245049
-0.0296113 5.5 -0.245049 -0.0296168 5.6 -0.245048 -0.0296215 5.7 -0.245048 -0.0296254
5.8 -0.245048 -0.0296285 5.9 -0.245048 -0.0296309 6 -0.245048 -0.0296323 0.2
-0.2 -0.01 0.20002 -0.200001 -0.0100008 0.3 -0.204421 -0.0138625 0.4 -0.207297
-0.0162996 0.5 -0.209179 -0.017992 0.6 -0.210284 -0.0192862 0.7 -0.210889 -0.0203055
0.8 -0.2112 -0.0211171 0.9 -0.211343 -0.0217693 1 -0.211392 -0.0222989 1.1
-0.211391 -0.0227339 1.2 -0.211365 -0.0230955 1.3 -0.211329 -0.0233994 1.4 -0.211289
-0.0236577 1.5 -0.21125 -0.0238795 1.6 -0.211214 -0.0240717 1.7 -0.211182 -0.0242397
1.8 -0.211153 -0.0243878 1.9 -0.211128 -0.0245193 2 -0.211106 -0.0246369 2.1
-0.211087 -0.0247426 2.2 -0.21107 -0.0248381 2.3 -0.211056 -0.0249248 2.4 -0.211044
-0.0250038 2.5 -0.211033 -0.0250761 2.6 -0.211024 -0.0251424 2.7 -0.211017 -0.0252034
2.8 -0.21101 -0.0252597 2.9 -0.211004 -0.0253116 3 -0.210999 -0.0253597 3.1
-0.210995 -0.0254042 3.2 -0.210991 -0.0254455 3.3 -0.210987 -0.0254838 3.4 -0.210985
-0.0255194 3.5 -0.210982 -0.0255525 3.6 -0.21098 -0.0255832 3.7 -0.210978 -0.0256118
3.8 -0.210976 -0.0256383 3.9 -0.210975 -0.025663 4 -0.210974 -0.0256859 4.1
-0.210973 -0.0257072 4.2 -0.210972 -0.0257269 4.3 -0.210971 -0.0257452 4.4 -0.21097
-0.0257621 4.5 -0.21097 -0.0257777 4.6 -0.210969 -0.025792 4.7 -0.210968 -0.0258052
4.8 -0.210968 -0.0258173 4.9 -0.210968 -0.0258283 5 -0.210967 -0.0258383 5.1
-0.210967 -0.0258474 5.2 -0.210967 -0.0258555 5.3 -0.210967 -0.0258627 5.4 -0.210967
-0.0258691 5.5 -0.210966 -0.0258746 5.6 -0.210966 -0.0258793 5.7 -0.210966 -0.0258831
5.8 -0.210966 -0.0258862 5.9 -0.210966 -0.0258886 6 -0.210966 -0.0258901 0.4
-0.2 -0.01 0.4 -0.2 -0.01 0.4 -0.2 -0.01 0.5 -0.201859
-0.0118549 0.6 -0.202947 -0.013245 0.7 -0.203544 -0.0143231 0.8 -0.203852 -0.0151722
0.9 -0.203994 -0.015849 1 -0.204044 -0.0163952 1.1 -0.204045 -0.0168418 1.2
-0.204021 -0.0172117 1.3 -0.203987 -0.0175218 1.4 -0.203949 -0.0177846 1.5 -0.203912
-0.0180098 1.6 -0.203877 -0.0182047 1.7 -0.203846 -0.0183748 1.8 -0.203818 -0.0185246
1.9 -0.203794 -0.0186575 2 -0.203773 -0.0187761 2.1 -0.203754 -0.0188826 2.2
-0.203739 -0.0189789 2.3 -0.203725 -0.0190662 2.4 -0.203713 -0.0191457 2.5 -0.203703
-0.0192184 2.6 -0.203694 -0.0192851 2.7 -0.203687 -0.0193464 2.8 -0.20368 -0.0194029
2.9 -0.203675 -0.019455 3 -0.20367 -0.0195033 3.1 -0.203666 -0.0195479 3.2
-0.203662 -0.0195894 3.3 -0.203659 -0.0196278 3.4 -0.203656 -0.0196635 3.5 -0.203654
-0.0196967 3.6 -0.203651 -0.0197275 3.7 -0.20365 -0.0197562 3.8 -0.203648 -0.0197828
3.9 -0.203647 -0.0198075 4 -0.203645 -0.0198305 4.1 -0.203644 -0.0198518 4.2
-0.203644 -0.0198716 4.3 -0.203643 -0.0198899 4.4 -0.203642 -0.0199068 4.5 -0.203641
-0.0199224 4.6 -0.203641 -0.0199368 4.7 -0.20364 -0.01995 4.8 -0.20364 -0.0199621
4.9 -0.20364 -0.0199732 5 -0.203639 -0.0199832 5.1 -0.203639 -0.0199923 5.2
-0.203639 -0.0200004 5.3 -0.203639 -0.0200076 5.4 -0.203639 -0.020014 5.5 -0.203638
-0.0200195 5.6 -0.203638 -0.0200242 5.7 -0.203638 -0.0200281 5.8 -0.203638 -0.0200312
5.9 -0.203638 -0.0200336 6 -0.203638 -0.020035 -0.2 3.54365e-17 -0.01 -0.197706
1.97896e-06 -0.00956342 -0.187699 1.00424e-05 -0.00766134 -0.174862 1.567e-05 -0.00515055 -0.149565 1.40115e-05
-0.000149982 -0.142756 9.25774e-06 0.0008426 -0.130121 -9.03111e-07 0.00243396 -0.124744 -6.0309e-06 0.00289934
-0.0998754 -2.69649e-05 0.00446184 -0.0499711 -6.18085e-05 0.00302116 -0.0221188 -7.28686e-05 3.09297e-05 6.81452e-06
-8.15831e-05 -0.00224822 0.100001 -0.000116446 -0.0120468 0.2 -0.00013401 -0.0177036 0.3 -0.000143459
-0.0212085 0.4 -0.000148836 -0.0235953 0.5 -0.000151836 -0.0253006 0.6 -0.000153524 -0.026576
0.7 -0.000154466 -0.0275627 0.8 -0.000154982 -0.0283431 0.9 -0.000155253 -0.0289707 1
-0.000155385 -0.0294824 1.1 -0.000155442 -0.029905 1.2 -0.000155451 -0.0302579 1.3 -0.000155439
-0.030556 1.4 -0.000155421 -0.0308102 1.5 -0.000155395 -0.0310291 1.6 -0.000155366 -0.0312194
1.7 -0.000155334 -0.031386 1.8 -0.000155304 -0.0315332 1.9 -0.000155278 -0.031664 2
-0.000155254 -0.031781 2.1 -0.000155231 -0.0318862 2.2 -0.000155212 -0.0319814 2.3 -0.000155194
-0.0320679 2.4 -0.000155179 -0.0321467 2.5 -0.000155168 -0.0322189 2.6 -0.000155157 -0.032285
2.7 -0.000155147 -0.0323459 2.8 -0.000155137 -0.0324021 2.9 -0.000155128 -0.0324539 3
-0.00015512 -0.0325019 3.1 -0.000155112 -0.0325464 3.2 -0.000155104 -0.0325876 3.3 -0.000155097
-0.0326259 3.4 -0.000155093 -0.0326614 3.5 -0.00015509 -0.0326945 3.6 -0.000155084 -0.0327252
3.7 -0.000155077 -0.0327537 3.8 -0.000155072 -0.0327802 3.9 -0.000155069 -0.0328049 4
-0.000155066 -0.0328278 4.1 -0.000155064 -0.032849 4.2 -0.000155068 -0.0328687 4.3 -0.000155073
-0.032887 4.4 -0.000155073 -0.0329038 4.5 -0.000155069 -0.0329194 4.6 -0.000155065 -0.0329337
4.7 -0.000155062 -0.0329469 4.8 -0.00015506 -0.032959 4.9 -0.000155057 -0.03297 5
-0.000155051 -0.03298 5.1 -0.000155049 -0.032989 5.2 -0.00015505 -0.0329971 5.3 -0.000155052
-0.0330044 5.4 -0.000155055 -0.0330107 5.5 -0.000155059 -0.0330162 5.6 -0.000155063 -0.0330209
5.7 -0.000155067 -0.0330248 5.8 -0.000155071 -0.0330278 5.9 -0.000155065 -0.0330302 6
-0.000155057 -0.0330317 -1.61646e-16 3.29607e-17 -0.01 6.19883e-06 -1.78701e-09 -0.0100005 4.99883e-05 -1.44104e-08
-0.0100044 0.100001 -2.82181e-05 -0.0190121 0.2 -4.30039e-05 -0.0242405 0.3 -5.06708e-05 -0.0274913
0.4 -5.48203e-05 -0.0297225 0.5 -5.70309e-05 -0.0313301 0.6 -5.82372e-05 -0.0325421 0.7
-5.89031e-05 -0.0334864 0.8 -5.92715e-05 -0.034238 0.9 -5.9471e-05 -0.0348454 1 -5.95769e-05
-0.0353428 1.1 -5.96314e-05 -0.035755 1.2 -5.96502e-05 -0.0361003 1.3 -5.9654e-05 -0.0363926
1.4 -5.96535e-05 -0.0366425 1.5 -5.96453e-05 -0.0368582 1.6 -5.96322e-05 -0.0370458 1.7
-5.96161e-05 -0.0372105 1.8 -5.95996e-05 -0.037356 1.9 -5.95852e-05 -0.0374855 2 -5.95709e-05
-0.0376015 2.1 -5.95571e-05 -0.037706 2.2 -5.95461e-05 -0.0378005 2.3 -5.95347e-05 -0.0378864
2.4 -5.9525e-05 -0.0379647 2.5 -5.95188e-05 -0.0380365 2.6 -5.95127e-05 -0.0381023 2.7
[...]
POINT_DATA 812
FIELD attributes 2
age 1 812 float
0 2.22834e-06 0.000588835 0.00130664 0.00272835 0.0047215 0.00571745 0.00610639 0.0078867 0.00861256 0.0095526
0.0112614 0.0116092 0.0138376 0.0141603 0.0142392 0.0167299 0.0169987 0.0170674 0.0195629 0.0198648
0.0200593 0.0217252 0.023702 0.0237152 0.0237875 0.0260019 0.0266824 0.0284253 0.0286549 0.029761
0.0308869 0.0328829 0.035733 0.0381833 0.0432528 0.045911 0.0485437 0.0539828 0.0648645 0.0755556
0.0860206 0.0963463 0.106581 0.116757 0.126891 0.136995 0.147077 0.157143 0.167196 0.177239
0.187275 0.197304 0.207328 0.217349 0.227366 0.23738 0.247392 0.257402 0.267411 0.277418
0.287424 0.297429 0.307433 0.317437 0.32744 0.337442 0.347444 0.357446 0.367447 0.377448
0.387449 0.397449 0.407449 0.41745 0.427449 0.437449 0.447449 0.457448 0.467448 0.477447
0.487447 0.497446 0.507445 0.517444 0.527443 0.537442 0.547441 0.55744 0.567439 0.577438
0.587437 0.597436 0.607435 0.617434 0.627432 0.637431 0 1.42479e-05 0.00610493 0.0120343
0.0235598 0.0346392 0.0453242 0.0557876 0.0661191 0.0763645 0.0865506 0.0966943 0.106807 0.116896
0.126967 0.137025 0.147072 0.157111 0.167142 0.177169 0.187191 0.19721 0.207225 0.217238
0.227249 0.237259 0.247267 0.257273 0.267279 0.277284 0.287288 0.297291 0.307294 0.317296
0.327298 0.337299 0.347301 0.357302 0.367302 0.377303 0.387303 0.397303 0.407303 0.417303
0.427302 0.437302 0.447302 0.457301 0.4673 0.4773 0.487299 0.497298 0.507297 0.517296
0.527295 0.537294 0.547293 0.557292 0.567291 0.57729 0.587289 0.597288 0.607287 0
2.20825e-06 0.0108502 0.0214334 0.0318457 0.0421474 0.0523762 0.0625527 0.0726909 0.0828002 0.0928876
0.102958 0.113015 0.123062 0.133101 0.143133 0.153159 0.163182 0.1732 0.183216 0.193229
0.20324 0.21325 0.223258 0.233264 0.24327 0.253275 0.263279 0.273282 0.283285 0.293287
0.303289 0.313291 0.323292 0.333293 0.343293 0.353294 0.363294 0.373294 0.383294 0.393294
0.403294 0.413293 0.423293 0.433292 0.443291 0.453291 0.46329 0.473289 0.483288 0.493287
0.503286 0.513285 0.523284 0.533283 0.543282 0.553281 0.56328 0.573279 0.583278 0
0 0 0.0104044 0.0207005 0.0309254 0.0410995 0.0512361 0.0613444 0.0714311 0.0815011
0.0915581 0.101605 0.111643 0.121675 0.131702 0.141724 0.151742 0.161758 0.171771 0.181782
0.191791 0.201799 0.211806 0.221812 0.231817 0.241821 0.251824 0.261827 0.271829 0.281831
0.291832 0.301833 0.311834 0.321835 0.331835 0.341836 0.351836 0.361836 0.371836 0.381835
0.391835 0.401834 0.411834 0.421833 0.431832 0.441831 0.451831 0.46183 0.471829 0.481828
0.491827 0.501826 0.511825 0.521824 0.531823 0.541822 0.55182 0.561819 0 0.000317273
0.00169382 0.00341176 0.00680059 0.00770978 0.00940046 0.0101297 0.0133695 0.0193787 0.0223988 0.0247996
0.0356113 0.046159 0.056558 0.0668722 0.0771308 0.0873476 0.0975285 0.107678 0.117801 0.127902
0.137986 0.148054 0.158111 0.168158 0.178197 0.188229 0.198256 0.208279 0.218298 0.228314
0.238327 0.248339 0.258349 0.268357 0.278364 0.28837 0.298374 0.308379 0.318382 0.328385
0.338387 0.348389 0.358391 0.368392 0.378393 0.388394 0.398394 0.408395 0.418395 0.428395
0.438395 0.448394 0.458394 0.468393 0.478393 0.488392 0.498391 0.508391 0.51839 0.528389
0.538388 0.548387 0.558386 0.568385 0.578384 0.588383 0.598382 0.608381 0.61838 0.628379
0 6.73628e-07 5.43223e-06 0.0108016 0.0213524 0.0317546 0.042071 0.0523313 0.0625494 0.0727312
0.0828815 0.0930052 0.103107 0.113191 0.123259 0.133316 0.143363 0.153402 0.163435 0.173462
0.183485 0.193504 0.20352 0.213534 0.223545 0.233555 0.243563 0.25357 0.263576 0.273581
0.283585 0.293589 0.303592 0.313594 0.323596 0.333598 0.343599 0.3536 0.363601 0.373601
0.383602 0.393602 0.403602 0.413601 0.423601 0.433601 0.4436 0.4536 0.463599 0.473598
0.483598 0.493597 0.503596 0.513595 0.523594 0.533593 0.543592 0.553591 0.56359 0.573589
0.583588 0.593587 0.603586 0 0 9.11199e-07 0.0103952 0.0207066 0.0309631 0.0411785
0.0513582 0.0615068 0.0716292 0.0817299 0.0918127 0.101881 0.111937 0.121984 0.132022 0.142055
0.152082 0.162104 0.172123 0.182139 0.192153 0.202164 0.212174 0.222182 0.232189 0.242195
0.2522 0.262204 0.272207 0.28221 0.292212 0.302214 0.312216 0.322217 0.332218 0.342219
0.352219 0.362219 0.37222 0.38222 0.392219 0.402219 0.412219 0.422218 0.432218 0.442217
0.452216 0.462215 0.472215 0.482214 0.492213 0.502212 0.512211 0.52221 0.532209 0.542208
0.552207 0.562206 0.572205 0.582203 0 2.27659e-17 2.27085e-07 0.0102548 0.0204688 0.0306475
0.0407954 0.0509171 0.0610173 0.0710997 0.0811675 0.0912235 0.10127 0.111308 0.121341 0.131367
0.14139 0.151409 0.161425 0.171438 0.181449 0.191459 0.201467 0.211474 0.22148 0.231485
0.241489 0.251492 0.261495 0.271497 0.281499 0.291501 0.301502 0.311503 0.321504 0.331504
0.341504 0.351505 0.361504 0.371504 0.381504 0.391504 0.401503 0.411502 0.421502 0.431501
0.4415 0.451499 0.461499 0.471498 0.481497 0.491496 0.501495 0.511494 0.521493 0.531492
0.54149 0.551489 0.561488 0 2.1313e-06 0.000588248 0.0013073 0.00272963 0.00472383 0.00572244
0.00610997 0.00789223 0.0086219 0.00956034 0.011276 0.0116199 0.0138464 0.0141845 0.0142618 0.0167264
0.0170348 0.0171149 0.0195778 0.0197876 0.0201569 0.0217157 0.0236431 0.0237518 0.0237771 0.0259642
0.0266266 0.0284524 0.0292232 0.0296984 0.0309445 0.0329003 0.0357426 0.0382443 0.0433846 0.0450691
0.048743 0.0542081 0.065111 0.0757884 0.0862518 0.0965772 0.106812 0.116988 0.127122 0.137227
0.147309 0.157375 0.167428 0.177471 0.187507 0.197536 0.207561 0.217581 0.227598 0.237612
0.247624 0.257634 0.267643 0.27765 0.287656 0.297661 0.307666 0.317669 0.327672 0.337675
0.347677 0.357678 0.36768 0.37768 0.387681 0.397682 0.407682 0.417682 0.427682 0.437682
0.447681 0.457681 0.46768 0.47768 0.487679 0.497678 0.507677 0.517677 0.527676 0.537675
0.547674 0.557673 0.567672 0.577671 0.587669 0.597668 0.607667 0.617666 0.627665 0.637664
0 1.37847e-05 0.00609884 0.0120184 0.0235289 0.0346026 0.0453054 0.0557737 0.0661072 0.0763534
0.0865398 0.0966836 0.106796 0.116885 0.126957 0.137014 0.147062 0.1571 0.167132 0.177159
0.187181 0.197199 0.207215 0.217228 0.227239 0.237248 0.247256 0.257263 0.267269 0.277273
0.287277 0.297281 0.307284 0.317286 0.327288 0.337289 0.34729 0.357291 0.367292 0.377292
0.387293 0.397293 0.407293 0.417293 0.427292 0.437292 0.447291 0.457291 0.46729 0.477289
0.487289 0.497288 0.507287 0.517286 0.527285 0.537284 0.547283 0.557282 0.567281 0.57728
0.587279 0.597278 0.607276 0 2.21125e-06 0.0108469 0.0214338 0.0318476 0.0421502 0.0523792
0.0625558 0.072694 0.0828034 0.0928908 0.102961 0.113019 0.123066 0.133104 0.143136 0.153163
0.163185 0.173203 0.183219 0.193232 0.203243 0.213253 0.223261 0.233268 0.243273 0.253278
0.263282 0.273285 0.283288 0.29329 0.303292 0.313294 0.323295 0.333296 0.343297 0.353297
0.363297 0.373297 0.383297 0.393297 0.403297 0.413296 0.423296 0.433295 0.443295 0.453294
0.463293 0.473292 0.483291 0.493291 0.50329 0.513289 0.523288 0.533287 0.543285 0.553284
0.563283 0.573282 0.583281 0 4.61871e-17 0.010404 0.0207 0.030925 0.041099 0.0512356
0.0613439 0.0714306 0.0815006 0.0915576 0.101604 0.111643 0.121675 0.131701 0.141723 0.151742
0.161757 0.17177 0.181782 0.191791 0.201799 0.211806 0.221811 0.231816 0.24182 0.251823
0.261826 0.271828 0.28183 0.291832 0.301833 0.311834 0.321835 0.331835 0.341835 0.351835
0.361835 0.371835 0.381835 0.391834 0.401834 0.411833 0.421832 0.431832 0.441831 0.45183
0.461829 0.471828 0.481827 0.491826 0.501825 0.511824 0.521823 0.531822 0.541821 0.55182
0.561819 
U 3 812 float
9.66366 -0.631732 1.8644 9.66432 -0.631427 1.86482 8.97254 -0.521251 1.83295 8.25366 -0.425727
1.77297 6.76352 -0.320986 1.85304 8.5825 -0.685 3.30458 7.75244 -1.15109 3.55887
7.51917 -1.24951 3.58279 7.73505 -2.34525 4.84134 7.23247 -2.57555 4.94278 6.32526
-3.07757 4.72051 4.68962 -4.10842 4.35503 4.66688 -4.15891 4.37675 4.36631 -4.43537
4.36244 4.28373 -4.47728 4.37777 4.30913 -4.46816 4.37786 4.7555 -4.09931 4.44134
4.78803 -4.05532 4.42997 4.79248 -4.04437 4.41729 5.72083 -3.48722 3.84356 5.72779
-3.47107 3.86438 5.76947 -3.47948 3.80745 5.80697 -3.18009 3.53195 5.81455 -2.48988
3.96428 5.81669 -2.48554 3.9666 5.71077 -2.44325 3.90554 5.54243 -2.45537 3.98528
5.38048 -2.43748 3.86321 5.13214 -2.2913 3.80269 5.105 -2.26919 3.73695 5.23393
-2.14434 3.32931 6.42788 -1.32043 2.77287 8.87842 0.258635 1.55664 10.2505 0.698959
-0.578934 9.8929 0.320462 -1.52054 9.64602 -0.278716 -2.09626 9.26637 -0.455638 -1.97051
9.19533 -0.455467 -1.72513 9.19046 -0.397255 -1.32047 9.3536 -0.220014 -0.646344 9.55572
-0.162419 -0.38037 9.68456 -0.110615 -0.249447 9.77047 -0.06164 -0.172736 9.82771 -0.0311534
-0.124995 9.86757 -0.0129961 -0.0935564 9.8967 -0.00287512 -0.0718967 9.91839 0.00230591 -0.0565089
9.93473 0.0047287 -0.0453224 9.94724 0.00564737 -0.0370051 9.95699 0.00575893 -0.0306992 9.96467
0.00546302 -0.0258327 9.97079 0.00498431 -0.022016 9.97573 0.00444371 -0.0189776 9.97974 0.0039068
-0.0165248 9.98303 0.00340577 -0.0145178 9.98575 0.00295246 -0.0128559 9.988 0.00255154 -0.0114648
9.98989 0.00220123 -0.0102867 9.99147 0.00189711 -0.00927947 9.99281 0.00163543 -0.00841101 9.99394
0.00140991 -0.00765514 9.99491 0.00121569 -0.00699226 9.99573 0.00104962 -0.00640666 9.99643 0.000907135
-0.00588588 9.99704 0.000784314 -0.0054199 9.99756 0.000678913 -0.00500003 9.99802 0.000588432 -0.00462025
9.99841 0.000510624 -0.00427563 9.99875 0.000443581 -0.00396101 9.99905 0.000385168 -0.00367265 9.99931
0.000334491 -0.00340736 9.99954 0.00029111 -0.00316268 9.99974 0.000253517 -0.00293634 9.99992 0.000220745
-0.00272595 10.0001 0.000192487 -0.00253035 10.0002 0.000167543 -0.00234801 10.0003 0.000145858 -0.00217716
10.0004 0.000127475 -0.00201703 10.0005 0.000111381 -0.00186689 10.0006 9.73604e-05 -0.00172549 10.0007
8.48371e-05 -0.0015921 10.0008 7.38785e-05 -0.00146585 10.0008 6.41416e-05 -0.0013462 10.0009 5.52763e-05
-0.0012326 10.0009 4.79483e-05 -0.00112427 10.001 4.13809e-05 -0.0010211 10.001 3.52154e-05 -0.000922156
10.001 3.00274e-05 -0.000826784 10.0011 2.52616e-05 -0.000734919 10.0011 2.09521e-05 -0.000646091 10.0011
1.72169e-05 -0.000560086 10.0011 1.36342e-05 -0.000476584 10.0011 1.11742e-05 -0.00039562 10.0011 8.90572e-06
-0.000314464 10.0012 7.08305e-06 -0.000240893 10.0012 4.92937e-06 -0.000150247 10.0012 3.08338e-06 -9.17826e-05
8.18535 -1.78032 -0.0258818 8.18574 -1.77967 -0.0265249 8.43518 -1.45213 -0.181777 8.6771
-1.08312 -0.247344 9.02607 -0.540246 -0.352561 9.35894 -0.299278 -0.214921 9.55711 -0.194555
-0.154089 9.67915 -0.1168 -0.120311 9.76039 -0.0638819 -0.0961595 9.81733 -0.0325418 -0.0773861
9.85839 -0.0144276 -0.0627521 9.88879 -0.00438502 -0.0513057 9.91169 0.000872254 -0.0423534 9.92915
0.00342364 -0.035332 9.94262 0.00449273 -0.0297872 9.95317 0.00475258 -0.0253709 9.96152 0.00459215
-0.0218242 9.96819 0.0042334 -0.0189473 9.97356 0.00379788 -0.0165915 9.97793 0.00335187 -0.0146437
9.98151 0.0029285 -0.0130167 9.98446 0.00254201 -0.0116457 9.98691 0.00219858 -0.0104795 9.98895
0.00189748 -0.00947766 9.99066 0.00163554 -0.00861006 9.9921 0.00140981 -0.00785299 9.99332 0.00121506
-0.00718689 9.99436 0.00104741 -0.00659694 9.99525 0.000904228 -0.00607092 9.996 0.000781225 -0.00559909
9.99666 0.000674939 -0.00517334 9.99722 0.000584086 -0.00478723 9.99771 0.000506546 -0.00443631 9.99813
0.000439435 -0.00411544 9.9985 0.000381233 -0.00382047 9.99882 0.000330999 -0.00354927 9.9991 0.000287708
-0.00329893 9.99934 0.00025 -0.00306652 9.99956 0.000217647 -0.00285088 9.99975 0.000189849 -0.00265017
9.99991 0.000165505 -0.00246294 10.0001 0.000143906 -0.00228779 10.0002 0.000125056 -0.00212295 10.0003
0.000109438 -0.00196844 10.0004 9.58294e-05 -0.00182333 10.0005 8.35195e-05 -0.00168616 10.0006 7.25828e-05
-0.00155661 10.0007 6.32547e-05 -0.00143392 10.0007 5.49696e-05 -0.00131747 10.0008 4.75955e-05 -0.00120699
10.0008 4.12611e-05 -0.0011014 10.0009 3.50674e-05 -0.000999994 10.0009 2.98044e-05 -0.000903079 10.001
2.57294e-05 -0.000810518 10.001 2.1788e-05 -0.000720937 10.001 1.8184e-05 -0.000633934 10.001 1.49361e-05
-0.000549781 10.001 1.18073e-05 -0.00046784 10.0011 9.58034e-06 -0.000388196 10.0011 7.59042e-06 -0.000308627
10.0011 6.32037e-06 -0.00023665 10.0011 4.46153e-06 -0.000147333 10.0011 2.64243e-06 -8.95709e-05 9.21636
-0.40745 -0.356016 9.21641 -0.407422 -0.355985 9.44895 -0.271751 -0.23028 9.60402 -0.180811
-0.162543 9.7071 -0.107258 -0.125626 9.77637 -0.0591346 -0.0996536 9.82652 -0.0305864 -0.0797477
9.86373 -0.0140598 -0.0643314 9.89182 -0.00482302 -0.0523871 9.91335 9.73606e-05 -0.0431258 9.93002
0.0025417 -0.0359041 9.94304 0.00362205 -0.0302219 9.95334 0.00394596 -0.0257079 9.96155 0.00386927
-0.0220887 9.96814 0.00359738 -0.0191572 9.97349 0.0032447 -0.01676 9.97784 0.00287402 -0.01478
9.98142 0.002517 -0.0131277 9.98438 0.00218846 -0.0117367 9.98683 0.00189505 -0.0105546 9.98888
0.00163687 -0.00954003 9.99061 0.00141179 -0.00866209 9.99205 0.00121753 -0.00789655 9.99328 0.00104968
-0.00722358 9.99433 0.000904964 -0.00662806 9.99522 0.00078139 -0.00609739 9.99598 0.000675168 -0.00562175
9.99664 0.000583179 -0.00519272 9.9972 0.000504759 -0.00480384 9.99769 0.000438004 -0.0044508 9.99812
0.00037988 -0.00412797 9.99849 0.000329381 -0.00383121 9.99881 0.000286104 -0.0035587 9.99909 0.000248748
-0.00330734 9.99934 0.000216013 -0.00307385 9.99956 0.000188135 -0.00285734 9.99975 0.00016426 -0.00265599
9.99991 0.000143198 -0.00246799 10.0001 0.000124322 -0.00229225 10.0002 0.000107892 -0.00212702 10.0003
9.45745e-05 -0.00197201 10.0004 8.2927e-05 -0.00182645 10.0005 7.22181e-05 -0.00168893 10.0006 6.26736e-05
-0.00155909 10.0007 5.46219e-05 -0.00143613 10.0007 4.74725e-05 -0.00131945 10.0008 4.11002e-05 -0.00120874
10.0008 3.5697e-05 -0.0011029 10.0009 3.02408e-05 -0.00100135 10.0009 2.56002e-05 -0.000904371 10.001
2.20861e-05 -0.000811708 10.001 1.87118e-05 -0.000722014 10.001 1.55528e-05 -0.000634913 10.001 1.28061e-05
-0.000550536 10.001 1.02123e-05 -0.000468457 10.0011 8.19899e-06 -0.000388746 10.0011 6.50504e-06 -0.000309033
10.0011 5.60424e-06 -0.000236984 10.0011 4.02055e-06 -0.000147502 10.0011 2.34568e-06 -8.95974e-05 9.61128
-0.178711 -0.178276 9.61128 -0.178711 -0.178276 9.61128 -0.178711 -0.178276 9.71246 -0.10566
-0.135016 9.77999 -0.0583134 -0.105444 9.82891 -0.0302722 -0.0834514 9.8653 -0.0140346 -0.0667682
9.89285 -0.00494505 -0.0540381 9.91402 -8.71442e-05 -0.0442785 9.93046 0.0023384 -0.0367317 9.94335
0.00342351 -0.0308298 9.95355 0.00376269 -0.026163 9.9617 0.00370521 -0.0224344 9.96825 0.00345306
-0.0194237 9.97357 0.00311915 -0.0169684 9.97791 0.00276556 -0.0149451 9.98148 0.00242365 -0.01326
9.98442 0.00210828 -0.0118436 9.98687 0.00182626 -0.0106419 9.98892 0.00157782 -0.00961178 9.99063
0.0013611 -0.00872149 9.99208 0.001174 -0.00794607 9.9933 0.00101226 -0.00726514 9.99435 0.000872753
-0.00666316 9.99524 0.000753633 -0.00612719 9.996 0.000651208 -0.00564722 9.99665 0.000562463 -0.00521458
9.99722 0.000486871 -0.00482266 9.99771 0.000422533 -0.00446711 9.99813 0.000366442 -0.00414215 9.9985
0.000317706 -0.00384357 9.99882 0.000275994 -0.00356954 9.9991 0.000239958 -0.00331692 9.99935 0.000208358
-0.00308231 9.99957 0.000181489 -0.00286483 9.99976 0.000158479 -0.00266267 9.99992 0.000138171 -0.00247392
10.0001 0.000119909 -0.00229754 10.0002 0.00010402 -0.00213178 10.0003 9.12288e-05 -0.00197626 10.0004
8.0025e-05 -0.00183026 10.0005 6.96816e-05 -0.00169236 10.0006 6.04542e-05 -0.00156216 10.0007 5.26903e-05
-0.00143889 10.0007 4.57923e-05 -0.00132193 10.0008 3.9638e-05 -0.00121096 10.0008 3.4444e-05 -0.00110487
10.0009 2.9157e-05 -0.00100313 10.0009 2.46513e-05 -0.000905986 10.001 2.12604e-05 -0.000813154 10.001
1.80115e-05 -0.000723297 10.001 1.49386e-05 -0.00063602 10.001 1.23134e-05 -0.000551445 10.0011 9.85342e-06
-0.000469223 10.0011 7.8858e-06 -0.000389403 10.0011 6.24827e-06 -0.00030953 10.0011 5.42403e-06 -0.000237348
10.0011 3.92248e-06 -0.00014774 10.0011 2.29615e-06 -8.9756e-05 7.23085 0.00623743 1.37605 7.26939
0.00585773 1.38178 7.47214 0.00327579 1.46151 7.46503 -0.000489425 1.4756 7.48836 -0.0052285
1.09172 7.47389 -0.00600993 0.941256 7.37273 -0.0070314 0.638143 7.6759 -0.0064615 0.482281
8.30464 -0.00579836 -0.239745 9.22247 -0.00366224 -0.990127 9.216 -0.00362987 -0.949339 9.2487
-0.00322457 -0.906294 9.48058 -0.00166517 -0.536303 9.61632 -0.000908682 -0.337039 9.69542 -0.000521303
-0.231418 9.74792 -0.000292432 -0.166231 9.78774 -0.000165209 -0.124834 9.82237 -9.25148e-05 -0.0969092
9.85267 -5.08592e-05 -0.0768913 9.87837 -2.67419e-05 -0.0619956 9.89978 -1.31345e-05 -0.0506611 9.91744
-5.65173e-06 -0.0419075 9.93191 -8.66118e-07 -0.0350573 9.94373 1.18318e-06 -0.0296364 9.95337 1.80334e-06
-0.0253041 9.96124 2.57609e-06 -0.0218089 9.96769 2.95805e-06 -0.018961 9.97299 3.13588e-06 -0.0166211
9.97735 3.00102e-06 -0.0146801 9.98096 2.60258e-06 -0.0130548 9.98396 2.42388e-06 -0.0116826 9.98647
2.27779e-06 -0.0105129 9.98856 1.88279e-06 -0.00950808 9.99032 1.78374e-06 -0.00863767 9.99181 1.53249e-06
-0.00787703 9.99307 1.11051e-06 -0.00720749 9.99414 1.03831e-06 -0.00661447 9.99506 1.01484e-06 -0.00608622
9.99584 9.84596e-07 -0.00561245 9.99651 9.15258e-07 -0.00518445 9.9971 8.6749e-07 -0.00479667 9.9976
7.89549e-07 -0.00444451 9.99803 8.01887e-07 -0.00412226 9.99841 6.86671e-07 -0.00382663 9.99875 3.86946e-07
-0.0035546 9.99904 3.06274e-07 -0.00330309 9.99929 5.87918e-07 -0.00307057 9.99951 6.84587e-07 -0.00285443
9.99971 4.67077e-07 -0.0026524 9.99988 3.64121e-07 -0.00246461 10 3.23228e-07 -0.00228959 10.0002
1.31177e-07 -0.00212482 10.0003 -3.34253e-07 -0.00196974 10.0004 -5.15554e-07 -0.00182392 10.0005 -7.3107e-08
-0.00168676 10.0006 4.12946e-07 -0.00155704 10.0007 4.02187e-07 -0.00143414 10.0007 3.02733e-07 -0.00131804
10.0008 2.09806e-07 -0.00120733 10.0008 3.68648e-07 -0.0011012 10.0009 5.58653e-07 -0.00100015 10.0009
2.1792e-07 -0.000903609 10.0009 -9.79293e-08 -0.00081055 10.001 -2.13234e-07 -0.000720908 10.001 -2.73388e-07
-0.000634286 10.001 -4.22555e-07 -0.000549932 10.001 -3.96048e-07 -0.000468016 10.0011 -4.00467e-07 -0.000388211
10.0011 -3.83015e-07 -0.00030867 10.0011 6.06546e-07 -0.000237173 10.0011 7.87885e-07 -0.000147678 10.0011
1.36108e-07 -8.96554e-05 9.20216 -0.00265281 -0.810863 9.20218 -0.00265276 -0.810875 9.25802 -0.00261239
-0.834345 9.47781 -0.00140138 -0.495537 9.61341 -0.000737044 -0.312513 9.6933 -0.00040223 -0.216283
9.74631 -0.000215444 -0.156678 9.78655 -0.000118058 -0.118613 9.82146 -6.54062e-05 -0.0927489 9.85194
-3.62905e-05 -0.0740417 9.87778 -1.97096e-05 -0.0600018 9.89931 -1.04801e-05 -0.0492393 9.91706 -5.4096e-06
-0.0408753 9.93161 -1.86366e-06 -0.034296 9.94348 -3.77773e-07 -0.0290666 9.95316 4.71821e-08 -0.0248724
9.96107 8.22683e-07 -0.0214787 9.96755 1.29993e-06 -0.0187055 9.97287 1.60621e-06 -0.0164209 9.97725
1.64504e-06 -0.0145214 9.98088 1.44439e-06 -0.0129278 9.98389 1.4233e-06 -0.01158 9.98641 1.37921e-06
-0.0104294 9.98851 1.10286e-06 -0.0094395 9.99027 1.13652e-06 -0.00858096 9.99177 9.72338e-07 -0.00782983
9.99304 6.13942e-07 -0.00716794 9.99411 6.085e-07 -0.00658112 9.99503 6.46409e-07 -0.00605796 9.99581
6.67189e-07 -0.00558832 9.99649 6.42186e-07 -0.00516378 9.99707 6.31717e-07 -0.00477889 9.99758 5.82823e-07
-0.0044291 9.99802 6.26281e-07 -0.00410884 9.9984 5.3372e-07 -0.00381486 9.99873 2.54612e-07 -0.00354432
9.99902 2.02027e-07 -0.00329409 9.99928 4.94285e-07 -0.00306259 9.9995 5.89152e-07 -0.0028473 9.9997
3.72703e-07 -0.00264608 9.99987 2.8715e-07 -0.00245902 10 2.67832e-07 -0.00228457 10.0002 7.56717e-08
-0.00212031 10.0003 -3.79247e-07 -0.00196567 10.0004 -5.31946e-07 -0.00182028 10.0005 -1.0669e-07 -0.00168352
10.0006 3.50237e-07 -0.00155411 10.0007 3.66182e-07 -0.00143148 10.0007 2.91371e-07 -0.00131565 10.0008
2.01029e-07 -0.00120519 10.0008 3.64518e-07 -0.0010993 10.0009 5.51066e-07 -0.000998448 10.0009 2.12105e-07
-0.000902093 10.0009 -1.04038e-07 -0.000809206 10.001 -2.27748e-07 -0.000719718 10.001 -3.00159e-07 -0.00063325
10.001 -4.48696e-07 -0.000549047 10.001 -3.93646e-07 -0.000467263 10.0011 -3.77564e-07 -0.000387597 10.0011